<LesHouchesEvents version="1.0">
<!--
file generated with POWHEG-BOX version 1.0
Input file powheg.input contained:
numevts 5000        ! number of events to be generated
ih1  1               ! hadron 1 (1 for protons, -1 for antiprotons)
ih2  1               ! hadron 2 (1 for protons, -1 for antiprotons)
ebeam1 2510d0        ! energy of beam 1
ebeam2 2510d0        ! energy of beam 2
 
bornktmin 10d0       ! (default 0d0) Generation cut: minimum kt in underlying Born
#bornsuppfact 100d0  ! (default 0d0) Mass parameter for Born suppression factor.
                     ! If < 0 suppfact = 1.
 
 
! To be set only if using internal (mlm) pdfs
! 131 cteq6m
ndns1 131            ! pdf set for hadron 1 (mlm numbering)
ndns2 131            ! pdf set for hadron 2 (mlm numbering)
 
! To be set only if using LHA pdfs
! 10050 cteq6m
! lhans1  10050      ! pdf set for hadron 1 (LHA numbering)
! lhans2  10050      ! pdf set for hadron 2 (LHA numbering)	
 
! To be set only if using different pdf sets for the two incoming hadrons
#QCDLambda5  0.25    ! for not equal pdf sets
 
#renscfact  1d0      ! (default 1d0) ren scale factor: muren  = muref * renscfact
#facscfact  1d0      ! (default 1d0) fac scale factor: mufact = muref * facscfact
 
! Parameters to allow or not the use of stored data
use-old-grid    1    ! If 1 use old grid if file pwggrids.dat is present (<> 1 regenerate)
use-old-ubound  1    ! If 1 use norm of upper bounding function stored
                     ! in pwgubound.dat, if present; <> 1 regenerate
 
! A typical call uses 1/1400 seconds (1400 calls per second)
ncall1 20000         ! No. calls for the construction of the importance sampling grid
itmx1 5              ! No. iterations for grid: total 100000 calls ~ 70 seconds
ncall2 20000         ! No. calls for the computation of the upper bounding
                     ! envelope for the generation of radiation
itmx2 5              ! No. iterations for the above
 
! Notice: the total number of calls is ncall2*itmx2*foldcsi*foldy*foldphi
! these folding numbers yield a negative fraction of 0.5% with bornktmin=10 GeV.
! With these settings: ncall2*itmx2*foldcsi*foldy*foldphi=5M, 60 minutes
foldcsi 5            ! No. folds on csi integration
foldy   5            ! No. folds on  y  integration
foldphi 2            ! No. folds on phi integration
 
nubound 500000       ! No. calls to set up the upper bounding norms for radiation.
                     ! This is performed using only the Born cross section (fast)
 
! OPTIONAL PARAMETERS
 
withnegweights 1     ! (default 0). If 1 use negative weights.
#bornonly 1          ! (default 0). If 1 compute underlying Born using LO
                     ! cross section only.
 
#ptsqmin    0.8      ! (default 0.8 GeV) minimum pt for generation of radiation
#charmthr   1.5      ! (default 1.5 GeV) charm treshold for gluon splitting
#bottomthr  5.0      ! (default 5.0 GeV) bottom treshold for gluon splitting
#testplots  1        ! (default 0, do not) do NLO and PWHG distributions
#charmthrpdf  1.5    ! (default 1.5 GeV) pdf charm treshold
#bottomthrpdf 5.0    ! (default 5.0 GeV) pdf bottom treshold
 
#xupbound 2d0        ! increase upper bound for radiation generation
 
#iseed    5421       ! Start the random number generator with seed iseed
#rand1     0         ! skipping  rand2*100000000+rand1 numbers (see RM48
#rand2     0         ! short writeup in CERNLIB).
#manyseeds 1         ! Used to perform multiple runs with different random
                     ! seeds in the same directory.
                     ! If set to 1, the program asks for an integer j;
                     ! The file pwgseeds.dat at line j is read, and the
                     ! integer at line j is used to initialize the random
                     ! sequence for the generation of the event.
                     ! The event file is called pwgevents-'j'.lhe
 
doublefsr 1          ! Default 0; if 1 use new mechanism to generate regions
                     ! such that the emitted harder than the
                     ! emitter in FSR is suppressed. If doublefsr=0 this is
                     ! only the case for emitted gluons (old behaviour). If
                     ! 1 it is also applied to emitted quarks.
                     ! If set, it strongly reduces spikes on showered output.
 
 
 
#par_diexp 4         ! default is 2. With 4 there is a stronger separation
#par_dijexp 4        ! of regions, it may help to reduce spikes when generating
#par_2gsupp 4        ! weighted events.
End of powheg.input content
PDF package: mlm
 Random number generator initialized with:     54217137      13375302             0
-->
<init>
     2212     2212  2.51000E+03  2.51000E+03     -1     -1     -1     -1     -4      1
  2.39021E+09  5.00770E+06  1.00000E+00  10001
</init>
<event>
      5  10001  2.40292E+09  8.98708E+00 -1.00000E+00  2.01214E-01
       2    -1     0     0   513     0  0.000000000E+00  0.000000000E+00  1.320511740E+02  1.320511740E+02  0.000000000E+00  0.00000E+00  9.000E+00
      21    -1     0     0   511   512  0.000000000E+00  0.000000000E+00 -5.172487657E+00  5.172487657E+00  0.000000000E+00  0.00000E+00  9.000E+00
      21     1     1     2   513   512 -1.289487185E+01  9.882526464E+00  1.105409218E+01  1.965031815E+01  2.384185791E-07  0.00000E+00  9.000E+00
       2     1     1     2   514     0  8.301442595E+00 -1.747925401E+00  8.336481473E+01  8.379600484E+01  3.300000131E-01  0.00000E+00  9.000E+00
      21     1     1     2   511   514  4.593429255E+00 -8.134601064E+00  3.245977944E+01  3.377733868E+01  6.743495762E-07  0.00000E+00  9.000E+00
</event>
<event>
      5  10001  2.40292E+09  2.80471E+00 -1.00000E+00  3.05882E-01
      21    -1     0     0   515   512  0.000000000E+00  0.000000000E+00  3.527888556E+01  3.527888556E+01  0.000000000E+00  0.00000E+00  9.000E+00
      21    -1     0     0   511   516  0.000000000E+00  0.000000000E+00 -1.000115423E+02  1.000115423E+02  0.000000000E+00  0.00000E+00  9.000E+00
      21     1     1     2   515   516 -1.346103320E+01 -4.489339655E+00 -9.803006083E+01  9.905173604E+01  1.907348633E-06  0.00000E+00  9.000E+00
      21     1     1     2   511   513  4.640929487E+00  1.149473610E+00  9.362309960E+00  1.051248609E+01  3.153981341E-07  0.00000E+00  9.000E+00
      21     1     1     2   513   512  8.820103711E+00  3.339866045E+00  2.393509409E+01  2.572620578E+01  8.920806376E-07  0.00000E+00  9.000E+00
</event>
<event>
      5  10001  2.40292E+09  5.67278E+00 -1.00000E+00  2.29241E-01
      21    -1     0     0   514   515  0.000000000E+00  0.000000000E+00  1.436357038E+02  1.436357038E+02  0.000000000E+00  0.00000E+00  9.000E+00
      21    -1     0     0   517   512  0.000000000E+00  0.000000000E+00 -2.427515439E+01  2.427515439E+01  0.000000000E+00  0.00000E+00  9.000E+00
      21     1     1     2   514   512 -4.285771840E-02 -1.501667823E+01 -3.275364923E+00  1.536979106E+01  3.976125736E-07  0.00000E+00  9.000E+00
      21     1     1     2   517   511  5.602414357E+00  1.388895675E+01 -1.112729563E+01  1.865762242E+01  1.685873940E-07  0.00000E+00  9.000E+00
      21     1     1     2   511   515 -5.559556639E+00  1.127721486E+00  1.337632100E+02  1.338834447E+02  0.000000000E+00  0.00000E+00  9.000E+00
</event>
<event>
      5  10001  2.40292E+09  6.07857E+00 -1.00000E+00  2.24520E-01
      21    -1     0     0   513   512  0.000000000E+00  0.000000000E+00  2.252066105E+02  2.252066105E+02  0.000000000E+00  0.00000E+00  9.000E+00
       5    -1     0     0   516     0  0.000000000E+00  0.000000000E+00 -1.392240604E+01  1.392240604E+01  0.000000000E+00  0.00000E+00  9.000E+00
      21     1     1     2   513   515 -1.418189209E+01 -1.285202653E+01  4.493960064E+01  4.884535142E+01  4.768371582E-07  0.00000E+00  9.000E+00
      21     1     1     2   516   512  1.984711501E+01  1.068702567E+01  1.762672228E+02  1.777027133E+02  2.697398305E-06  0.00000E+00  9.000E+00
       5     1     1     2   515     0 -5.665222920E+00  2.165000863E+00 -9.922618963E+00  1.258095181E+01  4.800000191E+00  0.00000E+00  9.000E+00
</event>
<event>
      5  10001  2.40292E+09  4.54233E+00 -1.00000E+00  2.51005E-01
      21    -1     0     0   511   512  0.000000000E+00  0.000000000E+00  6.687526046E+00  6.687526046E+00  0.000000000E+00  0.00000E+00  9.000E+00
      21    -1     0     0   514   511  0.000000000E+00  0.000000000E+00 -3.161760858E+02  3.161760858E+02  0.000000000E+00  0.00000E+00  9.000E+00
      21     1     1     2   516   512  1.070916703E+01 -1.210986611E+01 -3.743200212E+00  1.659357296E+01  4.086288572E-07  0.00000E+00  9.000E+00
      21     1     1     2   513   516 -5.056305682E+00  7.955080013E+00 -2.320891408E+02  2.322804744E+02  0.000000000E+00  0.00000E+00  9.000E+00
      21     1     1     2   514   513 -5.652861349E+00  4.154786096E+00 -7.365621876E+01  7.398956447E+01  9.536743164E-07  0.00000E+00  9.000E+00
</event>
<event>
      5  10001  2.40292E+09  1.45401E+01 -1.00000E+00  1.78619E-01
      21    -1     0     0   515   512  0.000000000E+00  0.000000000E+00  3.108117626E+01  3.108117626E+01  0.000000000E+00  0.00000E+00  9.000E+00
      21    -1     0     0   514   515  0.000000000E+00  0.000000000E+00 -1.211789545E+01  1.211789545E+01  0.000000000E+00  0.00000E+00  9.000E+00
      21     1     1     2   514   517 -9.504813401E+00 -1.263647886E+01 -3.619090552E-02  1.581212780E+01  1.077158204E-07  0.00000E+00  9.000E+00
      21     1     1     2   517   511  7.721304739E+00  8.122719272E-01  7.707723484E+00  1.094017065E+01  2.384185791E-07  0.00000E+00  9.000E+00
      21     1     1     2   511   512  1.783508662E+00  1.182420693E+01  1.129174823E+01  1.644677327E+01  0.000000000E+00  0.00000E+00  9.000E+00
</event>
<event>
      5  10001  2.40292E+09  6.76666E+00 -1.00000E+00  2.17583E-01
      21    -1     0     0   513   512  0.000000000E+00  0.000000000E+00  8.240218040E+00  8.240218040E+00  0.000000000E+00  0.00000E+00  9.000E+00
       2    -1     0     0   512     0  0.000000000E+00  0.000000000E+00 -1.678093586E+02  1.678093586E+02  0.000000000E+00  0.00000E+00  9.000E+00
      21     1     1     2   513   511 -1.579902828E+01  1.200071114E+00 -5.740200455E-01  1.585493502E+01  1.739355554E-07  0.00000E+00  9.000E+00
       2     1     1     2   514     0  1.425762642E+01  3.442533845E+00 -1.177597874E+02  1.186701621E+02  3.300000131E-01  0.00000E+00  9.000E+00
      21     1     1     2   511   514  1.541401864E+00 -4.642604959E+00 -4.123533313E+01  4.152447951E+01  4.768371582E-07  0.00000E+00  9.000E+00
</event>
<event>
      5  10001  2.40292E+09  3.63665E+00 -1.00000E+00  2.73495E-01
      21    -1     0     0   513   512  0.000000000E+00  0.000000000E+00  3.402670071E+01  3.402670071E+01  0.000000000E+00  0.00000E+00  9.000E+00
      21    -1     0     0   511   516  0.000000000E+00  0.000000000E+00 -5.320773897E+01  5.320773897E+01  0.000000000E+00  0.00000E+00  9.000E+00
      21     1     1     2   515   516  9.158776233E+00  1.191509535E+00 -1.170231536E+01  1.490795297E+01  3.769728732E-07  0.00000E+00  9.000E+00
      21     1     1     2   511   512 -1.244204301E+01  3.722613151E-01 -3.882415593E+01  4.077079955E+01  4.768371582E-07  0.00000E+00  9.000E+00
      21     1     1     2   513   515  3.283266780E+00 -1.563770851E+00  3.134543302E+01  3.155568715E+01  0.000000000E+00  0.00000E+00  9.000E+00
</event>
<event>
      5  10001  2.40292E+09  4.62340E+00 -1.00000E+00  2.49382E-01
      21    -1     0     0   514   511  0.000000000E+00  0.000000000E+00  5.264363225E-01  5.264363225E-01  0.000000000E+00  0.00000E+00  9.000E+00
      21    -1     0     0   512   515  0.000000000E+00  0.000000000E+00 -1.536893109E+03  1.536893109E+03  0.000000000E+00  0.00000E+00  9.000E+00
      21     1     1     2   514   515 -9.868628255E+00  6.050068184E-01 -9.505650078E+01  9.556931619E+01  1.907348633E-06  0.00000E+00  9.000E+00
      21     1     1     2   517   511  1.086546955E+01 -5.119663066E+00 -1.353578937E+02  1.358897669E+02  2.697398305E-06  0.00000E+00  9.000E+00
      21     1     1     2   512   517 -9.968412967E-01  4.514656247E+00 -1.305952278E+03  1.305960462E+03  0.000000000E+00  0.00000E+00  9.000E+00
</event>
<event>
      5  10001  2.40292E+09  3.58129E+00 -1.00000E+00  2.75205E-01
      -3    -1     0     0     0   513  0.000000000E+00  0.000000000E+00  1.779895244E+01  1.779895244E+01  0.000000000E+00  0.00000E+00  9.000E+00
      21    -1     0     0   515   514  0.000000000E+00  0.000000000E+00 -1.997777876E+02  1.997777876E+02  0.000000000E+00  0.00000E+00  9.000E+00
      -3     1     1     2     0   511  4.901820087E-01 -1.541314426E+01  1.036540915E+01  1.858754962E+01  5.000000000E-01  0.00000E+00  9.000E+00
      21     1     1     2   511   514  2.922558288E+00  1.432764195E+01 -1.287148055E+01  1.948070026E+01  4.460403188E-07  0.00000E+00  9.000E+00
      21     1     1     2   515   513 -3.412740297E+00  1.085502302E+00 -1.794727637E+02  1.795084901E+02  1.907348633E-06  0.00000E+00  9.000E+00
</event>
<event>
      5  10001  2.40292E+09  1.45560E+01 -1.00000E+00  1.78574E-01
       1    -1     0     0   514     0  0.000000000E+00  0.000000000E+00  3.823427798E+02  3.823427798E+02  0.000000000E+00  0.00000E+00  9.000E+00
       3    -1     0     0   512     0  0.000000000E+00  0.000000000E+00 -4.668543761E+00  4.668543761E+00  0.000000000E+00  0.00000E+00  9.000E+00
       1     1     1     2   512     0 -2.471954427E+01 -6.354288427E+00  2.979969017E+02  2.990881061E+02  3.300000131E-01  0.00000E+00  9.000E+00
       3     1     1     2   511     0  2.134157426E+01 -3.521460452E+00  2.899706230E+01  3.617931864E+01  5.000000000E-01  0.00000E+00  9.000E+00
      21     1     1     2   514   511  3.377970015E+00  9.875748879E+00  5.068027199E+01  5.174389883E+01  0.000000000E+00  0.00000E+00  9.000E+00
</event>
<event>
      5  10001  2.40292E+09  1.09498E+01 -1.00000E+00  1.91254E-01
      21    -1     0     0   512   511  0.000000000E+00  0.000000000E+00  1.569418414E+01  1.569418414E+01  0.000000000E+00  0.00000E+00  9.000E+00
      -2    -1     0     0     0   513  0.000000000E+00  0.000000000E+00 -1.402292349E+01  1.402292349E+01  0.000000000E+00  0.00000E+00  9.000E+00
      -2     1     1     2     0   511  6.937950992E+00 -9.601045304E+00 -2.379065791E+00  1.208652510E+01  3.300000131E-01  0.00000E+00  9.000E+00
      21     1     1     2   515   513 -7.203455427E+00  2.617682348E+00  6.676984202E+00  1.016484870E+01  1.460009660E-07  0.00000E+00  9.000E+00
      21     1     1     2   512   515  2.655044345E-01  6.983362956E+00 -2.626657764E+00  7.465733842E+00  5.960464478E-08  0.00000E+00  9.000E+00
</event>
<event>
      5  10001  2.40292E+09  4.78711E+00 -1.00000E+00  2.46253E-01
      21    -1     0     0   514   515  0.000000000E+00  0.000000000E+00  1.867813886E+00  1.867813886E+00  0.000000000E+00  0.00000E+00  9.000E+00
      21    -1     0     0   511   513  0.000000000E+00  0.000000000E+00 -6.725881867E+02  6.725881867E+02  0.000000000E+00  0.00000E+00  9.000E+00
      21     1     1     2   514   516  1.331272865E+01 -9.137259694E-01 -2.320345402E+01  2.676684363E+01  1.390207266E-06  0.00000E+00  9.000E+00
      21     1     1     2   511   515 -8.925910277E+00  2.830038995E+00 -3.191234941E+02  3.192608424E+02  3.814697266E-06  0.00000E+00  9.000E+00
      21     1     1     2   516   513 -4.386818374E+00 -1.916313025E+00 -3.283934247E+02  3.284283146E+02  3.814697266E-06  0.00000E+00  9.000E+00
</event>
<event>
      5  10001  2.40292E+09  4.62704E+00 -1.00000E+00  2.49311E-01
      21    -1     0     0   514   511  0.000000000E+00  0.000000000E+00  1.353277527E+01  1.353277527E+01  0.000000000E+00  0.00000E+00  9.000E+00
       2    -1     0     0   515     0  0.000000000E+00  0.000000000E+00 -6.308085044E+02  6.308085044E+02  0.000000000E+00  0.00000E+00  9.000E+00
      21     1     1     2   515   511 -2.422826698E+00 -1.133829823E+01 -4.011366785E+02  4.013042012E+02  0.000000000E+00  0.00000E+00  9.000E+00
       2     1     1     2   512     0 -7.809392511E-01  1.467671682E+01 -2.289472393E+02  2.294187507E+02  3.300000131E-01  0.00000E+00  9.000E+00
      21     1     1     2   514   512  3.203765949E+00 -3.338418591E+00  1.280818864E+01  1.361832777E+01  6.078504936E-07  0.00000E+00  9.000E+00
</event>
<event>
      5  10001  2.40292E+09  1.07868E+01 -1.00000E+00  1.91974E-01
      21    -1     0     0   513   512  0.000000000E+00  0.000000000E+00  3.569049584E+02  3.569049584E+02  0.000000000E+00  0.00000E+00  9.000E+00
      21    -1     0     0   512   514  0.000000000E+00  0.000000000E+00 -8.427476666E-01  8.427476666E-01  0.000000000E+00  0.00000E+00  9.000E+00
      -2     1     1     2     0   511  5.313796832E+00  6.391348443E+00  5.886360536E+01  5.944845421E+01  3.300000131E-01  0.00000E+00  9.000E+00
       2     1     1     2   513     0 -2.777115950E+00 -9.780335968E+00  2.879307010E+02  2.881103344E+02  3.300000131E-01  0.00000E+00  9.000E+00
      21     1     1     2   511   514 -2.536680883E+00  3.388987524E+00  9.267904409E+00  1.018891743E+01  3.769728732E-07  0.00000E+00  9.000E+00
</event>
<event>
      5  10001  2.40292E+09  7.65403E+00 -1.00000E+00  2.10145E-01
      21    -1     0     0   515   512  0.000000000E+00  0.000000000E+00  2.558477043E+00  2.558477043E+00  0.000000000E+00  0.00000E+00  9.000E+00
      21    -1     0     0   511   516  0.000000000E+00  0.000000000E+00 -3.760429191E+02  3.760429191E+02  0.000000000E+00  0.00000E+00  9.000E+00
      21     1     1     2   515   516  1.434105473E+01 -8.308982427E+00 -3.414651348E+02  3.418671428E+02  0.000000000E+00  0.00000E+00  9.000E+00
      -1     1     1     2     0   512 -7.472299433E+00  4.598771957E-01 -1.174595418E+01  1.393280609E+01  3.300000131E-01  0.00000E+00  9.000E+00
       1     1     1     2   511     0 -6.868755296E+00  7.849105232E+00 -2.027335310E+01  2.280144729E+01  3.300000131E-01  0.00000E+00  9.000E+00
</event>
<event>
      5  10001  2.40292E+09  9.72447E+00 -1.00000E+00  1.97111E-01
      21    -1     0     0   513   516  0.000000000E+00  0.000000000E+00  3.277813848E+02  3.277813848E+02  0.000000000E+00  0.00000E+00  9.000E+00
      21    -1     0     0   512   514  0.000000000E+00  0.000000000E+00 -3.844050000E+01  3.844050000E+01  0.000000000E+00  0.00000E+00  9.000E+00
      21     1     1     2   513   514 -1.585235155E+00 -2.005262716E+01  2.573512943E+02  2.581362228E+02  3.814697266E-06  0.00000E+00  9.000E+00
      21     1     1     2   511   516 -7.738278630E+00  1.728904090E+01  6.810183833E+01  7.068700217E+01  2.861022949E-06  0.00000E+00  9.000E+00
      21     1     1     2   512   511  9.323513785E+00  2.763586256E+00 -3.611224782E+01  3.739865988E+01  6.743495762E-07  0.00000E+00  9.000E+00
</event>
<event>
      5  10001  2.40292E+09  1.24147E+01 -1.00000E+00  1.85438E-01
      21    -1     0     0   515   513  0.000000000E+00  0.000000000E+00  5.019026763E+01  5.019026763E+01  0.000000000E+00  0.00000E+00  9.000E+00
      21    -1     0     0   512   517  0.000000000E+00  0.000000000E+00 -7.298924631E+01  7.298924631E+01  0.000000000E+00  0.00000E+00  9.000E+00
      21     1     1     2   515   517 -7.483404867E+00  1.271311589E+01 -2.486816912E+01  2.891453785E+01  3.371747881E-07  0.00000E+00  9.000E+00
      21     1     1     2   512   511 -4.430289950E+00 -1.620446760E+01 -4.371273772E+01  4.682964530E+01  8.259061849E-07  0.00000E+00  9.000E+00
      21     1     1     2   511   513  1.191369482E+01  3.491351712E+00  4.578192816E+01  4.743533079E+01  6.743495762E-07  0.00000E+00  9.000E+00
</event>
<event>
      5  10001  2.40292E+09  1.67543E+01 -1.00000E+00  1.72930E-01
      21    -1     0     0   514   512  0.000000000E+00  0.000000000E+00  1.453417481E+02  1.453417481E+02  0.000000000E+00  0.00000E+00  9.000E+00
      21    -1     0     0   513   514  0.000000000E+00  0.000000000E+00 -5.803315061E+01  5.803315061E+01  0.000000000E+00  0.00000E+00  9.000E+00
      21     1     1     2   513   516  1.976103424E+01  1.681728848E+01 -5.370567293E+01  5.964577915E+01  1.907348633E-06  0.00000E+00  9.000E+00
      21     1     1     2   516   515 -1.087947751E+00 -5.963478249E+00  3.735295761E+01  3.784164565E+01  6.743495762E-07  0.00000E+00  9.000E+00
      21     1     1     2   515   512 -1.867308649E+01 -1.085381023E+01  1.036613128E+02  1.058874739E+02  1.348699152E-06  0.00000E+00  9.000E+00
</event>
<event>
      5  10001  2.40292E+09  4.68460E+00 -1.00000E+00  2.48190E-01
      21    -1     0     0   515   512  0.000000000E+00  0.000000000E+00  5.080636118E+00  5.080636118E+00  0.000000000E+00  0.00000E+00  9.000E+00
       3    -1     0     0   511     0  0.000000000E+00  0.000000000E+00 -1.258817480E+02  1.258817480E+02  0.000000000E+00  0.00000E+00  9.000E+00
      -3     1     1     2     0   512  3.103396440E+00  1.195490788E+01 -6.057721851E+00  1.376578679E+01  5.000000000E-01  0.00000E+00  9.000E+00
       3     1     1     2   511     0 -4.373231854E+00 -1.646178842E+01 -6.381230053E+01  6.604828032E+01  5.000000000E-01  0.00000E+00  9.000E+00
       3     1     1     2   515     0  1.269835414E+00  4.506880538E+00 -5.093108948E+01  5.114831697E+01  5.000000000E-01  0.00000E+00  9.000E+00
</event>
<event>
      5  10001  2.40292E+09  2.00130E+00 -1.00000E+00  3.62725E-01
      -2    -1     0     0     0   513  0.000000000E+00  0.000000000E+00  1.684819872E+02  1.684819872E+02  0.000000000E+00  0.00000E+00  9.000E+00
      21    -1     0     0   514   511  0.000000000E+00  0.000000000E+00 -1.212600091E+00  1.212600091E+00  0.000000000E+00  0.00000E+00  9.000E+00
      -2     1     1     2     0   515 -2.706936979E+00 -1.018535801E+01  3.386954068E+01  3.547285880E+01  3.300000131E-01  0.00000E+00  9.000E+00
      21     1     1     2   514   513  7.554250167E-01  9.743110310E+00  1.292053685E+02  1.295744037E+02  0.000000000E+00  0.00000E+00  9.000E+00
      21     1     1     2   515   511  1.951511962E+00  4.422476967E-01  4.194478009E+00  4.647324793E+00  8.429369702E-08  0.00000E+00  9.000E+00
</event>
<event>
      5  10001  2.40292E+09  9.56069E+00 -1.00000E+00  1.97980E-01
      21    -1     0     0   512   514  0.000000000E+00  0.000000000E+00  9.659917337E+01  9.659917337E+01  0.000000000E+00  0.00000E+00  9.000E+00
      21    -1     0     0   516   512  0.000000000E+00  0.000000000E+00 -6.201823144E+00  6.201823144E+00  0.000000000E+00  0.00000E+00  9.000E+00
      21     1     1     2   516   511  1.243102007E+01  6.784961163E+00  4.158195448E+00  1.475996434E+01  4.042583694E-07  0.00000E+00  9.000E+00
      21     1     1     2   511   513 -1.035272121E+01  2.062040615E-01  4.661649430E+01  4.775268471E+01  6.743495762E-07  0.00000E+00  9.000E+00
      21     1     1     2   513   514 -2.078298866E+00 -6.991165224E+00  3.962266048E+01  4.028834746E+01  4.768371582E-07  0.00000E+00  9.000E+00
</event>
<event>
      5  10001  2.40292E+09  9.70656E+00 -1.00000E+00  1.97205E-01
      -1    -1     0     0     0   514  0.000000000E+00  0.000000000E+00  5.274076666E+01  5.274076666E+01  0.000000000E+00  0.00000E+00  9.000E+00
       2    -1     0     0   514     0  0.000000000E+00  0.000000000E+00 -1.740191075E+02  1.740191075E+02  0.000000000E+00  0.00000E+00  9.000E+00
      -1     1     1     2     0   513  1.303169391E+00  1.869662479E+01  4.426689480E+01  4.807212190E+01  3.300000131E-01  0.00000E+00  9.000E+00
      21     1     1     2   513   512 -1.036203032E+01 -1.521048700E+01 -6.761633421E+00  1.960740354E+01  4.616955931E-07  0.00000E+00  9.000E+00
       2     1     1     2   512     0  9.058860926E+00 -3.486137792E+00 -1.587836023E+02  1.590803488E+02  3.300000131E-01  0.00000E+00  9.000E+00
</event>
<event>
      5  10001  2.40292E+09  5.00348E+00 -1.00000E+00  2.38376E-01
       2    -1     0     0   513     0  0.000000000E+00  0.000000000E+00  3.822921818E+01  3.822921818E+01  0.000000000E+00  0.00000E+00  9.000E+00
      21    -1     0     0   511   512  0.000000000E+00  0.000000000E+00 -1.387848859E+01  1.387848859E+01  0.000000000E+00  0.00000E+00  9.000E+00
      21     1     1     2   513   512 -5.332705876E+00 -7.713036349E+00 -1.047133871E+01  1.405623051E+01  2.665600750E-07  0.00000E+00  9.000E+00
       2     1     1     2   514     0  3.712179440E+00  4.658058826E+00  3.397007364E+01  3.448989115E+01  3.300000131E-01  0.00000E+00  9.000E+00
      21     1     1     2   511   514  1.620526436E+00  3.054977522E+00  8.519946651E-01  3.561585111E+00  5.674193133E-08  0.00000E+00  9.000E+00
</event>
<event>
      5  10001  2.40292E+09  3.88284E+00 -1.00000E+00  2.66439E-01
      21    -1     0     0   515   513  0.000000000E+00  0.000000000E+00  6.762971751E+01  6.762971751E+01  0.000000000E+00  0.00000E+00  9.000E+00
      21    -1     0     0   511   516  0.000000000E+00  0.000000000E+00 -5.605915408E+00  5.605915408E+00  0.000000000E+00  0.00000E+00  9.000E+00
      21     1     1     2   515   516 -5.118721801E+00  9.848575879E+00  1.514169013E+01  1.877409225E+01  3.769728732E-07  0.00000E+00  9.000E+00
      21     1     1     2   511   512  1.239849290E+00 -1.002397171E+01  3.182660928E+00  1.058992756E+01  1.685873940E-07  0.00000E+00  9.000E+00
      21     1     1     2   512   513  3.878872511E+00  1.753958294E-01  4.369945105E+01  4.387161312E+01  4.768371582E-07  0.00000E+00  9.000E+00
</event>
<event>
      5  10001  2.40292E+09  1.05415E+01 -1.00000E+00  1.93090E-01
      -4    -1     0     0     0   512  0.000000000E+00  0.000000000E+00  5.924693061E+00  5.924693061E+00  0.000000000E+00  0.00000E+00  9.000E+00
       1    -1     0     0   512     0  0.000000000E+00  0.000000000E+00 -3.814754364E+02  3.814754364E+02  0.000000000E+00  0.00000E+00  9.000E+00
      -4     1     1     2     0   513 -6.173776321E+00 -8.156501524E+00  1.223077596E+00  1.041104942E+01  1.500000000E+00  0.00000E+00  9.000E+00
       1     1     1     2   511     0  5.599021995E+00  2.227680649E+00 -1.259045175E+02  1.260490699E+02  3.300000131E-01  0.00000E+00  9.000E+00
      21     1     1     2   513   511  5.747543264E-01  5.928820875E+00 -2.508693035E+02  2.509400101E+02  2.697398305E-06  0.00000E+00  9.000E+00
</event>
<event>
      5  10001  2.40292E+09  7.11705E+00 -1.00000E+00  2.14470E-01
      21    -1     0     0   514   511  0.000000000E+00  0.000000000E+00  5.401921218E+02  5.401921218E+02  0.000000000E+00  0.00000E+00  9.000E+00
       1    -1     0     0   512     0  0.000000000E+00  0.000000000E+00 -7.724108513E+00  7.724108513E+00  0.000000000E+00  0.00000E+00  9.000E+00
      21     1     1     2   514   515  1.599461942E+00 -1.142017158E+01  4.803743424E+02  4.805127339E+02  7.629394531E-06  0.00000E+00  9.000E+00
      21     1     1     2   512   511  4.184342506E+00  1.556736352E+01  5.668173486E+01  5.892936955E+01  9.536743164E-07  0.00000E+00  9.000E+00
       1     1     1     2   515     0 -5.783804447E+00 -4.147191940E+00 -4.588063983E+00  8.474126857E+00  3.300000131E-01  0.00000E+00  9.000E+00
</event>
<event>
      5  10001  2.40292E+09  8.55219E+00 -1.00000E+00  2.03888E-01
      21    -1     0     0   511   512  0.000000000E+00  0.000000000E+00  1.149353005E+02  1.149353005E+02  0.000000000E+00  0.00000E+00  9.000E+00
      21    -1     0     0   515   516  0.000000000E+00  0.000000000E+00 -3.127786640E+01  3.127786640E+01  0.000000000E+00  0.00000E+00  9.000E+00
      21     1     1     2   513   516  1.029941422E+01 -1.870834838E+01 -1.734965114E+01  2.751527989E+01  4.768371582E-07  0.00000E+00  9.000E+00
      21     1     1     2   515   512 -9.317948217E+00  2.720402970E+01  1.531411546E+01  3.257921919E+01  1.685873940E-07  0.00000E+00  9.000E+00
      21     1     1     2   511   513 -9.814660067E-01 -8.495681321E+00  8.569296974E+01  8.611866777E+01  0.000000000E+00  0.00000E+00  9.000E+00
</event>
<event>
      5  10001  2.40292E+09  5.39479E+00 -1.00000E+00  2.32807E-01
      21    -1     0     0   514   512  0.000000000E+00  0.000000000E+00  1.071564288E+01  1.071564288E+01  0.000000000E+00  0.00000E+00  9.000E+00
      21    -1     0     0   517   514  0.000000000E+00  0.000000000E+00 -8.377095379E+01  8.377095379E+01  0.000000000E+00  0.00000E+00  9.000E+00
      21     1     1     2   517   513  2.294808026E+00  9.235246267E+00 -2.598148352E+01  2.766935856E+01  6.743495762E-07  0.00000E+00  9.000E+00
      21     1     1     2   513   515  1.473030444E+00 -1.309622662E+01 -5.537248661E+01  5.691918169E+01  1.168007728E-06  0.00000E+00  9.000E+00
      21     1     1     2   515   512 -3.767838469E+00  3.860980356E+00  8.298659225E+00  9.898056424E+00  0.000000000E+00  0.00000E+00  9.000E+00
</event>
<event>
      5  10001  2.40292E+09  5.87594E+00 -1.00000E+00  2.26811E-01
      21    -1     0     0   511   514  0.000000000E+00  0.000000000E+00  5.326201283E+00  5.326201283E+00  0.000000000E+00  0.00000E+00  9.000E+00
      21    -1     0     0   516   512  0.000000000E+00  0.000000000E+00 -7.019444417E+01  7.019444417E+01  0.000000000E+00  0.00000E+00  9.000E+00
      21     1     1     2   511   512 -4.037344931E-01 -1.018142308E+01 -4.988252320E+01  5.091257701E+01  0.000000000E+00  0.00000E+00  9.000E+00
      21     1     1     2   516   513 -5.377839762E+00  1.123024283E+01 -1.384846344E+01  1.862308928E+01  3.769728732E-07  0.00000E+00  9.000E+00
      21     1     1     2   513   514  5.781574256E+00 -1.048819759E+00 -1.137256243E+00  5.984979158E+00  9.424321831E-08  0.00000E+00  9.000E+00
</event>
<event>
      5  10001  2.40292E+09  1.32700E+01 -1.00000E+00  1.82498E-01
      21    -1     0     0   513   514  0.000000000E+00  0.000000000E+00  1.401885424E+00  1.401885424E+00  0.000000000E+00  0.00000E+00  9.000E+00
       1    -1     0     0   515     0  0.000000000E+00  0.000000000E+00 -1.145005045E+02  1.145005045E+02  0.000000000E+00  0.00000E+00  9.000E+00
       1     1     1     2   515     0  2.653231134E+00  5.946103396E+00 -8.497868396E+01  8.522840729E+01  3.300000131E-01  0.00000E+00  9.000E+00
       1     1     1     2   513     0 -7.442045146E-01 -7.391172142E+00 -2.700913397E+01  2.801402298E+01  3.300000131E-01  0.00000E+00  9.000E+00
      -1     1     1     2     0   514 -1.909026619E+00  1.445068745E+00 -1.110801195E+00  2.659959702E+00  3.300000131E-01  0.00000E+00  9.000E+00
</event>
<event>
      5  10001  2.40292E+09  4.19546E+00 -1.00000E+00  2.58578E-01
      21    -1     0     0   513   515  0.000000000E+00  0.000000000E+00  4.859760252E+01  4.859760252E+01  0.000000000E+00  0.00000E+00  9.000E+00
      21    -1     0     0   514   512  0.000000000E+00  0.000000000E+00 -3.719390615E+01  3.719390615E+01  0.000000000E+00  0.00000E+00  9.000E+00
      21     1     1     2   511   512  5.765717422E+00  1.270416000E+01 -2.809505996E+00  1.423139145E+01  2.128311523E-07  0.00000E+00  9.000E+00
      21     1     1     2   514   515 -1.961406459E+00 -1.447308642E+01 -2.669931097E+01  3.043305033E+01  3.371747881E-07  0.00000E+00  9.000E+00
      21     1     1     2   513   511 -3.804310963E+00  1.768926420E+00  4.091251334E+01  4.112706689E+01  4.768371582E-07  0.00000E+00  9.000E+00
</event>
<event>
      5  10001  2.40292E+09  5.91257E+00 -1.00000E+00  2.26387E-01
       2    -1     0     0   512     0  0.000000000E+00  0.000000000E+00  9.115086470E+01  9.115086470E+01  0.000000000E+00  0.00000E+00  9.000E+00
      21    -1     0     0   513   516  0.000000000E+00  0.000000000E+00 -3.267174056E+00  3.267174056E+00  0.000000000E+00  0.00000E+00  9.000E+00
      21     1     1     2   512   514  4.859598465E-01 -6.638060186E+00  2.289468175E+00  7.038583987E+00  1.332800375E-07  0.00000E+00  9.000E+00
       2     1     1     2   513     0 -4.996167312E+00  9.084722314E+00  7.368944504E+01  7.441597327E+01  3.300000131E-01  0.00000E+00  9.000E+00
      21     1     1     2   514   516  4.510207465E+00 -2.446662128E+00  1.190477743E+01  1.296348150E+01  2.384185791E-07  0.00000E+00  9.000E+00
</event>
<event>
      5  10001  2.40292E+09  4.63743E+00 -1.00000E+00  2.49107E-01
      21    -1     0     0   513   514  0.000000000E+00  0.000000000E+00  3.457345783E+01  3.457345783E+01  0.000000000E+00  0.00000E+00  9.000E+00
       2    -1     0     0   514     0  0.000000000E+00  0.000000000E+00 -1.595998931E+01  1.595998931E+01  0.000000000E+00  0.00000E+00  9.000E+00
      21     1     1     2   513   511 -1.315873098E+01 -6.362041556E+00  2.868016165E+01  3.218974132E+01  4.768371582E-07  0.00000E+00  9.000E+00
       2     1     1     2   512     0  4.660809787E+00  3.874733819E+00 -6.216033643E+00  8.688192234E+00  3.300000131E-01  0.00000E+00  9.000E+00
      21     1     1     2   511   512  8.497921191E+00  2.487307737E+00 -3.850659487E+00  9.655513598E+00  1.931411236E-07  0.00000E+00  9.000E+00
</event>
<event>
      5  10001  2.40292E+09  8.14994E+00 -1.00000E+00  2.06556E-01
      21    -1     0     0   515   512  0.000000000E+00  0.000000000E+00  6.620513048E+00  6.620513048E+00  0.000000000E+00  0.00000E+00  9.000E+00
      21    -1     0     0   511   516  0.000000000E+00  0.000000000E+00 -6.821684412E+01  6.821684412E+01  0.000000000E+00  0.00000E+00  9.000E+00
      21     1     1     2   515   516  1.028075559E-01  1.005272715E+01 -6.223789559E+01  6.304461547E+01  6.743495762E-07  0.00000E+00  9.000E+00
      21     1     1     2   513   512 -2.941805229E+00 -3.146133495E+00  1.725294209E-01  4.310700683E+00  4.737860464E-08  0.00000E+00  9.000E+00
      21     1     1     2   511   513  2.838997674E+00 -6.906593656E+00  4.690351011E-01  7.482041008E+00  1.757610755E-07  0.00000E+00  9.000E+00
</event>
<event>
      5  10001  2.40292E+09  5.70548E+00 -1.00000E+00  2.28840E-01
      21    -1     0     0   514   513  0.000000000E+00  0.000000000E+00  5.573794747E+00  5.573794747E+00  0.000000000E+00  0.00000E+00  9.000E+00
      21    -1     0     0   511   517  0.000000000E+00  0.000000000E+00 -4.664862419E+01  4.664862419E+01  0.000000000E+00  0.00000E+00  9.000E+00
      21     1     1     2   514   517 -6.689686844E+00 -1.235330441E+01 -2.190215429E+01  2.602038437E+01  2.384185791E-07  0.00000E+00  9.000E+00
      21     1     1     2   511   512  5.011369304E+00  1.325858082E+01 -1.965726972E+01  2.423452167E+01  4.129530925E-07  0.00000E+00  9.000E+00
      21     1     1     2   512   513  1.678317540E+00 -9.052764092E-01  4.845945679E-01  1.967512906E+00  3.290087307E-08  0.00000E+00  9.000E+00
</event>
<event>
      5  10001  2.40292E+09  3.95809E+00 -1.00000E+00  2.64444E-01
       1    -1     0     0   511     0  0.000000000E+00  0.000000000E+00  4.919756742E+02  4.919756742E+02  0.000000000E+00  0.00000E+00  9.000E+00
      21    -1     0     0   514   515  0.000000000E+00  0.000000000E+00 -3.581731798E+00  3.581731798E+00  0.000000000E+00  0.00000E+00  9.000E+00
      21     1     1     2   511   515  6.459264028E+00  6.231247203E+00  1.407016864E+01  1.668892384E+01  8.596304120E-07  0.00000E+00  9.000E+00
       1     1     1     2   512     0 -1.021413332E+01 -4.979480487E+00  4.747513436E+02  4.748874297E+02  3.300000131E-01  0.00000E+00  9.000E+00
      21     1     1     2   514   512  3.754869291E+00 -1.251766716E+00 -4.275697612E-01  3.981052524E+00  1.386889105E-07  0.00000E+00  9.000E+00
</event>
<event>
      5  10001  2.40292E+09  6.81233E+00 -1.00000E+00  2.17163E-01
      21    -1     0     0   513   511  0.000000000E+00  0.000000000E+00  4.930695990E+01  4.930695990E+01  0.000000000E+00  0.00000E+00  9.000E+00
      21    -1     0     0   514   516  0.000000000E+00  0.000000000E+00 -5.126605634E+01  5.126605634E+01  0.000000000E+00  0.00000E+00  9.000E+00
      21     1     1     2   513   516  2.668229805E+00  1.842610317E+01 -9.146375424E+00  2.074359930E+01  1.685873940E-07  0.00000E+00  9.000E+00
      21     1     1     2   514   512 -5.691991031E+00 -1.232162314E+01 -3.476867201E+01  3.732400986E+01  6.743495762E-07  0.00000E+00  9.000E+00
      21     1     1     2   512   511  3.023761226E+00 -6.104480031E+00  4.195595099E+01  4.250540709E+01  4.768371582E-07  0.00000E+00  9.000E+00
</event>
<event>
      5  10001  2.40292E+09  3.43287E+00 -1.00000E+00  2.80043E-01
      21    -1     0     0   515   512  0.000000000E+00  0.000000000E+00  2.297914180E+02  2.297914180E+02  0.000000000E+00  0.00000E+00  9.000E+00
      21    -1     0     0   511   515  0.000000000E+00  0.000000000E+00 -2.497259267E+01  2.497259267E+01  0.000000000E+00  0.00000E+00  9.000E+00
      21     1     1     2   514   512 -1.027981951E+01 -1.170683965E+01  2.268162050E+02  2.273506447E+02  0.000000000E+00  0.00000E+00  9.000E+00
      21     1     1     2   511   513  4.697186613E+00  8.308106970E+00 -1.546386662E+01  1.817193920E+01  7.152557373E-07  0.00000E+00  9.000E+00
      21     1     1     2   513   514  5.582632901E+00  3.398732678E+00 -6.533513127E+00  9.241426713E+00  2.665600750E-07  0.00000E+00  9.000E+00
</event>
<event>
      5  10001  2.40292E+09  4.38879E+00 -1.00000E+00  2.54225E-01
      -1    -1     0     0     0   514  0.000000000E+00  0.000000000E+00  7.469190466E+00  7.469190466E+00  0.000000000E+00  0.00000E+00  9.000E+00
      21    -1     0     0   513   515  0.000000000E+00  0.000000000E+00 -3.020906779E+01  3.020906779E+01  0.000000000E+00  0.00000E+00  9.000E+00
      -1     1     1     2     0   515 -1.162631749E+01  9.017223265E+00 -9.996097955E+00  1.779079672E+01  3.300000131E-01  0.00000E+00  9.000E+00
      21     1     1     2   511   514  5.344937336E+00 -3.956238886E+00 -8.438930340E+00  1.074410194E+01  2.384185791E-07  0.00000E+00  9.000E+00
      21     1     1     2   513   511  6.281380151E+00 -5.060984379E+00 -4.304849035E+00  9.143359596E+00  1.788139343E-07  0.00000E+00  9.000E+00
</event>
<event>
      5  10001  2.40292E+09  5.18544E+00 -1.00000E+00  2.35699E-01
      -3    -1     0     0     0   512  0.000000000E+00  0.000000000E+00  2.494946132E+01  2.494946132E+01  0.000000000E+00  0.00000E+00  9.000E+00
       2    -1     0     0   514     0  0.000000000E+00  0.000000000E+00 -2.483432412E+02  2.483432412E+02  0.000000000E+00  0.00000E+00  9.000E+00
      -3     1     1     2     0   511  4.622739519E+00 -8.032912465E+00  2.197608187E+01  2.385572421E+01  5.000000000E-01  0.00000E+00  9.000E+00
      21     1     1     2   514   512 -7.572169776E+00  1.229774001E+01 -2.402848913E+01  2.803462956E+01  4.768371582E-07  0.00000E+00  9.000E+00
       2     1     1     2   511     0  2.949430257E+00 -4.264827546E+00 -2.213413726E+02  2.214023487E+02  3.300000131E-01  0.00000E+00  9.000E+00
</event>
<event>
      5  10001  2.40292E+09  1.66942E+01 -1.00000E+00  1.73069E-01
      21    -1     0     0   513   514  0.000000000E+00  0.000000000E+00  8.658246770E+00  8.658246770E+00  0.000000000E+00  0.00000E+00  9.000E+00
      21    -1     0     0   511   515  0.000000000E+00  0.000000000E+00 -1.571471417E+01  1.571471417E+01  0.000000000E+00  0.00000E+00  9.000E+00
      21     1     1     2   513   515 -1.277922405E+00 -4.815108066E+00  1.344751566E+00  5.160107376E+00  6.143906155E-08  0.00000E+00  9.000E+00
      21     1     1     2   511   512  7.036733810E+00 -1.635137519E+00 -7.667721251E+00  1.053485864E+01  0.000000000E+00  0.00000E+00  9.000E+00
      21     1     1     2   512   514 -5.758811405E+00  6.450245586E+00 -7.334977110E-01  8.677994919E+00  2.272121710E-07  0.00000E+00  9.000E+00
</event>
<event>
      5  10001  2.40292E+09  5.11591E+00 -1.00000E+00  2.36703E-01
      21    -1     0     0   513   514  0.000000000E+00  0.000000000E+00  1.100226072E+02  1.100226072E+02  0.000000000E+00  0.00000E+00  9.000E+00
       2    -1     0     0   514     0  0.000000000E+00  0.000000000E+00 -7.155773913E+00  7.155773913E+00  0.000000000E+00  0.00000E+00  9.000E+00
      21     1     1     2   511   512 -1.109998755E+01 -8.084151038E+00  8.584719288E+01  8.693850555E+01  9.536743164E-07  0.00000E+00  9.000E+00
       2     1     1     2   512     0  1.618384654E+01  7.514071997E+00  7.350251779E+00  1.930060279E+01  3.300000131E-01  0.00000E+00  9.000E+00
      21     1     1     2   513   511 -5.083858987E+00  5.700790418E-01  9.669388599E+00  1.093927274E+01  1.685873940E-07  0.00000E+00  9.000E+00
</event>
<event>
      5  10001  2.40292E+09  7.94866E+00 -1.00000E+00  2.07970E-01
       4    -1     0     0   511     0  0.000000000E+00  0.000000000E+00  5.489792984E+02  5.489792984E+02  0.000000000E+00  0.00000E+00  9.000E+00
      21    -1     0     0   512   514  0.000000000E+00  0.000000000E+00 -5.432807156E+00  5.432807156E+00  0.000000000E+00  0.00000E+00  9.000E+00
      21     1     1     2   512   513  6.295233672E+00 -1.777526299E+01  3.600915666E+01  4.064786962E+01  2.236564522E-06  0.00000E+00  9.000E+00
       4     1     1     2   513     0  2.420126737E-01  1.325638725E+01  5.053438999E+02  5.055200268E+02  1.500000000E+00  0.00000E+00  9.000E+00
      21     1     1     2   511   514 -6.537246345E+00  4.518875738E+00  2.193434675E+00  8.244209082E+00  4.786961795E-07  0.00000E+00  9.000E+00
</event>
<event>
      5  10001  2.40292E+09  3.93093E+00 -1.00000E+00  2.65156E-01
      21    -1     0     0   515   513  0.000000000E+00  0.000000000E+00  4.250667830E+00  4.250667830E+00  0.000000000E+00  0.00000E+00  9.000E+00
      21    -1     0     0   512   517  0.000000000E+00  0.000000000E+00 -1.148777539E+02  1.148777539E+02  0.000000000E+00  0.00000E+00  9.000E+00
      21     1     1     2   515   516 -8.185605557E+00  9.539250670E+00 -8.720385232E+00  1.529858033E+01  2.665600750E-07  0.00000E+00  9.000E+00
      21     1     1     2   512   513  4.465264351E+00 -8.269905644E+00 -2.328846445E+01  2.511339287E+01  3.371747881E-07  0.00000E+00  9.000E+00
      21     1     1     2   516   517  3.720341206E+00 -1.269345026E+00 -7.861823635E+01  7.871644849E+01  9.536743164E-07  0.00000E+00  9.000E+00
</event>
<event>
      5  10001  2.40292E+09  3.98226E+00 -1.00000E+00  2.63817E-01
      21    -1     0     0   511   512  0.000000000E+00  0.000000000E+00  5.597385119E+00  5.597385119E+00  0.000000000E+00  0.00000E+00  9.000E+00
      21    -1     0     0   516   514  0.000000000E+00  0.000000000E+00 -6.130257646E+01  6.130257646E+01  0.000000000E+00  0.00000E+00  9.000E+00
      21     1     1     2   511   514 -3.212421481E+00  9.004752531E+00 -5.194257961E+01  5.281511901E+01  6.743495762E-07  0.00000E+00  9.000E+00
      21     1     1     2   513   512  1.706499867E+00 -6.756483703E+00  2.387045613E+00  7.366152360E+00  2.842960362E-07  0.00000E+00  9.000E+00
      21     1     1     2   516   513  1.505921614E+00 -2.248268828E+00 -6.149657344E+00  6.718690206E+00  0.000000000E+00  0.00000E+00  9.000E+00
</event>
<event>
      5  10001  2.40292E+09  9.30695E+00 -1.00000E+00  1.99373E-01
      21    -1     0     0   515   513  0.000000000E+00  0.000000000E+00  1.698379082E+02  1.698379082E+02  0.000000000E+00  0.00000E+00  9.000E+00
      21    -1     0     0   511   517  0.000000000E+00  0.000000000E+00 -3.831363625E+00  3.831363625E+00  0.000000000E+00  0.00000E+00  9.000E+00
      21     1     1     2   515   517  5.282928938E+00 -9.651703604E+00  1.639830855E+01  1.974763895E+01  7.539457465E-07  0.00000E+00  9.000E+00
      21     1     1     2   516   513  3.362333744E+00  1.309824726E+01  1.396049063E+02  1.402583304E+02  2.697398305E-06  0.00000E+00  9.000E+00
      21     1     1     2   511   516 -8.645262682E+00 -3.446543653E+00  1.000332966E+01  1.366330247E+01  1.192092896E-07  0.00000E+00  9.000E+00
</event>
<event>
      5  10001  2.40292E+09  7.24979E+00 -1.00000E+00  2.13354E-01
       2    -1     0     0   512     0  0.000000000E+00  0.000000000E+00  6.478235690E+01  6.478235690E+01  0.000000000E+00  0.00000E+00  9.000E+00
      21    -1     0     0   511   512  0.000000000E+00  0.000000000E+00 -1.015102360E+02  1.015102360E+02  0.000000000E+00  0.00000E+00  9.000E+00
      21     1     1     2   511   514  1.708411680E+00  1.339119631E+01 -9.902201382E+01  9.993799092E+01  1.348699152E-06  0.00000E+00  9.000E+00
      21     1     1     2   514   516 -3.436444924E+00 -6.350395536E+00  5.443397335E+00  9.042524632E+00  4.951133646E-07  0.00000E+00  9.000E+00
       2     1     1     2   516     0  1.728033244E+00 -7.040800770E+00  5.685073736E+01  5.731207737E+01  3.300000131E-01  0.00000E+00  9.000E+00
</event>
<event>
      5  10001  2.40292E+09  5.78120E+00 -1.00000E+00  2.27927E-01
      21    -1     0     0   513   514  0.000000000E+00  0.000000000E+00  8.138789466E+02  8.138789466E+02  0.000000000E+00  0.00000E+00  9.000E+00
      21    -1     0     0   515   512  0.000000000E+00  0.000000000E+00 -1.221928807E+00  1.221928807E+00  0.000000000E+00  0.00000E+00  9.000E+00
      21     1     1     2   515   511 -1.162121570E+00 -1.180781441E+01  6.447657170E+01  6.555915883E+01  3.693564745E-06  0.00000E+00  9.000E+00
      21     1     1     2   511   514 -3.524656954E+00  8.423086509E+00  7.360237235E+02  7.360803578E+02  1.525878906E-05  0.00000E+00  9.000E+00
      21     1     1     2   513   512  4.686778524E+00  3.384727898E+00  1.215672257E+01  1.346135875E+01  4.460403188E-07  0.00000E+00  9.000E+00
</event>
<event>
      5  10001  2.40292E+09  3.37453E+00 -1.00000E+00  2.82053E-01
       1    -1     0     0   514     0  0.000000000E+00  0.000000000E+00  4.904268681E+02  4.904268681E+02  0.000000000E+00  0.00000E+00  9.000E+00
      21    -1     0     0   511   512  0.000000000E+00  0.000000000E+00 -2.033352570E+00  2.033352570E+00  0.000000000E+00  0.00000E+00  9.000E+00
      21     1     1     2   511   513 -8.846386183E+00 -1.085063164E+01  3.422313607E+01  3.697590834E+01  6.743495762E-07  0.00000E+00  9.000E+00
       1     1     1     2   513     0  7.581278556E+00  7.722460271E+00  4.443366227E+01  4.573370114E+01  3.300000131E-01  0.00000E+00  9.000E+00
      21     1     1     2   514   512  1.265107627E+00  3.128171368E+00  4.097367171E+02  4.097506111E+02  0.000000000E+00  0.00000E+00  9.000E+00
</event>
<event>
      5  10001  2.40292E+09  7.18490E+00 -1.00000E+00  2.13895E-01
      21    -1     0     0   515   512  0.000000000E+00  0.000000000E+00  9.059137428E-01  9.059137428E-01  0.000000000E+00  0.00000E+00  9.000E+00
      21    -1     0     0   511   516  0.000000000E+00  0.000000000E+00 -2.969375550E+02  2.969375550E+02  0.000000000E+00  0.00000E+00  9.000E+00
      21     1     1     2   515   516 -6.031414777E+00 -8.996415462E+00 -3.779126089E+01  3.931275690E+01  0.000000000E+00  0.00000E+00  9.000E+00
      -1     1     1     2     0   512  4.330880463E+00  4.039126798E+00 -8.299398349E+01  8.320565646E+01  3.300000131E-01  0.00000E+00  9.000E+00
       1     1     1     2   511     0  1.700534314E+00  4.957288664E+00 -1.752463968E+02  1.753250553E+02  3.300000131E-01  0.00000E+00  9.000E+00
</event>
<event>
      5  10001  2.40292E+09  5.54378E+00 -1.00000E+00  2.30859E-01
      21    -1     0     0   513   514  0.000000000E+00  0.000000000E+00  1.143180625E+01  1.143180625E+01  0.000000000E+00  0.00000E+00  9.000E+00
       1    -1     0     0   512     0  0.000000000E+00  0.000000000E+00 -6.710116450E+02  6.710116450E+02  0.000000000E+00  0.00000E+00  9.000E+00
      21     1     1     2   513   511  1.111130729E+01 -5.149745125E+00  3.818760455E+00  1.282824836E+01  1.528949182E-06  0.00000E+00  9.000E+00
       1     1     1     2   511     0 -6.024252894E+00  7.353189806E+00 -6.639735795E+02  6.640417037E+02  3.300000131E-01  0.00000E+00  9.000E+00
      21     1     1     2   512   514 -5.087054392E+00 -2.203444680E+00  5.749803458E-01  5.573499192E+00  3.573172929E-07  0.00000E+00  9.000E+00
</event>
<event>
      5  10001  2.40292E+09  1.40503E+01 -1.00000E+00  1.80053E-01
      21    -1     0     0   512   513  0.000000000E+00  0.000000000E+00  3.052141313E+01  3.052141313E+01  0.000000000E+00  0.00000E+00  9.000E+00
       2    -1     0     0   511     0  0.000000000E+00  0.000000000E+00 -3.295231303E+02  3.295231303E+02  0.000000000E+00  0.00000E+00  9.000E+00
      21     1     1     2   511   514 -1.191855166E+01 -4.832910344E+00 -1.395916376E+02  1.401828598E+02  1.907348633E-06  0.00000E+00  9.000E+00
       2     1     1     2   512     0  2.176906590E+01 -5.185946012E+00 -1.873000842E+02  1.886324911E+02  3.300000131E-01  0.00000E+00  9.000E+00
      21     1     1     2   514   513 -9.850514245E+00  1.001885636E+01  2.789000456E+01  3.122919256E+01  1.118282261E-06  0.00000E+00  9.000E+00
</event>
<event>
      5  10001  2.40292E+09  5.99172E+00 -1.00000E+00  2.25487E-01
      21    -1     0     0   515   514  0.000000000E+00  0.000000000E+00  2.052208355E+01  2.052208355E+01  0.000000000E+00  0.00000E+00  9.000E+00
      21    -1     0     0   512   515  0.000000000E+00  0.000000000E+00 -1.414069061E+02  1.414069061E+02  0.000000000E+00  0.00000E+00  9.000E+00
      21     1     1     2   513   511  6.377373304E+00 -1.750985566E+01  1.824357065E+00  1.872416124E+01  3.698370947E-07  0.00000E+00  9.000E+00
      21     1     1     2   511   514 -7.174519877E+00  1.157140393E+01  5.624662882E+00  1.473118993E+01  1.884864366E-07  0.00000E+00  9.000E+00
      21     1     1     2   512   513  7.971465733E-01  5.938451726E+00 -1.283338425E+02  1.284736385E+02  0.000000000E+00  0.00000E+00  9.000E+00
</event>
<event>
      5  10001  2.40292E+09  1.04947E+01 -1.00000E+00  1.93307E-01
      21    -1     0     0   516   511  0.000000000E+00  0.000000000E+00  5.180414202E+00  5.180414202E+00  0.000000000E+00  0.00000E+00  9.000E+00
      21    -1     0     0   512   513  0.000000000E+00  0.000000000E+00 -3.783346809E+01  3.783346809E+01  0.000000000E+00  0.00000E+00  9.000E+00
      21     1     1     2   516   513  6.313801199E+00  5.758200065E+00 -2.075156338E+01  2.244211078E+01  2.384185791E-07  0.00000E+00  9.000E+00
      21     1     1     2   514   511 -1.074614777E+01 -3.929751617E+00 -1.061448514E+01  1.560736795E+01  4.298152060E-07  0.00000E+00  9.000E+00
      21     1     1     2   512   514  4.432346570E+00 -1.828448448E+00 -1.287005363E+00  4.964403554E+00  6.322027277E-08  0.00000E+00  9.000E+00
</event>
<event>
      5  10001  2.40292E+09  8.05893E+00 -1.00000E+00  2.07189E-01
      21    -1     0     0   515   513  0.000000000E+00  0.000000000E+00  2.536325090E+01  2.536325090E+01  0.000000000E+00  0.00000E+00  9.000E+00
      21    -1     0     0   512   517  0.000000000E+00  0.000000000E+00 -5.153813048E+01  5.153813048E+01  0.000000000E+00  0.00000E+00  9.000E+00
      21     1     1     2   515   517 -1.163489312E+01 -4.528204227E+00  2.125384823E+01  2.464957273E+01  4.129530925E-07  0.00000E+00  9.000E+00
       4     1     1     2   512     0  6.179493384E+00  7.896189224E+00 -4.332013107E+01  4.449066980E+01  1.500000000E+00  0.00000E+00  9.000E+00
      -4     1     1     2     0   513  5.455399735E+00 -3.367984996E+00 -4.108596731E+00  7.761138853E+00  1.500000000E+00  0.00000E+00  9.000E+00
</event>
<event>
      5  10001  2.40292E+09  7.79312E+00 -1.00000E+00  2.09102E-01
      21    -1     0     0   512   513  0.000000000E+00  0.000000000E+00  1.654873813E+00  1.654873813E+00  0.000000000E+00  0.00000E+00  9.000E+00
       2    -1     0     0   513     0  0.000000000E+00  0.000000000E+00 -1.023263069E+02  1.023263069E+02  0.000000000E+00  0.00000E+00  9.000E+00
      21     1     1     2   512   511  6.038351948E+00  7.820958573E+00 -1.699336014E+01  1.965714567E+01  4.129530925E-07  0.00000E+00  9.000E+00
      21     1     1     2   511   514 -2.361807392E-02 -1.821230130E+00 -1.091156826E+01  1.106253854E+01  1.192092896E-07  0.00000E+00  9.000E+00
       2     1     1     2   514     0 -6.014733874E+00 -5.999728443E+00 -7.276650469E+01  7.326149650E+01  3.300000131E-01  0.00000E+00  9.000E+00
</event>
<event>
      5  10001  2.40292E+09  1.00042E+01 -1.00000E+00  1.95678E-01
      -1    -1     0     0     0   515  0.000000000E+00  0.000000000E+00  1.121926058E+02  1.121926058E+02  0.000000000E+00  0.00000E+00  9.000E+00
      21    -1     0     0   512   514  0.000000000E+00  0.000000000E+00 -6.840081728E+01  6.840081728E+01  0.000000000E+00  0.00000E+00  9.000E+00
      -1     1     1     2     0   514 -1.606308921E+01 -1.240653552E+00  1.100888272E+02  1.112619469E+02  3.300000131E-01  0.00000E+00  9.000E+00
      21     1     1     2   512   511  1.314976484E+01  5.656893957E+00 -3.942033398E+01  4.193899731E+01  9.536743164E-07  0.00000E+00  9.000E+00
      21     1     1     2   511   515  2.913324371E+00 -4.416240404E+00 -2.687670474E+01  2.739247882E+01  4.768371582E-07  0.00000E+00  9.000E+00
</event>
<event>
      5  10001  2.40292E+09  7.37341E+00 -1.00000E+00  2.12343E-01
      21    -1     0     0   513   512  0.000000000E+00  0.000000000E+00  3.647950720E-01  3.647950720E-01  0.000000000E+00  0.00000E+00  9.000E+00
      21    -1     0     0   515   513  0.000000000E+00  0.000000000E+00 -4.963857698E+02  4.963857698E+02  0.000000000E+00  0.00000E+00  9.000E+00
      21     1     1     2   515   516 -9.290410717E+00  1.582302520E+00 -3.537204156E+02  3.538459380E+02  0.000000000E+00  0.00000E+00  9.000E+00
      21     1     1     2   516   514  8.401165819E+00  2.118751218E+00 -1.168769311E+02  1.171976353E+02  0.000000000E+00  0.00000E+00  9.000E+00
      21     1     1     2   514   512  8.892448982E-01 -3.701053738E+00 -2.542362812E+01  2.570699170E+01  0.000000000E+00  0.00000E+00  9.000E+00
</event>
<event>
      5  10001  2.40292E+09  6.67860E+00 -1.00000E+00  2.18406E-01
      21    -1     0     0   511   516  0.000000000E+00  0.000000000E+00  2.616833166E+00  2.616833166E+00  0.000000000E+00  0.00000E+00  9.000E+00
      21    -1     0     0   515   512  0.000000000E+00  0.000000000E+00 -7.911786957E+01  7.911786957E+01  0.000000000E+00  0.00000E+00  9.000E+00
      21     1     1     2   511   512 -2.344406817E+00 -8.932887836E+00 -6.011003037E+01  6.081536384E+01  9.536743164E-07  0.00000E+00  9.000E+00
      21     1     1     2   513   516  5.581814946E+00  7.127954197E+00 -1.332190627E+01  1.610706602E+01  1.685873940E-07  0.00000E+00  9.000E+00
      21     1     1     2   515   513 -3.237408129E+00  1.804933639E+00 -3.069099769E+00  4.812272875E+00  7.300048300E-08  0.00000E+00  9.000E+00
</event>
<event>
      5  10001  2.40292E+09  9.42518E+00 -1.00000E+00  1.98717E-01
      21    -1     0     0   513   515  0.000000000E+00  0.000000000E+00  1.848922119E+02  1.848922119E+02  0.000000000E+00  0.00000E+00  9.000E+00
       2    -1     0     0   515     0  0.000000000E+00  0.000000000E+00 -2.641249982E+01  2.641249982E+01  0.000000000E+00  0.00000E+00  9.000E+00
      21     1     1     2   513   514  2.027638095E+00  1.278709272E+01  1.826977768E+02  1.831559410E+02  0.000000000E+00  0.00000E+00  9.000E+00
      21     1     1     2   514   511 -3.265502251E+00 -4.731876558E+00 -6.724877760E+00  8.847493521E+00  7.492187673E-07  0.00000E+00  9.000E+00
       2     1     1     2   511     0  1.237864155E+00 -8.055216165E+00 -1.749318694E+01  1.930127728E+01  3.300000131E-01  0.00000E+00  9.000E+00
</event>
<event>
      5  10001  2.40292E+09  1.14291E+01 -1.00000E+00  1.89227E-01
      21    -1     0     0   513   514  0.000000000E+00  0.000000000E+00  1.135948263E+02  1.135948263E+02  0.000000000E+00  0.00000E+00  9.000E+00
      21    -1     0     0   515   512  0.000000000E+00  0.000000000E+00 -4.611145479E+01  4.611145479E+01  0.000000000E+00  0.00000E+00  9.000E+00
      21     1     1     2   515   516 -1.282003943E+01 -1.359414146E+01 -3.964744685E+01  4.383005971E+01  8.259061849E-07  0.00000E+00  9.000E+00
      21     1     1     2   516   514  1.097422877E+01  2.315095100E+00  3.691841116E+00  1.180775394E+01  1.115100797E-07  0.00000E+00  9.000E+00
      21     1     1     2   513   512  1.845810666E+00  1.127904636E+01  1.034389772E+02  1.040684674E+02  1.907348633E-06  0.00000E+00  9.000E+00
</event>
<event>
      5  10001  2.40292E+09  3.56164E+00 -1.00000E+00  2.75824E-01
      21    -1     0     0   511   514  0.000000000E+00  0.000000000E+00  4.636976068E+01  4.636976068E+01  0.000000000E+00  0.00000E+00  9.000E+00
      21    -1     0     0   517   511  0.000000000E+00  0.000000000E+00 -4.005311691E+01  4.005311691E+01  0.000000000E+00  0.00000E+00  9.000E+00
      21     1     1     2   512   514  2.407644336E-01  1.210197723E+01  4.456833276E+01  4.618281180E+01  0.000000000E+00  0.00000E+00  9.000E+00
      21     1     1     2   517   515 -1.512535544E+00 -5.764952566E+00 -1.624357074E+01  1.730248631E+01  2.384185791E-07  0.00000E+00  9.000E+00
      21     1     1     2   515   512  1.271771110E+00 -6.337024665E+00 -2.200811825E+01  2.293757948E+01  2.384185791E-07  0.00000E+00  9.000E+00
</event>
<event>
      5  10001  2.40292E+09  2.48447E+00 -1.00000E+00  3.23984E-01
      21    -1     0     0   511   515  0.000000000E+00  0.000000000E+00  2.150663917E+01  2.150663917E+01  0.000000000E+00  0.00000E+00  9.000E+00
      -1    -1     0     0     0   512  0.000000000E+00  0.000000000E+00 -7.420291773E+00  7.420291773E+00  0.000000000E+00  0.00000E+00  9.000E+00
      -1     1     1     2     0   515  6.781086683E+00  8.922981581E+00  5.147363823E+00  1.233721975E+01  3.300000131E-01  0.00000E+00  9.000E+00
      21     1     1     2   513   512 -4.373599244E+00 -9.534726485E+00  4.319025991E+00  1.134430981E+01  3.576278687E-07  0.00000E+00  9.000E+00
      21     1     1     2   511   513 -2.407487439E+00  6.117449047E-01  4.619957586E+00  5.245401386E+00  5.960464478E-08  0.00000E+00  9.000E+00
</event>
<event>
      5  10001  2.40292E+09  9.33107E+00 -1.00000E+00  1.99238E-01
      21    -1     0     0   514   513  0.000000000E+00  0.000000000E+00  2.434449810E+01  2.434449810E+01  0.000000000E+00  0.00000E+00  9.000E+00
      -2    -1     0     0     0   511  0.000000000E+00  0.000000000E+00 -5.345626973E+01  5.345626973E+01  0.000000000E+00  0.00000E+00  9.000E+00
      -2     1     1     2     0   511 -8.701897520E+00 -9.830567333E+00 -2.392995677E+01  2.729679112E+01  3.300000131E-01  0.00000E+00  9.000E+00
       2     1     1     2   514     0  1.691009923E+01  1.426632017E+01  1.603365977E+01  2.732519886E+01  3.300000131E-01  0.00000E+00  9.000E+00
      -2     1     1     2     0   513 -8.208201710E+00 -4.435752839E+00 -2.121547463E+01  2.317877784E+01  3.300000131E-01  0.00000E+00  9.000E+00
</event>
<event>
      5  10001  2.40292E+09  3.86307E+00 -1.00000E+00  2.66975E-01
       2    -1     0     0   512     0  0.000000000E+00  0.000000000E+00  1.273201473E+02  1.273201473E+02  0.000000000E+00  0.00000E+00  9.000E+00
      21    -1     0     0   511   512  0.000000000E+00  0.000000000E+00 -1.903999501E+00  1.903999501E+00  0.000000000E+00  0.00000E+00  9.000E+00
      -2     1     1     2     0   513  7.410997083E+00  6.963148932E+00  6.915058257E+01  6.989506628E+01  3.300000131E-01  0.00000E+00  9.000E+00
       2     1     1     2   513     0 -7.698282086E+00 -1.081334850E+01  5.151451933E+01  5.319818282E+01  3.300000131E-01  0.00000E+00  9.000E+00
       2     1     1     2   511     0  2.872850031E-01  3.850199569E+00  4.751045851E+00  6.130897657E+00  3.300000131E-01  0.00000E+00  9.000E+00
</event>
<event>
      5  10001  2.40292E+09  4.46757E+00 -1.00000E+00  2.52549E-01
      21    -1     0     0   514   513  0.000000000E+00  0.000000000E+00  4.074874440E+00  4.074874440E+00  0.000000000E+00  0.00000E+00  9.000E+00
      21    -1     0     0   511   515  0.000000000E+00  0.000000000E+00 -3.615066224E+01  3.615066224E+01  0.000000000E+00  0.00000E+00  9.000E+00
      21     1     1     2   514   515  9.641563611E+00  5.374489619E+00 -1.801067543E+01  2.112414062E+01  2.384185791E-07  0.00000E+00  9.000E+00
      21     1     1     2   511   512 -6.679921247E+00 -6.091237433E+00 -1.307795272E+01  1.589834484E+01  0.000000000E+00  0.00000E+00  9.000E+00
      21     1     1     2   512   513 -2.961642364E+00  7.167478142E-01 -9.871596481E-01  3.203051216E+00  3.650024150E-08  0.00000E+00  9.000E+00
</event>
<event>
      5  10001  2.40292E+09  4.42246E+00 -1.00000E+00  2.53502E-01
      21    -1     0     0   516   512  0.000000000E+00  0.000000000E+00  7.017950553E+00  7.017950553E+00  0.000000000E+00  0.00000E+00  9.000E+00
      21    -1     0     0   513   516  0.000000000E+00  0.000000000E+00 -1.595142939E+01  1.595142939E+01  0.000000000E+00  0.00000E+00  9.000E+00
      21     1     1     2   511   512  4.032257998E+00 -8.807236268E+00 -2.663051774E+00  1.004581306E+01  2.169641819E-07  0.00000E+00  9.000E+00
      21     1     1     2   514   511 -4.938133130E+00  4.814480280E+00 -5.346546896E+00  8.726393464E+00  8.429369702E-08  0.00000E+00  9.000E+00
      21     1     1     2   513   514  9.058751318E-01  3.992755988E+00 -9.238801632E-01  4.197173417E+00  6.322027277E-08  0.00000E+00  9.000E+00
</event>
<event>
      5  10001  2.40292E+09  9.19458E+00 -1.00000E+00  2.00008E-01
      21    -1     0     0   515   513  0.000000000E+00  0.000000000E+00  2.267396263E+02  2.267396263E+02  0.000000000E+00  0.00000E+00  9.000E+00
      21    -1     0     0   512   517  0.000000000E+00  0.000000000E+00 -9.941032467E+00  9.941032467E+00  0.000000000E+00  0.00000E+00  9.000E+00
      21     1     1     2   515   517 -4.416773560E+00  1.694613349E+01  2.160392799E+02  2.167478945E+02  2.697398305E-06  0.00000E+00  9.000E+00
      21     1     1     2   512   511  2.106497176E+00 -4.340190920E+00 -3.994672601E+00  6.263545064E+00  1.632340424E-07  0.00000E+00  9.000E+00
      21     1     1     2   511   513  2.310276384E+00 -1.260594257E+01  4.753986565E+00  1.366921919E+01  3.475518164E-07  0.00000E+00  9.000E+00
</event>
<event>
      5  10001  2.40292E+09  5.82443E+00 -1.00000E+00  2.27414E-01
       2    -1     0     0   515     0  0.000000000E+00  0.000000000E+00  8.074961955E+01  8.074961955E+01  0.000000000E+00  0.00000E+00  9.000E+00
      21    -1     0     0   514   515  0.000000000E+00  0.000000000E+00 -3.307999803E+00  3.307999803E+00  0.000000000E+00  0.00000E+00  9.000E+00
       5     1     1     2   514     0  5.146939974E+00 -1.412379209E+00  4.362254808E+00  8.399706838E+00  4.800000191E+00  0.00000E+00  9.000E+00
       2     1     1     2   511     0 -1.067908514E+01  7.473258013E-01  5.670773211E+01  5.771028622E+01  3.300000131E-01  0.00000E+00  9.000E+00
      -5     1     1     2     0   511  5.532145162E+00  6.650534076E-01  1.637163283E+01  1.794762629E+01  4.800000191E+00  0.00000E+00  9.000E+00
</event>
<event>
      5  10001  2.40292E+09  4.47241E+00 -1.00000E+00  2.52447E-01
      21    -1     0     0   512   511  0.000000000E+00  0.000000000E+00  7.336715715E+01  7.336715715E+01  0.000000000E+00  0.00000E+00  9.000E+00
      21    -1     0     0   513   512  0.000000000E+00  0.000000000E+00 -4.106185994E+01  4.106185994E+01  0.000000000E+00  0.00000E+00  9.000E+00
      21     1     1     2   513   514 -8.276766260E+00 -7.209186592E+00 -3.970345865E+01  4.119274038E+01  8.259061849E-07  0.00000E+00  9.000E+00
      21     1     1     2   514   515  5.639726251E+00  2.164479504E+00  5.430321401E+01  5.463817837E+01  1.784161275E-06  0.00000E+00  9.000E+00
      21     1     1     2   515   511  2.637040009E+00  5.044707089E+00  1.770554185E+01  1.859809834E+01  5.331201500E-07  0.00000E+00  9.000E+00
</event>
<event>
      5  10001  2.40292E+09  2.15139E+00 -1.00000E+00  3.48706E-01
      21    -1     0     0   516   513  0.000000000E+00  0.000000000E+00  3.757733229E+02  3.757733229E+02  0.000000000E+00  0.00000E+00  9.000E+00
      21    -1     0     0   512   516  0.000000000E+00  0.000000000E+00 -3.132592106E+00  3.132592106E+00  0.000000000E+00  0.00000E+00  9.000E+00
      21     1     1     2   517   513  3.716240104E+00 -1.265508196E+01  3.382303885E+02  3.384874550E+02  3.814697266E-06  0.00000E+00  9.000E+00
      21     1     1     2   511   517 -4.501468730E+00  1.065210747E+01  3.595567756E+01  3.776958251E+01  6.743495762E-07  0.00000E+00  9.000E+00
      21     1     1     2   512   511  7.852286258E-01  2.002974493E+00 -1.545335228E+00  2.648877456E+00  1.737759082E-07  0.00000E+00  9.000E+00
</event>
<event>
      5  10001  2.40292E+09  2.76284E+01 -1.00000E+00  1.55530E-01
       1    -1     0     0   515     0  0.000000000E+00  0.000000000E+00  6.319098019E+01  6.319098019E+01  0.000000000E+00  0.00000E+00  9.000E+00
      21    -1     0     0   511   515  0.000000000E+00  0.000000000E+00 -1.258494448E+02  1.258494448E+02  0.000000000E+00  0.00000E+00  9.000E+00
      21     1     1     2   513   514  3.004265766E+00 -6.525606531E+00 -9.866660875E+01  9.892779607E+01  1.348699152E-06  0.00000E+00  9.000E+00
       1     1     1     2   514     0  1.957898049E+01  7.069967082E+00  5.612623967E+01  5.986304863E+01  3.300000131E-01  0.00000E+00  9.000E+00
      21     1     1     2   511   513 -2.258324625E+01 -5.443605511E-01 -2.011809552E+01  3.024958028E+01  5.840038640E-07  0.00000E+00  9.000E+00
</event>
<event>
      5  10001  2.40292E+09  5.00885E+01 -1.00000E+00  1.39003E-01
      21    -1     0     0   512   514  0.000000000E+00  0.000000000E+00  1.190897626E+02  1.190897626E+02  0.000000000E+00  0.00000E+00  9.000E+00
      21    -1     0     0   511   513  0.000000000E+00  0.000000000E+00 -5.614550386E+00  5.614550386E+00  0.000000000E+00  0.00000E+00  9.000E+00
      21     1     1     2   512   513  1.745929616E+00 -2.760203888E-01  3.842705301E+00  4.229756673E+00  6.107658604E-07  0.00000E+00  9.000E+00
      21     1     1     2   511   515  1.400326398E+00  3.622239917E-01 -5.302614293E+00  5.496347749E+00  2.528810911E-07  0.00000E+00  9.000E+00
      21     1     1     2   515   514 -3.146256015E+00 -8.620360283E-02  1.149351212E+02  1.149782086E+02  1.907348633E-06  0.00000E+00  9.000E+00
</event>
<event>
      5  10001  2.40292E+09  2.85780E+00 -1.00000E+00  3.03272E-01
       2    -1     0     0   513     0  0.000000000E+00  0.000000000E+00  8.456881009E+02  8.456881009E+02  0.000000000E+00  0.00000E+00  9.000E+00
      -2    -1     0     0     0   512  0.000000000E+00  0.000000000E+00 -3.072679521E-01  3.072679521E-01  0.000000000E+00  0.00000E+00  9.000E+00
      21     1     1     2   511   512 -4.376724943E-01 -8.268923759E+00  7.213311260E+01  7.260683571E+01  1.651812370E-06  0.00000E+00  9.000E+00
       3     1     1     2   513     0 -1.823363532E+00  9.930577666E+00  7.146918613E+02  7.147633508E+02  5.000000000E-01  0.00000E+00  9.000E+00
      -3     1     1     2     0   511  2.261036027E+00 -1.661653907E+00  5.855585904E+01  5.862518235E+01  5.000000000E-01  0.00000E+00  9.000E+00
</event>
<event>
      5  10001  2.40292E+09  1.05862E+01 -1.00000E+00  1.92883E-01
      21    -1     0     0   514   515  0.000000000E+00  0.000000000E+00  7.865333224E+00  7.865333224E+00  0.000000000E+00  0.00000E+00  9.000E+00
       2    -1     0     0   513     0  0.000000000E+00  0.000000000E+00 -1.236289357E+03  1.236289357E+03  0.000000000E+00  0.00000E+00  9.000E+00
      21     1     1     2   513   515  1.182615122E+01  6.373696888E+00  2.001147679E+00  1.358257917E+01  1.241008211E-06  0.00000E+00  9.000E+00
       2     1     1     2   512     0 -4.020221886E+00 -9.584052289E+00 -7.614189515E+02  7.614899506E+02  3.300000131E-01  0.00000E+00  9.000E+00
      21     1     1     2   514   512 -7.805929338E+00  3.210355401E+00 -4.690062196E+02  4.690821601E+02  0.000000000E+00  0.00000E+00  9.000E+00
</event>
<event>
      5  10001  2.40292E+09  8.09058E+00 -1.00000E+00  2.06968E-01
       2    -1     0     0   514     0  0.000000000E+00  0.000000000E+00  4.925093108E+02  4.925093108E+02  0.000000000E+00  0.00000E+00  9.000E+00
      21    -1     0     0   511   513  0.000000000E+00  0.000000000E+00 -8.111789292E-01  8.111789292E-01  0.000000000E+00  0.00000E+00  9.000E+00
      21     1     1     2   514   512  8.958630860E+00  1.701468182E+00  1.003463293E+02  1.007598028E+02  4.473129043E-06  0.00000E+00  9.000E+00
       2     1     1     2   511     0 -1.070225301E+01 -9.601298606E+00  3.561900573E+02  3.564802785E+02  3.300000131E-01  0.00000E+00  9.000E+00
      21     1     1     2   512   513  1.743622148E+00  7.899830424E+00  3.516174532E+01  3.608040843E+01  1.261592536E-06  0.00000E+00  9.000E+00
</event>
<event>
      5  10001  2.40292E+09  1.07940E+01 -1.00000E+00  1.91942E-01
      21    -1     0     0   515   511  0.000000000E+00  0.000000000E+00  1.195942499E+02  1.195942499E+02  0.000000000E+00  0.00000E+00  9.000E+00
       1    -1     0     0   512     0  0.000000000E+00  0.000000000E+00 -1.213045551E+00  1.213045551E+00  0.000000000E+00  0.00000E+00  9.000E+00
      21     1     1     2   512   511 -1.468219742E+00  1.019564274E+01  5.833601517E+01  5.923847961E+01  0.000000000E+00  0.00000E+00  9.000E+00
      21     1     1     2   515   514 -5.113521072E-01 -4.134237340E+00  4.541969049E+01  4.561032431E+01  6.743495762E-07  0.00000E+00  9.000E+00
       1     1     1     2   514     0  1.979571849E+00 -6.061405400E+00  1.462549865E+01  1.595849150E+01  3.300000131E-01  0.00000E+00  9.000E+00
</event>
<event>
      5  10001  2.40292E+09  1.11980E+01 -1.00000E+00  1.90188E-01
      -2    -1     0     0     0   513  0.000000000E+00  0.000000000E+00  6.033345858E+01  6.033345858E+01  0.000000000E+00  0.00000E+00  9.000E+00
      21    -1     0     0   511   516  0.000000000E+00  0.000000000E+00 -2.975328762E+01  2.975328762E+01  0.000000000E+00  0.00000E+00  9.000E+00
      -2     1     1     2     0   512 -1.985003725E+01 -1.480120717E+01  2.362374351E+01  3.422411241E+01  3.300000131E-01  0.00000E+00  9.000E+00
      21     1     1     2   512   516  2.207183753E+01  3.826142707E+00  2.566059846E+01  3.406276109E+01  3.371747881E-07  0.00000E+00  9.000E+00
      21     1     1     2   511   513 -2.221800279E+00  1.097506446E+01 -1.870417102E+01  2.179987270E+01  3.371747881E-07  0.00000E+00  9.000E+00
</event>
<event>
      5  10001  2.40292E+09  5.26513E+00 -1.00000E+00  2.34576E-01
      21    -1     0     0   514   515  0.000000000E+00  0.000000000E+00  1.045847232E+02  1.045847232E+02  0.000000000E+00  0.00000E+00  9.000E+00
      21    -1     0     0   511   513  0.000000000E+00  0.000000000E+00 -5.645294517E+02  5.645294517E+02  0.000000000E+00  0.00000E+00  9.000E+00
      21     1     1     2   514   513 -2.245915531E+01 -7.110794016E-01  8.670297884E+00  2.408512729E+01  1.233110479E-06  0.00000E+00  9.000E+00
      21     1     1     2   511   512  2.018901775E+01  5.461660934E+00 -5.565468702E+02  5.569397139E+02  0.000000000E+00  0.00000E+00  9.000E+00
      21     1     1     2   512   515  2.270137560E+00 -4.750581532E+00  8.793184381E+01  8.808933367E+01  2.336015456E-06  0.00000E+00  9.000E+00
</event>
<event>
      5  10001  2.40292E+09  1.02355E+01 -1.00000E+00  1.94538E-01
      21    -1     0     0   516   511  0.000000000E+00  0.000000000E+00  6.846696590E+01  6.846696590E+01  0.000000000E+00  0.00000E+00  9.000E+00
      21    -1     0     0   515   516  0.000000000E+00  0.000000000E+00 -5.372993032E+00  5.372993032E+00  0.000000000E+00  0.00000E+00  9.000E+00
      21     1     1     2   515   517  2.168130790E+00 -1.086091541E+01  4.536347776E+00  1.196823820E+01  4.420398764E-07  0.00000E+00  9.000E+00
      21     1     1     2   517   513  3.967718307E+00  1.048062111E+01  5.054513351E+01  5.177254803E+01  9.536743164E-07  0.00000E+00  9.000E+00
      21     1     1     2   513   511 -6.135849097E+00  3.802942919E-01  8.012491582E+00  1.009917270E+01  2.064765462E-07  0.00000E+00  9.000E+00
</event>
<event>
      5  10001  2.40292E+09  6.72616E+00 -1.00000E+00  2.17960E-01
       3    -1     0     0   514     0  0.000000000E+00  0.000000000E+00  1.159810602E+02  1.159810602E+02  0.000000000E+00  0.00000E+00  9.000E+00
      21    -1     0     0   513   514  0.000000000E+00  0.000000000E+00 -1.593823035E+02  1.593823035E+02  0.000000000E+00  0.00000E+00  9.000E+00
      21     1     1     2   513   515  6.029021170E+00  4.240145206E+00 -1.365909111E+02  1.367896375E+02  0.000000000E+00  0.00000E+00  9.000E+00
       3     1     1     2   512     0 -4.119477328E+00 -1.088923407E+01  1.150532088E+02  1.156418453E+02  5.000000000E-01  0.00000E+00  9.000E+00
      21     1     1     2   515   512 -1.909543842E+00  6.649088860E+00 -2.186354100E+01  2.293188098E+01  4.129530925E-07  0.00000E+00  9.000E+00
</event>
<event>
      5  10001  2.40292E+09  1.18405E+01 -1.00000E+00  1.87588E-01
       1    -1     0     0   513     0  0.000000000E+00  0.000000000E+00  2.744817763E+02  2.744817763E+02  0.000000000E+00  0.00000E+00  9.000E+00
      21    -1     0     0   511   512  0.000000000E+00  0.000000000E+00 -9.770429388E+00  9.770429388E+00  0.000000000E+00  0.00000E+00  9.000E+00
      21     1     1     2   514   512 -1.558349805E+01 -2.263573747E+01  1.354876746E+01  3.063969846E+01  7.152557373E-07  0.00000E+00  9.000E+00
       1     1     1     2   511     0  8.587271118E+00  1.308343867E+01  2.148249625E+02  2.153945009E+02  3.300000131E-01  0.00000E+00  9.000E+00
      21     1     1     2   513   514  6.996226928E+00  9.552298807E+00  3.633761692E+01  3.821800632E+01  6.743495762E-07  0.00000E+00  9.000E+00
</event>
<event>
      5  10001  2.40292E+09  4.18104E+00 -1.00000E+00  2.58917E-01
      21    -1     0     0   515   514  0.000000000E+00  0.000000000E+00  1.139276961E+02  1.139276961E+02  0.000000000E+00  0.00000E+00  9.000E+00
      21    -1     0     0   512   515  0.000000000E+00  0.000000000E+00 -1.245527627E+01  1.245527627E+01  0.000000000E+00  0.00000E+00  9.000E+00
      21     1     1     2   511   514  5.724663460E+00 -1.097331309E+01  1.896094947E+01  2.264294541E+01  7.907449699E-07  0.00000E+00  9.000E+00
      21     1     1     2   516   511 -9.873356282E+00  1.045419768E+01  9.213348493E+01  9.324887376E+01  1.907348633E-06  0.00000E+00  9.000E+00
      21     1     1     2   512   516  4.148692822E+00  5.191154145E-01 -9.622014522E+00  1.049115324E+01  3.953724850E-07  0.00000E+00  9.000E+00
</event>
<event>
      5  10001  2.40292E+09  2.99716E+00 -1.00000E+00  2.96853E-01
      21    -1     0     0   512   513  0.000000000E+00  0.000000000E+00  1.441299463E+00  1.441299463E+00  0.000000000E+00  0.00000E+00  9.000E+00
       1    -1     0     0   511     0  0.000000000E+00  0.000000000E+00 -1.136141281E+03  1.136141281E+03  0.000000000E+00  0.00000E+00  9.000E+00
      21     1     1     2   514   513 -6.523945421E+00 -9.881423432E+00 -2.817301026E+01  3.056015216E+01  4.768371582E-07  0.00000E+00  9.000E+00
       1     1     1     2   512     0  6.269237420E+00  6.895303180E+00 -8.829745189E+01  8.878849843E+01  3.300000131E-01  0.00000E+00  9.000E+00
      21     1     1     2   511   514  2.547080008E-01  2.986120252E+00 -1.018229519E+03  1.018233929E+03  1.525878906E-05  0.00000E+00  9.000E+00
</event>
<event>
      5  10001  2.40292E+09  6.19525E+00 -1.00000E+00  2.23256E-01
       2    -1     0     0   514     0  0.000000000E+00  0.000000000E+00  1.198520549E+02  1.198520549E+02  0.000000000E+00  0.00000E+00  9.000E+00
      21    -1     0     0   512   514  0.000000000E+00  0.000000000E+00 -6.636934206E+00  6.636934206E+00  0.000000000E+00  0.00000E+00  9.000E+00
      21     1     1     2   512   515 -8.536543411E+00 -7.911864551E+00 -4.421099763E-01  1.164755920E+01  2.108000867E-07  0.00000E+00  9.000E+00
       2     1     1     2   513     0  6.423373179E+00  2.294773265E+00  9.494684584E+01  9.519211176E+01  3.300000131E-01  0.00000E+00  9.000E+00
      21     1     1     2   515   513  2.113170231E+00  5.617091285E+00  1.871038484E+01  1.964931816E+01  4.129530925E-07  0.00000E+00  9.000E+00
</event>
<event>
      5  10001  2.40292E+09  1.09968E+01 -1.00000E+00  1.91049E-01
       3    -1     0     0   514     0  0.000000000E+00  0.000000000E+00  8.558771518E+01  8.558771518E+01  0.000000000E+00  0.00000E+00  9.000E+00
      21    -1     0     0   513   514  0.000000000E+00  0.000000000E+00 -4.634396357E+00  4.634396357E+00  0.000000000E+00  0.00000E+00  9.000E+00
      21     1     1     2   513   512 -3.357237603E+00  6.023311730E+00  2.688173988E+00  7.401189628E+00  2.327635788E-07  0.00000E+00  9.000E+00
       3     1     1     2   511     0 -4.127219693E+00 -8.865772648E+00  7.197871694E+01  7.264173428E+01  5.000000000E-01  0.00000E+00  9.000E+00
      21     1     1     2   512   511  7.484457296E+00  2.842460918E+00  6.286427894E+00  1.017918763E+01  8.429369702E-08  0.00000E+00  9.000E+00
</event>
<event>
      5  10001  2.40292E+09  2.89597E+00 -1.00000E+00  3.01454E-01
      -4    -1     0     0     0   515  0.000000000E+00  0.000000000E+00  3.173405082E+01  3.173405082E+01  0.000000000E+00  0.00000E+00  9.000E+00
       2    -1     0     0   515     0  0.000000000E+00  0.000000000E+00 -1.069694168E+03  1.069694168E+03  0.000000000E+00  0.00000E+00  9.000E+00
      -4     1     1     2     0   513 -7.326726819E+00  1.100635111E+01  1.878268241E+01  2.301868478E+01  1.500000000E+00  0.00000E+00  9.000E+00
      21     1     1     2   513   514  9.733798488E+00 -9.396309812E+00  6.606662675E+00  1.505607727E+01  8.429369702E-08  0.00000E+00  9.000E+00
       2     1     1     2   514     0 -2.407071669E+00 -1.610041302E+00 -1.063349462E+03  1.063353456E+03  3.300000131E-01  0.00000E+00  9.000E+00
</event>
<event>
      5  10001  2.40292E+09  4.80088E+00 -1.00000E+00  2.45999E-01
      21    -1     0     0   511   516  0.000000000E+00  0.000000000E+00  4.758562529E+01  4.758562529E+01  0.000000000E+00  0.00000E+00  9.000E+00
      21    -1     0     0   512   511  0.000000000E+00  0.000000000E+00 -3.574341437E+02  3.574341437E+02  0.000000000E+00  0.00000E+00  9.000E+00
      21     1     1     2   512   515 -9.338861232E+00 -8.639968862E+00 -3.560339424E+02  3.562611845E+02  8.529922400E-06  0.00000E+00  9.000E+00
      21     1     1     2   515   513  5.006321085E+00  6.571747398E+00  1.430907669E+01  1.652273556E+01  8.085167388E-07  0.00000E+00  9.000E+00
      21     1     1     2   513   516  4.332540147E+00  2.068221464E+00  3.187634730E+01  3.223584901E+01  7.539457465E-07  0.00000E+00  9.000E+00
</event>
<event>
      5  10001  2.40292E+09  4.48198E+00 -1.00000E+00  2.52248E-01
       2    -1     0     0   514     0  0.000000000E+00  0.000000000E+00  3.459176283E+02  3.459176283E+02  0.000000000E+00  0.00000E+00  9.000E+00
      21    -1     0     0   513   512  0.000000000E+00  0.000000000E+00 -7.053001820E-01  7.053001820E-01  0.000000000E+00  0.00000E+00  9.000E+00
      21     1     1     2   514   511  8.089771924E+00  5.586508562E+00  1.904173181E+02  1.906709430E+02  0.000000000E+00  0.00000E+00  9.000E+00
       2     1     1     2   513     0 -1.185583502E+01 -8.015570116E+00  1.084192802E+02  1.093602277E+02  3.300000131E-01  0.00000E+00  9.000E+00
      21     1     1     2   511   512  3.766063094E+00  2.429061555E+00  4.637572985E+01  4.659175775E+01  0.000000000E+00  0.00000E+00  9.000E+00
</event>
<event>
      5  10001  2.40292E+09  1.41384E+01 -1.00000E+00  1.79790E-01
      21    -1     0     0   515   512  0.000000000E+00  0.000000000E+00  3.285705624E+02  3.285705624E+02  0.000000000E+00  0.00000E+00  9.000E+00
      21    -1     0     0   513   516  0.000000000E+00  0.000000000E+00 -4.682852709E+01  4.682852709E+01  0.000000000E+00  0.00000E+00  9.000E+00
      21     1     1     2   515   516 -6.831201887E-01  1.019333134E+01  2.445123893E+02  2.447257223E+02  4.672030912E-06  0.00000E+00  9.000E+00
      21     1     1     2   511   512 -9.887318716E+00 -1.958273021E+01  8.139540246E+01  8.429978609E+01  0.000000000E+00  0.00000E+00  9.000E+00
      21     1     1     2   513   511  1.057043890E+01  9.389398871E+00 -4.416575637E+01  4.637358112E+01  1.430511475E-06  0.00000E+00  9.000E+00
</event>
<event>
      5  10001  2.40292E+09  3.65543E+00 -1.00000E+00  2.72925E-01
      21    -1     0     0   514   512  0.000000000E+00  0.000000000E+00  1.482373599E+01  1.482373599E+01  0.000000000E+00  0.00000E+00  9.000E+00
      21    -1     0     0   513   514  0.000000000E+00  0.000000000E+00 -2.686110040E+01  2.686110040E+01  0.000000000E+00  0.00000E+00  9.000E+00
      21     1     1     2   513   517  7.097028851E+00  9.703305270E+00 -2.171548293E+01  2.482104249E+01  0.000000000E+00  0.00000E+00  9.000E+00
      21     1     1     2   517   511 -6.458242679E+00 -6.104118507E+00  9.770407223E+00  1.320719571E+01  2.384185791E-07  0.00000E+00  9.000E+00
      21     1     1     2   511   512 -6.387861713E-01 -3.599186763E+00 -9.228870429E-02  3.656598191E+00  5.315886137E-08  0.00000E+00  9.000E+00
</event>
<event>
      5  10001  2.40292E+09  1.34270E+01 -1.00000E+00  1.81989E-01
      -3    -1     0     0     0   512  0.000000000E+00  0.000000000E+00  1.640531226E+02  1.640531226E+02  0.000000000E+00  0.00000E+00  9.000E+00
      21    -1     0     0   511   514  0.000000000E+00  0.000000000E+00 -9.978477939E+00  9.978477939E+00  0.000000000E+00  0.00000E+00  9.000E+00
      -3     1     1     2     0   514 -1.419066693E+01 -1.077909870E+01  1.372915864E+02  1.384441898E+02  5.000000000E-01  0.00000E+00  9.000E+00
      21     1     1     2   511   513  7.616782131E+00  4.350564873E+00 -6.260836431E+00  1.077686678E+01  1.685873940E-07  0.00000E+00  9.000E+00
      21     1     1     2   513   512  6.573884798E+00  6.428533829E+00  2.304389472E+01  2.481054397E+01  3.371747881E-07  0.00000E+00  9.000E+00
</event>
<event>
      5  10001  2.40292E+09  2.11006E+01 -1.00000E+00  1.64431E-01
      21    -1     0     0   513   511  0.000000000E+00  0.000000000E+00  4.054130517E+00  4.054130517E+00  0.000000000E+00  0.00000E+00  9.000E+00
      -2    -1     0     0     0   515  0.000000000E+00  0.000000000E+00 -7.930941925E+01  7.930941925E+01  0.000000000E+00  0.00000E+00  9.000E+00
      21     1     1     2   514   511  3.532726281E+00 -5.285799475E+00 -1.494438490E+00  6.530940014E+00  2.308477966E-07  0.00000E+00  9.000E+00
      21     1     1     2   513   515 -5.578707996E+00  1.031209179E+01 -2.333793736E+01  2.611743748E+01  0.000000000E+00  0.00000E+00  9.000E+00
      -2     1     1     2     0   514  2.045981716E+00 -5.026292316E+00 -5.042291288E+01  5.071517228E+01  3.300000131E-01  0.00000E+00  9.000E+00
</event>
<event>
      5  10001  2.40292E+09  2.02150E+01 -1.00000E+00  1.65945E-01
      21    -1     0     0   512   516  0.000000000E+00  0.000000000E+00  9.659228061E+00  9.659228061E+00  0.000000000E+00  0.00000E+00  9.000E+00
       2    -1     0     0   511     0  0.000000000E+00  0.000000000E+00 -1.426622741E+02  1.426622741E+02  0.000000000E+00  0.00000E+00  9.000E+00
      21     1     1     2   511   513 -1.563689038E+01 -8.773235208E+00 -4.741554417E+00  1.854627550E+01  4.460403188E-07  0.00000E+00  9.000E+00
       2     1     1     2   512     0  1.126145931E+01  2.110011706E+01 -9.661732249E+01  9.953417158E+01  3.300000131E-01  0.00000E+00  9.000E+00
      21     1     1     2   513   516  4.375431066E+00 -1.232688186E+01 -3.164416913E+01  3.424105508E+01  4.768371582E-07  0.00000E+00  9.000E+00
</event>
<event>
      5  10001  2.40292E+09  2.71548E+00 -1.00000E+00  3.10495E-01
      21    -1     0     0   514   513  0.000000000E+00  0.000000000E+00  3.383262174E+01  3.383262174E+01  0.000000000E+00  0.00000E+00  9.000E+00
      21    -1     0     0   511   515  0.000000000E+00  0.000000000E+00 -1.045364748E+01  1.045364748E+01  0.000000000E+00  0.00000E+00  9.000E+00
      21     1     1     2   514   515 -9.101392211E+00 -4.271689927E+00  3.018073949E+01  3.181131420E+01  4.768371582E-07  0.00000E+00  9.000E+00
      21     1     1     2   511   512  6.073309673E+00  2.131679523E+00 -2.799390528E+00  7.018955428E+00  2.250025998E-07  0.00000E+00  9.000E+00
      21     1     1     2   512   513  3.028082538E+00  2.140010404E+00 -4.002374702E+00  5.455999600E+00  2.665600750E-07  0.00000E+00  9.000E+00
</event>
<event>
      5  10001  2.40292E+09  3.10387E+01 -1.00000E+00  1.51986E-01
       2    -1     0     0   514     0  0.000000000E+00  0.000000000E+00  2.316514534E+00  2.316514534E+00  0.000000000E+00  0.00000E+00  9.000E+00
      21    -1     0     0   516   514  0.000000000E+00  0.000000000E+00 -1.965007680E+02  1.965007680E+02  0.000000000E+00  0.00000E+00  9.000E+00
      21     1     1     2   516   512  2.899655047E+00  6.417650435E+00 -2.954604232E+01  3.037371978E+01  4.768371582E-07  0.00000E+00  9.000E+00
       2     1     1     2   511     0 -2.767858042E+00 -1.524265440E+01 -3.243764328E+01  3.594870169E+01  3.300000131E-01  0.00000E+00  9.000E+00
      21     1     1     2   512   511 -1.317970052E-01  8.825003967E+00 -1.322005679E+02  1.324948611E+02  0.000000000E+00  0.00000E+00  9.000E+00
</event>
<event>
      5  10001  2.40292E+09  5.94605E+00 -1.00000E+00  2.26004E-01
      21    -1     0     0   513   514  0.000000000E+00  0.000000000E+00  1.380942039E+02  1.380942039E+02  0.000000000E+00  0.00000E+00  9.000E+00
      21    -1     0     0   512   515  0.000000000E+00  0.000000000E+00 -3.911920328E+01  3.911920328E+01  0.000000000E+00  0.00000E+00  9.000E+00
      21     1     1     2   513   515  4.212630246E+00  1.772468728E+01 -1.501373136E+01  2.360768778E+01  2.384185791E-07  0.00000E+00  9.000E+00
      21     1     1     2   512   511  7.266467179E-01 -2.103512598E+01 -1.412891685E+01  2.535016433E+01  5.331201500E-07  0.00000E+00  9.000E+00
      21     1     1     2   511   514 -4.939276964E+00  3.310438696E+00  1.281176489E+02  1.282555551E+02  0.000000000E+00  0.00000E+00  9.000E+00
</event>
<event>
      5  10001  2.40292E+09  8.77999E+00 -1.00000E+00  2.02462E-01
       2    -1     0     0   513     0  0.000000000E+00  0.000000000E+00  7.011897341E+02  7.011897341E+02  0.000000000E+00  0.00000E+00  9.000E+00
      21    -1     0     0   512   513  0.000000000E+00  0.000000000E+00 -8.961113183E+00  8.961113183E+00  0.000000000E+00  0.00000E+00  9.000E+00
      21     1     1     2   516   511 -7.475249878E+00 -1.243308493E+01  7.185244101E+01  7.330234812E+01  1.907348633E-06  0.00000E+00  9.000E+00
       2     1     1     2   511     0  9.630704993E+00  3.921823532E+00  6.262168781E+02  6.263032959E+02  3.300000131E-01  0.00000E+00  9.000E+00
      21     1     1     2   512   516 -2.155455115E+00  8.511261403E+00 -5.840698139E+00  1.054520328E+01  7.996802250E-07  0.00000E+00  9.000E+00
</event>
<event>
      5  10001  2.40292E+09  5.64026E+00 -1.00000E+00  2.29643E-01
      21    -1     0     0   514   511  0.000000000E+00  0.000000000E+00  5.391016610E+02  5.391016610E+02  0.000000000E+00  0.00000E+00  9.000E+00
      21    -1     0     0   512   513  0.000000000E+00  0.000000000E+00 -2.787031511E+01  2.787031511E+01  0.000000000E+00  0.00000E+00  9.000E+00
      21     1     1     2   512   515 -9.721172911E+00  4.720511924E+00 -2.447126497E+01  2.675121016E+01  2.132480600E-06  0.00000E+00  9.000E+00
      21     1     1     2   515   511  1.352180552E+01 -5.530454713E-01  5.342166570E+02  5.343880442E+02  7.629394531E-06  0.00000E+00  9.000E+00
      21     1     1     2   514   513 -3.800632612E+00 -4.167466453E+00  1.485953833E+00  5.832721807E+00  1.246720592E-07  0.00000E+00  9.000E+00
</event>
<event>
      5  10001  2.40292E+09  4.73650E+00 -1.00000E+00  2.47200E-01
      -2    -1     0     0     0   515  0.000000000E+00  0.000000000E+00  8.974771134E+00  8.974771134E+00  0.000000000E+00  0.00000E+00  9.000E+00
       2    -1     0     0   511     0  0.000000000E+00  0.000000000E+00 -2.621954599E+01  2.621954599E+01  0.000000000E+00  0.00000E+00  9.000E+00
      -2     1     1     2     0   512  3.893447251E+00 -1.122310560E+01 -3.517184020E-01  1.188905533E+01  3.300000131E-01  0.00000E+00  9.000E+00
       2     1     1     2   512     0 -7.291791995E+00  7.925622349E+00 -1.430524939E+01  1.790906978E+01  3.300000131E-01  0.00000E+00  9.000E+00
      21     1     1     2   511   515  3.398344744E+00  3.297483256E+00 -2.587807058E+00  5.396192009E+00  7.884953353E-08  0.00000E+00  9.000E+00
</event>
<event>
      5  10001  2.40292E+09  2.96057E+00 -1.00000E+00  2.98482E-01
      21    -1     0     0   513   512  0.000000000E+00  0.000000000E+00  2.369557493E+00  2.369557493E+00  0.000000000E+00  0.00000E+00  9.000E+00
      21    -1     0     0   511   514  0.000000000E+00  0.000000000E+00 -2.187394854E+02  2.187394854E+02  0.000000000E+00  0.00000E+00  9.000E+00
      21     1     1     2   513   514  7.510489344E+00 -8.097875623E+00 -2.042334590E+02  2.045318773E+02  3.814697266E-06  0.00000E+00  9.000E+00
      21     1     1     2   516   512 -3.765952013E+00  3.632174639E+00 -7.423781693E+00  9.082269639E+00  2.384185791E-07  0.00000E+00  9.000E+00
      21     1     1     2   511   516 -3.744537331E+00  4.465700984E+00 -4.712687197E+00  7.494895978E+00  2.528810911E-07  0.00000E+00  9.000E+00
</event>
<event>
      5  10001  2.40292E+09  1.13823E+01 -1.00000E+00  1.89419E-01
      21    -1     0     0   515   514  0.000000000E+00  0.000000000E+00  7.791316447E+02  7.791316447E+02  0.000000000E+00  0.00000E+00  9.000E+00
      21    -1     0     0   512   517  0.000000000E+00  0.000000000E+00 -1.107538360E+02  1.107538360E+02  0.000000000E+00  0.00000E+00  9.000E+00
      21     1     1     2   515   517 -6.325975790E+00  1.832487927E+01  2.259211732E-01  1.938737244E+01  1.668216857E-06  0.00000E+00  9.000E+00
      21     1     1     2   511   514 -4.551710427E+00 -1.497332887E+01  7.689249870E+02  7.690842309E+02  1.868812365E-05  0.00000E+00  9.000E+00
      21     1     1     2   512   511  1.087768622E+01 -3.351550396E+00 -1.007730994E+02  1.014138773E+02  3.015782986E-06  0.00000E+00  9.000E+00
</event>
<event>
      5  10001  2.40292E+09  6.86389E+00 -1.00000E+00  2.16694E-01
      -3    -1     0     0     0   513  0.000000000E+00  0.000000000E+00  2.705493078E+01  2.705493078E+01  0.000000000E+00  0.00000E+00  9.000E+00
      21    -1     0     0   514   511  0.000000000E+00  0.000000000E+00 -8.454407900E+01  8.454407900E+01  0.000000000E+00  0.00000E+00  9.000E+00
      -3     1     1     2     0   511  5.412007916E+00  1.051788623E+01  2.472297833E+01  2.741151980E+01  5.000000000E-01  0.00000E+00  9.000E+00
      21     1     1     2   514   515 -8.113963465E+00 -4.788453006E+00 -6.770857910E+01  6.836093453E+01  9.536743164E-07  0.00000E+00  9.000E+00
      21     1     1     2   515   513  2.701955549E+00 -5.729433223E+00 -1.450354745E+01  1.582655545E+01  1.685873940E-07  0.00000E+00  9.000E+00
</event>
<event>
      5  10001  2.40292E+09  8.74121E+00 -1.00000E+00  2.02700E-01
      21    -1     0     0   512   511  0.000000000E+00  0.000000000E+00  2.878967140E+02  2.878967140E+02  0.000000000E+00  0.00000E+00  9.000E+00
      21    -1     0     0   516   513  0.000000000E+00  0.000000000E+00 -3.834641582E+01  3.834641582E+01  0.000000000E+00  0.00000E+00  9.000E+00
      21     1     1     2   512   513  1.003611596E+01 -2.041977702E+00 -3.751677748E+01  3.888961158E+01  1.066240300E-06  0.00000E+00  9.000E+00
      21     1     1     2   516   514 -5.233483378E+00  4.630744924E+00  1.255559401E+02  1.257502574E+02  1.348699152E-06  0.00000E+00  9.000E+00
      21     1     1     2   514   511 -4.802632580E+00 -2.588767222E+00  1.615111356E+02  1.616032608E+02  2.697398305E-06  0.00000E+00  9.000E+00
</event>
<event>
      5  10001  2.40292E+09  4.76248E+00 -1.00000E+00  2.46712E-01
      21    -1     0     0   515   513  0.000000000E+00  0.000000000E+00  2.009931140E+02  2.009931140E+02  0.000000000E+00  0.00000E+00  9.000E+00
      21    -1     0     0   512   511  0.000000000E+00  0.000000000E+00 -4.767772170E+01  4.767772170E+01  0.000000000E+00  0.00000E+00  9.000E+00
      21     1     1     2   515   511  1.313306463E+01 -3.314304182E+00  1.948191661E+02  1.952894505E+02  0.000000000E+00  0.00000E+00  9.000E+00
      21     1     1     2   517   513 -1.264809913E+01  8.052024286E+00 -3.920728287E+00  1.549779394E+01  7.918673906E-07  0.00000E+00  9.000E+00
      21     1     1     2   512   517 -4.849655004E-01 -4.737720104E+00 -3.758304546E+01  3.788359130E+01  8.259061849E-07  0.00000E+00  9.000E+00
</event>
<event>
      5  10001  2.40292E+09  1.72367E+00 -1.00000E+00  3.95903E-01
       2    -1     0     0   511     0  0.000000000E+00  0.000000000E+00  2.153113739E+01  2.153113739E+01  0.000000000E+00  0.00000E+00  9.000E+00
      -2    -1     0     0     0   514  0.000000000E+00  0.000000000E+00 -2.336440112E+01  2.336440112E+01  0.000000000E+00  0.00000E+00  9.000E+00
      -2     1     1     2     0   512  2.485496421E+00 -1.278265556E+01 -1.786104212E+01  2.210655335E+01  3.300000131E-01  0.00000E+00  9.000E+00
       2     1     1     2   512     0 -1.316730280E+00  1.151609942E+01  6.886261095E+00  1.348643083E+01  3.300000131E-01  0.00000E+00  9.000E+00
      21     1     1     2   511   514 -1.168766141E+00  1.266556135E+00  9.141517289E+00  9.302554331E+00  1.192092896E-07  0.00000E+00  9.000E+00
</event>
<event>
      5  10001  2.40292E+09  9.83624E+00 -1.00000E+00  1.96531E-01
      21    -1     0     0   512   515  0.000000000E+00  0.000000000E+00  9.091758790E+00  9.091758790E+00  0.000000000E+00  0.00000E+00  9.000E+00
       1    -1     0     0   515     0  0.000000000E+00  0.000000000E+00 -1.138385309E+02  1.138385309E+02  0.000000000E+00  0.00000E+00  9.000E+00
      21     1     1     2   516   513 -5.785964837E-01  3.112625230E+00  1.553016147E+00  3.526339301E+00  1.134838627E-07  0.00000E+00  9.000E+00
       1     1     1     2   513     0  1.142544278E+01 -1.106570230E+01 -1.046507796E+02  1.058531297E+02  3.300000131E-01  0.00000E+00  9.000E+00
      21     1     1     2   512   516 -1.084684630E+01  7.953077069E+00 -1.649008635E+00  1.355082060E+01  6.226474767E-07  0.00000E+00  9.000E+00
</event>
<event>
      5  10001  2.40292E+09  4.42046E+01 -1.00000E+00  1.42168E-01
      21    -1     0     0   513   514  0.000000000E+00  0.000000000E+00  7.798194981E+01  7.798194981E+01  0.000000000E+00  0.00000E+00  9.000E+00
       4    -1     0     0   514     0  0.000000000E+00  0.000000000E+00 -1.158087195E+01  1.158087195E+01  0.000000000E+00  0.00000E+00  9.000E+00
      21     1     1     2   513   511 -1.636323574E+01  4.481193924E+00  4.865300837E+01  5.152622445E+01  0.000000000E+00  0.00000E+00  9.000E+00
      21     1     1     2   511   515  5.397726421E+00  9.094215746E+00  1.758563004E+01  2.052058953E+01  2.384185791E-07  0.00000E+00  9.000E+00
       4     1     1     2   515     0  1.096550932E+01 -1.357540967E+01  1.624394452E-01  1.751600779E+01  1.500000000E+00  0.00000E+00  9.000E+00
</event>
<event>
      5  10001  2.40292E+09  8.87843E+00 -1.00000E+00  2.01863E-01
      21    -1     0     0   512   513  0.000000000E+00  0.000000000E+00  2.294304365E+02  2.294304365E+02  0.000000000E+00  0.00000E+00  9.000E+00
      21    -1     0     0   514   516  0.000000000E+00  0.000000000E+00 -1.517110346E+01  1.517110346E+01  0.000000000E+00  0.00000E+00  9.000E+00
      21     1     1     2   512   516 -9.419428347E+00  1.231450245E+00  1.121468331E+02  1.125484531E+02  2.336015456E-06  0.00000E+00  9.000E+00
      21     1     1     2   514   511  1.010844821E+01  7.620206272E+00 -1.209073274E+01  1.750525884E+01  2.384185791E-07  0.00000E+00  9.000E+00
      21     1     1     2   511   513 -6.890198653E-01 -8.851656517E+00  1.142032326E+02  1.145478280E+02  1.348699152E-06  0.00000E+00  9.000E+00
</event>
<event>
      5  10001  2.40292E+09  6.46585E+00 -1.00000E+00  2.20469E-01
      21    -1     0     0   515   514  0.000000000E+00  0.000000000E+00  7.933422348E+01  7.933422348E+01  0.000000000E+00  0.00000E+00  9.000E+00
      21    -1     0     0   513   515  0.000000000E+00  0.000000000E+00 -3.105985325E+01  3.105985325E+01  0.000000000E+00  0.00000E+00  9.000E+00
      21     1     1     2   513   517 -5.367779272E+00  1.250339770E+01 -2.707560110E+01  3.030241217E+01  6.743495762E-07  0.00000E+00  9.000E+00
      21     1     1     2   517   512  8.633491944E+00 -1.384808007E+01  7.474847240E+01  7.650908855E+01  9.536743164E-07  0.00000E+00  9.000E+00
      21     1     1     2   512   514 -3.265712672E+00  1.344682372E+00  6.014989311E-01  3.582576015E+00  3.725290298E-08  0.00000E+00  9.000E+00
</event>
<event>
      5  10001  2.40292E+09  1.55628E+01 -1.00000E+00  1.75843E-01
      -1    -1     0     0     0   511  0.000000000E+00  0.000000000E+00  5.591781966E+01  5.591781966E+01  0.000000000E+00  0.00000E+00  9.000E+00
      21    -1     0     0   512   514  0.000000000E+00  0.000000000E+00 -1.418998639E+01  1.418998639E+01  0.000000000E+00  0.00000E+00  9.000E+00
      -1     1     1     2     0   514 -2.272229141E+00 -1.366635480E+01  4.957645981E+01  5.147685447E+01  3.300000131E-01  0.00000E+00  9.000E+00
      21     1     1     2   513   511  8.451979789E-02  7.120748713E+00  1.230208724E+00  7.226729505E+00  1.349357536E-07  0.00000E+00  9.000E+00
      21     1     1     2   512   513  2.187709343E+00  6.545606090E+00 -9.078835265E+00  1.140422207E+01  1.685873940E-07  0.00000E+00  9.000E+00
</event>
<event>
      5  10001  2.40292E+09  9.22301E+00 -1.00000E+00  1.99846E-01
      -1    -1     0     0     0   515  0.000000000E+00  0.000000000E+00  1.472338180E+02  1.472338180E+02  0.000000000E+00  0.00000E+00  9.000E+00
      21    -1     0     0   511   513  0.000000000E+00  0.000000000E+00 -5.543595871E+00  5.543595871E+00  0.000000000E+00  0.00000E+00  9.000E+00
      -1     1     1     2     0   514  1.774956002E+01  5.260087413E+00  1.182627729E+02  1.197034158E+02  3.300000131E-01  0.00000E+00  9.000E+00
      21     1     1     2   511   515 -1.252743682E+01 -6.107872251E+00  6.574120087E+00  1.540979662E+01  3.576278687E-07  0.00000E+00  9.000E+00
      21     1     1     2   514   513 -5.222123193E+00  8.477848380E-01  1.685332914E+01  1.766420145E+01  3.371747881E-07  0.00000E+00  9.000E+00
</event>
<event>
      5  10001  2.40292E+09  6.09580E+00 -1.00000E+00  2.24331E-01
      21    -1     0     0   515   511  0.000000000E+00  0.000000000E+00  1.665309568E+01  1.665309568E+01  0.000000000E+00  0.00000E+00  9.000E+00
       3    -1     0     0   514     0  0.000000000E+00  0.000000000E+00 -2.865890640E+02  2.865890640E+02  0.000000000E+00  0.00000E+00  9.000E+00
      21     1     1     2   514   511  1.109097433E+01  1.030835512E+00  1.987280373E+00  1.131466379E+01  2.881747425E-07  0.00000E+00  9.000E+00
       3     1     1     2   512     0 -1.646546849E+01 -3.907050138E+00 -2.807172929E+02  2.812273551E+02  5.000000000E-01  0.00000E+00  9.000E+00
      21     1     1     2   515   512  5.374494157E+00  2.876214626E+00  8.794044276E+00  1.070014078E+01  5.196212463E-07  0.00000E+00  9.000E+00
</event>
<event>
      5  10001  2.40292E+09  3.27020E+01 -1.00000E+00  1.50449E-01
      21    -1     0     0   513   511  0.000000000E+00  0.000000000E+00  1.425031567E+02  1.425031567E+02  0.000000000E+00  0.00000E+00  9.000E+00
      21    -1     0     0   516   513  0.000000000E+00  0.000000000E+00 -5.729134880E+00  5.729134880E+00  0.000000000E+00  0.00000E+00  9.000E+00
      21     1     1     2   516   514  8.321281672E+00  1.699792122E+00  1.943593255E+00  8.712667597E+00  2.589545726E-07  0.00000E+00  9.000E+00
      21     1     1     2   517   511 -9.266489419E+00  1.571288520E+01  7.603846890E+01  7.819598033E+01  9.536743164E-07  0.00000E+00  9.000E+00
      21     1     1     2   514   517  9.452077477E-01 -1.741267732E+01  5.879195964E+01  6.132364362E+01  6.743495762E-07  0.00000E+00  9.000E+00
</event>
<event>
      5  10001  2.40292E+09  2.22061E+00 -1.00000E+00  3.42926E-01
      21    -1     0     0   512   511  0.000000000E+00  0.000000000E+00  4.895767430E+02  4.895767430E+02  0.000000000E+00  0.00000E+00  9.000E+00
      21    -1     0     0   515   512  0.000000000E+00  0.000000000E+00 -7.165596480E-01  7.165596480E-01  0.000000000E+00  0.00000E+00  9.000E+00
      21     1     1     2   517   511  7.706211502E+00  1.092960742E+01  4.142231347E+02  4.144389549E+02  0.000000000E+00  0.00000E+00  9.000E+00
      21     1     1     2   513   517 -2.665917601E+00 -5.473243089E+00  3.163940344E+01  3.221979759E+01  6.743495762E-07  0.00000E+00  9.000E+00
      21     1     1     2   515   513 -5.040293902E+00 -5.456364327E+00  4.299764519E+01  4.363455014E+01  1.348699152E-06  0.00000E+00  9.000E+00
</event>
<event>
      5  10001  2.40292E+09  6.63025E+00 -1.00000E+00  2.18866E-01
      21    -1     0     0   512   513  0.000000000E+00  0.000000000E+00  3.678642888E+02  3.678642888E+02  0.000000000E+00  0.00000E+00  9.000E+00
      21    -1     0     0   511   516  0.000000000E+00  0.000000000E+00 -1.092089983E+02  1.092089983E+02  0.000000000E+00  0.00000E+00  9.000E+00
      21     1     1     2   514   516  7.926583664E+00 -3.176925072E+00 -1.077187645E+02  1.080567249E+02  1.907348633E-06  0.00000E+00  9.000E+00
      21     1     1     2   511   513 -1.415370978E+01  9.002714876E-01  3.775859941E+01  4.033422639E+01  1.261592536E-06  0.00000E+00  9.000E+00
      21     1     1     2   512   514  6.227126112E+00  2.276653585E+00  3.286154555E+02  3.286823358E+02  5.394796609E-06  0.00000E+00  9.000E+00
</event>
<event>
      5  10001  2.40292E+09  7.63376E+00 -1.00000E+00  2.10300E-01
      21    -1     0     0   515   513  0.000000000E+00  0.000000000E+00  1.626047128E+01  1.626047128E+01  0.000000000E+00  0.00000E+00  9.000E+00
      21    -1     0     0   517   515  0.000000000E+00  0.000000000E+00 -1.981726334E+01  1.981726334E+01  0.000000000E+00  0.00000E+00  9.000E+00
      21     1     1     2   511   513 -1.027068904E+01  9.364312170E+00  8.867210638E+00  1.648650419E+01  3.153981341E-07  0.00000E+00  9.000E+00
      21     1     1     2   517   516  1.816665624E+00 -3.237453721E+00 -6.762112646E+00  7.714113560E+00  8.429369702E-08  0.00000E+00  9.000E+00
      21     1     1     2   516   511  8.454023419E+00 -6.126858449E+00 -5.661890049E+00  1.187711688E+01  1.884864366E-07  0.00000E+00  9.000E+00
</event>
<event>
      5  10001  2.40292E+09  6.53368E+00 -1.00000E+00  2.19800E-01
      21    -1     0     0   512   514  0.000000000E+00  0.000000000E+00  2.051498265E+02  2.051498265E+02  0.000000000E+00  0.00000E+00  9.000E+00
      21    -1     0     0   513   511  0.000000000E+00  0.000000000E+00 -1.093515248E+00  1.093515248E+00  0.000000000E+00  0.00000E+00  9.000E+00
      21     1     1     2   512   511  9.914921801E+00 -4.887238015E+00  1.260907040E+02  1.265743117E+02  1.348699152E-06  0.00000E+00  9.000E+00
      21     1     1     2   513   515 -8.306645871E+00  8.436014746E+00  4.740390136E+01  4.885996904E+01  6.743495762E-07  0.00000E+00  9.000E+00
      21     1     1     2   515   514 -1.608275930E+00 -3.548776731E+00  3.056170595E+01  3.080906098E+01  5.840038640E-07  0.00000E+00  9.000E+00
</event>
<event>
      5  10001  2.40292E+09  1.04600E+01 -1.00000E+00  1.93469E-01
      21    -1     0     0   516   511  0.000000000E+00  0.000000000E+00  7.245635847E+00  7.245635847E+00  0.000000000E+00  0.00000E+00  9.000E+00
      21    -1     0     0   517   514  0.000000000E+00  0.000000000E+00 -1.695172797E+02  1.695172797E+02  0.000000000E+00  0.00000E+00  9.000E+00
      21     1     1     2   516   514  4.025383730E+00 -9.272267338E+00  2.535771434E+00  1.042155423E+01  6.419616708E-07  0.00000E+00  9.000E+00
      21     1     1     2   512   511 -1.005079938E+01  4.697955797E+00 -1.391586199E+02  1.396001821E+02  1.907348633E-06  0.00000E+00  9.000E+00
      21     1     1     2   517   512  6.025415653E+00  4.574311541E+00 -2.564879535E+01  2.674117916E+01  0.000000000E+00  0.00000E+00  9.000E+00
</event>
<event>
      5  10001  2.40292E+09  3.12071E+00 -1.00000E+00  2.91630E-01
      21    -1     0     0   513   514  0.000000000E+00  0.000000000E+00  3.675433220E+00  3.675433220E+00  0.000000000E+00  0.00000E+00  9.000E+00
       2    -1     0     0   512     0  0.000000000E+00  0.000000000E+00 -3.161949780E+02  3.161949780E+02  0.000000000E+00  0.00000E+00  9.000E+00
      21     1     1     2   512   511  1.699367064E+01  2.749862108E+00 -1.660475909E+02  1.669375602E+02  3.814697266E-06  0.00000E+00  9.000E+00
       2     1     1     2   513     0 -2.006387779E+01 -3.308394562E+00 -1.480469485E+02  1.494373198E+02  3.300000131E-01  0.00000E+00  9.000E+00
      21     1     1     2   511   514  3.070207157E+00  5.585324537E-01  1.574994623E+00  3.495531226E+00  3.146933329E-07  0.00000E+00  9.000E+00
</event>
<event>
      5  10001  2.40292E+09  2.70372E+01 -1.00000E+00  1.56208E-01
      21    -1     0     0   515   514  0.000000000E+00  0.000000000E+00  4.859132694E-01  4.859132694E-01  0.000000000E+00  0.00000E+00  9.000E+00
       1    -1     0     0   511     0  0.000000000E+00  0.000000000E+00 -8.087215062E+02  8.087215062E+02  0.000000000E+00  0.00000E+00  9.000E+00
      21     1     1     2   512   514  7.757098165E+00  1.198672928E+01 -2.201935595E+02  2.206559718E+02  0.000000000E+00  0.00000E+00  9.000E+00
       1     1     1     2   515     0  3.974634366E+00 -8.787015346E+00 -1.341813266E+02  1.345278657E+02  3.300000131E-01  0.00000E+00  9.000E+00
      21     1     1     2   511   512 -1.173173253E+01 -3.199713930E+00 -4.538607068E+02  4.540235819E+02  0.000000000E+00  0.00000E+00  9.000E+00
</event>
<event>
      5  10001  2.40292E+09  4.23789E+00 -1.00000E+00  2.57592E-01
      -2    -1     0     0     0   513  0.000000000E+00  0.000000000E+00  4.443214300E+01  4.443214300E+01  0.000000000E+00  0.00000E+00  9.000E+00
      -3    -1     0     0     0   512  0.000000000E+00  0.000000000E+00 -1.652677781E+01  1.652677781E+01  0.000000000E+00  0.00000E+00  9.000E+00
      -3     1     1     2     0   513 -1.491242317E+00  9.155998850E+00 -1.323725020E+01  1.617191737E+01  5.000000000E-01  0.00000E+00  9.000E+00
      21     1     1     2   511   512  4.847690369E+00 -1.174198086E+01  2.434423994E+01  2.745935605E+01  5.840038640E-07  0.00000E+00  9.000E+00
      -2     1     1     2     0   511 -3.356448053E+00  2.585982008E+00  1.679837545E+01  1.732764740E+01  3.300000131E-01  0.00000E+00  9.000E+00
</event>
<event>
      5  10001  2.40292E+09  1.46124E+01 -1.00000E+00  1.78413E-01
      21    -1     0     0   511   512  0.000000000E+00  0.000000000E+00  1.338807169E+01  1.338807169E+01  0.000000000E+00  0.00000E+00  9.000E+00
      21    -1     0     0   514   511  0.000000000E+00  0.000000000E+00 -1.471836101E+01  1.471836101E+01  0.000000000E+00  0.00000E+00  9.000E+00
      -4     1     1     2     0   512  3.529735651E+00  8.139999538E+00 -1.132166391E+00  9.069202114E+00  1.500000000E+00  0.00000E+00  9.000E+00
      21     1     1     2   514   513  3.157089498E+00 -8.882709959E+00  4.745982430E+00  1.055434032E+01  2.528810911E-07  0.00000E+00  9.000E+00
       4     1     1     2   513     0 -6.686825149E+00  7.427104211E-01 -4.944105361E+00  8.482890260E+00  1.500000000E+00  0.00000E+00  9.000E+00
</event>
<event>
      5  10001  2.40292E+09  3.81082E+00 -1.00000E+00  2.68416E-01
      21    -1     0     0   515   514  0.000000000E+00  0.000000000E+00  6.024094932E+00  6.024094932E+00  0.000000000E+00  0.00000E+00  9.000E+00
      21    -1     0     0   512   516  0.000000000E+00  0.000000000E+00 -3.317746127E+01  3.317746127E+01  0.000000000E+00  0.00000E+00  9.000E+00
      21     1     1     2   515   516 -6.187028907E+00 -9.291853250E+00 -2.355483264E+01  2.606622344E+01  3.371747881E-07  0.00000E+00  9.000E+00
      21     1     1     2   512   511  5.119289090E+00  5.097212807E+00  4.101231524E-01  7.235806810E+00  1.762341883E-07  0.00000E+00  9.000E+00
      21     1     1     2   511   514  1.067739817E+00  4.194640444E+00 -4.008656849E+00  5.899525956E+00  0.000000000E+00  0.00000E+00  9.000E+00
</event>
<event>
      5  10001  2.40292E+09  5.54973E+00 -1.00000E+00  2.30783E-01
      21    -1     0     0   513   512  0.000000000E+00  0.000000000E+00  4.641362096E+01  4.641362096E+01  0.000000000E+00  0.00000E+00  9.000E+00
      21    -1     0     0   515   514  0.000000000E+00  0.000000000E+00 -1.655290600E+02  1.655290600E+02  0.000000000E+00  0.00000E+00  9.000E+00
      21     1     1     2   513   514  7.995070034E+00 -1.265351875E+01  4.340988839E+01  4.591787334E+01  4.768371582E-07  0.00000E+00  9.000E+00
      21     1     1     2   517   512 -3.626396400E+00  9.230926242E+00 -1.278063532E+01  1.617731094E+01  3.371747881E-07  0.00000E+00  9.000E+00
      21     1     1     2   515   517 -4.368673634E+00  3.422592504E+00 -1.497446921E+02  1.498474967E+02  1.907348633E-06  0.00000E+00  9.000E+00
</event>
<event>
      5  10001  2.40292E+09  8.64837E+00 -1.00000E+00  2.03278E-01
      21    -1     0     0   511   514  0.000000000E+00  0.000000000E+00  1.424213669E+01  1.424213669E+01  0.000000000E+00  0.00000E+00  9.000E+00
      21    -1     0     0   515   511  0.000000000E+00  0.000000000E+00 -1.597551209E+01  1.597551209E+01  0.000000000E+00  0.00000E+00  9.000E+00
      21     1     1     2   515   516 -8.193317106E+00 -2.337257079E+00 -9.088798495E+00  1.245790809E+01  0.000000000E+00  0.00000E+00  9.000E+00
      21     1     1     2   512   514  4.443670837E+00  3.105835685E+00  1.113240840E+01  1.238236418E+01  3.769728732E-07  0.00000E+00  9.000E+00
      21     1     1     2   516   512  3.749646269E+00 -7.685786057E-01 -3.776985300E+00  5.377376514E+00  5.960464478E-08  0.00000E+00  9.000E+00
</event>
<event>
      5  10001  2.40292E+09  1.61840E+01 -1.00000E+00  1.74285E-01
      21    -1     0     0   513   512  0.000000000E+00  0.000000000E+00  5.011545345E+01  5.011545345E+01  0.000000000E+00  0.00000E+00  9.000E+00
      21    -1     0     0   515   517  0.000000000E+00  0.000000000E+00 -5.906880595E+00  5.906880595E+00  0.000000000E+00  0.00000E+00  9.000E+00
      21     1     1     2   513   517 -7.534684714E-02  1.366643864E+01  8.318987688E+00  1.599946181E+01  2.384185791E-07  0.00000E+00  9.000E+00
      21     1     1     2   515   511  5.973435464E-01 -5.490400483E+00  3.331477507E+00  6.449810785E+00  8.429369702E-08  0.00000E+00  9.000E+00
      21     1     1     2   511   512 -5.219966992E-01 -8.176038155E+00  3.255810766E+01  3.357306145E+01  4.768371582E-07  0.00000E+00  9.000E+00
</event>
<event>
      5  10001  2.40292E+09  7.99204E+00 -1.00000E+00  2.07661E-01
       1    -1     0     0   513     0  0.000000000E+00  0.000000000E+00  5.676079714E+01  5.676079714E+01  0.000000000E+00  0.00000E+00  9.000E+00
      21    -1     0     0   515   513  0.000000000E+00  0.000000000E+00 -3.633200077E+01  3.633200077E+01  0.000000000E+00  0.00000E+00  9.000E+00
      21     1     1     2   514   511 -4.243501370E+00 -8.021294274E+00  1.520114027E+01  1.770376037E+01  6.078504936E-07  0.00000E+00  9.000E+00
       1     1     1     2   511     0  1.082304339E+01  1.255781490E+01  3.810386675E+01  4.155539128E+01  3.300000131E-01  0.00000E+00  9.000E+00
      21     1     1     2   515   514 -6.579542018E+00 -4.536520628E+00 -3.287621065E+01  3.383364626E+01  6.743495762E-07  0.00000E+00  9.000E+00
</event>
<event>
      5  10001  2.40292E+09  4.87966E+00 -1.00000E+00  2.44566E-01
       4    -1     0     0   511     0  0.000000000E+00  0.000000000E+00  9.172608232E+01  9.172608232E+01  0.000000000E+00  0.00000E+00  9.000E+00
      21    -1     0     0   512   516  0.000000000E+00  0.000000000E+00 -5.447150381E+00  5.447150381E+00  0.000000000E+00  0.00000E+00  9.000E+00
      21     1     1     2   511   513  6.132216419E+00 -6.480946877E+00  6.929454974E+01  6.986659698E+01  0.000000000E+00  0.00000E+00  9.000E+00
       4     1     1     2   512     0 -4.314969898E+00  1.099862439E+01  1.867727403E+01  2.215128143E+01  1.500000000E+00  0.00000E+00  9.000E+00
      21     1     1     2   513   516 -1.817246521E+00 -4.517677517E+00 -1.692891831E+00  5.155354287E+00  1.316034923E-07  0.00000E+00  9.000E+00
</event>
<event>
      5  10001  2.40292E+09  9.96668E+00 -1.00000E+00  1.95866E-01
      21    -1     0     0   514   512  0.000000000E+00  0.000000000E+00  4.174987944E+02  4.174987944E+02  0.000000000E+00  0.00000E+00  9.000E+00
      21    -1     0     0   513   515  0.000000000E+00  0.000000000E+00 -5.153465767E+00  5.153465767E+00  0.000000000E+00  0.00000E+00  9.000E+00
      21     1     1     2   514   515  1.288643721E+01 -8.293446002E+00  7.314082470E+00  1.698049802E+01  7.586432732E-07  0.00000E+00  9.000E+00
      21     1     1     2   513   511 -6.679425958E+00  3.939962743E-01  3.167601017E+02  3.168307623E+02  0.000000000E+00  0.00000E+00  9.000E+00
      21     1     1     2   511   512 -6.207011249E+00  7.899449728E+00  8.827114446E+01  8.884099976E+01  0.000000000E+00  0.00000E+00  9.000E+00
</event>
<event>
      5  10001  2.40292E+09  6.35720E+00 -1.00000E+00  2.21565E-01
       2    -1     0     0   514     0  0.000000000E+00  0.000000000E+00  1.418243661E+02  1.418243661E+02  0.000000000E+00  0.00000E+00  9.000E+00
      21    -1     0     0   516   514  0.000000000E+00  0.000000000E+00 -3.736947457E+00  3.736947457E+00  0.000000000E+00  0.00000E+00  9.000E+00
      21     1     1     2   516   511  9.157236640E+00 -2.552443273E+00  3.693086701E+00  1.019847238E+01  1.332800375E-07  0.00000E+00  9.000E+00
       2     1     1     2   513     0 -9.398925643E+00 -2.035774954E+00  1.161853262E+02  1.165831167E+02  3.300000131E-01  0.00000E+00  9.000E+00
      21     1     1     2   511   513  2.416890026E-01  4.588218227E+00  1.820900579E+01  1.877972449E+01  4.129530925E-07  0.00000E+00  9.000E+00
</event>
<event>
      5  10001  2.40292E+09  8.71000E+00 -1.00000E+00  2.02894E-01
      21    -1     0     0   514   512  0.000000000E+00  0.000000000E+00  2.368195303E+01  2.368195303E+01  0.000000000E+00  0.00000E+00  9.000E+00
      21    -1     0     0   515   513  0.000000000E+00  0.000000000E+00 -4.516576451E+02  4.516576451E+02  0.000000000E+00  0.00000E+00  9.000E+00
      -2     1     1     2     0   513  1.285077621E+01  1.738830455E+00  3.319013702E+00  1.338994894E+01  3.300000131E-01  0.00000E+00  9.000E+00
      21     1     1     2   515   512 -8.809271633E+00 -9.454316777E+00 -4.452816813E+02  4.454691494E+02  0.000000000E+00  0.00000E+00  9.000E+00
       2     1     1     2   514     0 -4.041504577E+00  7.715486322E+00  1.398697553E+01  1.648049978E+01  3.300000131E-01  0.00000E+00  9.000E+00
</event>
<event>
      5  10001  2.40292E+09  1.39701E+01 -1.00000E+00  1.80295E-01
      21    -1     0     0   511   512  0.000000000E+00  0.000000000E+00  4.372669876E+02  4.372669876E+02  0.000000000E+00  0.00000E+00  9.000E+00
      21    -1     0     0   517   516  0.000000000E+00  0.000000000E+00 -7.531663254E+00  7.531663254E+00  0.000000000E+00  0.00000E+00  9.000E+00
      21     1     1     2   511   516  3.134495825E+01 -1.078091428E+01  7.160840900E+01  7.890816662E+01  9.536743164E-07  0.00000E+00  9.000E+00
      21     1     1     2   517   513 -1.811254355E+01  6.301249193E+00  2.086493731E+01  2.833929400E+01  5.840038640E-07  0.00000E+00  9.000E+00
      21     1     1     2   513   512 -1.323241470E+01  4.479665086E+00  3.372619780E+02  3.375511902E+02  7.629394531E-06  0.00000E+00  9.000E+00
</event>
<event>
      5  10001  2.40292E+09  7.65294E+00 -1.00000E+00  2.10154E-01
      -1    -1     0     0     0   512  0.000000000E+00  0.000000000E+00  9.620816789E-01  9.620816789E-01  0.000000000E+00  0.00000E+00  9.000E+00
      21    -1     0     0   511   513  0.000000000E+00  0.000000000E+00 -1.475819884E+02  1.475819884E+02  0.000000000E+00  0.00000E+00  9.000E+00
      21     1     1     2   514   513  2.268528937E+00 -3.017859210E+00 -3.567356087E+01  3.587278415E+01  4.768371582E-07  0.00000E+00  9.000E+00
      21     1     1     2   511   512 -8.947367094E+00  6.650070048E+00 -8.143894409E+01  8.219842105E+01  1.651812370E-06  0.00000E+00  9.000E+00
      -1     1     1     2     0   514  6.678838157E+00 -3.632210838E+00 -2.950740177E+01  3.047286488E+01  3.300000131E-01  0.00000E+00  9.000E+00
</event>
<event>
      5  10001  2.40292E+09  1.03229E+01 -1.00000E+00  1.94118E-01
      21    -1     0     0   513   511  0.000000000E+00  0.000000000E+00  1.175157949E+01  1.175157949E+01  0.000000000E+00  0.00000E+00  9.000E+00
       1    -1     0     0   512     0  0.000000000E+00  0.000000000E+00 -4.167561666E+02  4.167561666E+02  0.000000000E+00  0.00000E+00  9.000E+00
      21     1     1     2   512   511 -9.096195033E+00  1.540297994E+01 -3.740974088E+01  4.146662837E+01  1.066240300E-06  0.00000E+00  9.000E+00
       1     1     1     2   515     0  1.925420850E+01 -1.356557921E+01 -3.740991448E+02  3.748400039E+02  3.300000131E-01  0.00000E+00  9.000E+00
      21     1     1     2   513   515 -1.015801346E+01 -1.837400726E+00  6.504298560E+00  1.220111383E+01  7.539457465E-07  0.00000E+00  9.000E+00
</event>
<event>
      5  10001 -2.40292E+09  1.45784E+01 -1.00000E+00  1.78510E-01
      21    -1     0     0   514   511  0.000000000E+00  0.000000000E+00  4.976220762E+02  4.976220762E+02  0.000000000E+00  0.00000E+00  9.000E+00
      21    -1     0     0   517   514  0.000000000E+00  0.000000000E+00 -1.853046516E+01  1.853046516E+01  0.000000000E+00  0.00000E+00  9.000E+00
      21     1     1     2   516   512  5.544974431E+00  1.393202881E+01 -7.415021339E+00  1.672814125E+01  1.636687543E-06  0.00000E+00  9.000E+00
      21     1     1     2   512   511 -1.058153729E+01 -2.512939871E-01  4.846072162E+02  4.847227930E+02  5.394796609E-06  0.00000E+00  9.000E+00
      21     1     1     2   517   516  5.036562862E+00 -1.368073482E+01  1.899416223E+00  1.470160715E+01  2.827296549E-07  0.00000E+00  9.000E+00
</event>
<event>
      5  10001  2.40292E+09  5.53080E+00 -1.00000E+00  2.31025E-01
       1    -1     0     0   512     0  0.000000000E+00  0.000000000E+00  1.874584496E+02  1.874584496E+02  0.000000000E+00  0.00000E+00  9.000E+00
      21    -1     0     0   513   514  0.000000000E+00  0.000000000E+00 -2.936864948E+00  2.936864948E+00  0.000000000E+00  0.00000E+00  9.000E+00
      21     1     1     2   512   514 -6.221894504E+00  8.172714381E+00  6.825900072E+00  1.233280760E+01  2.230201594E-07  0.00000E+00  9.000E+00
       1     1     1     2   511     0  4.461698140E+00 -5.082205982E+00  7.492944964E+01  7.523474524E+01  3.300000131E-01  0.00000E+00  9.000E+00
      21     1     1     2   513   511  1.760196364E+00 -3.090508399E+00  1.027662350E+02  1.028277617E+02  1.348699152E-06  0.00000E+00  9.000E+00
</event>
<event>
      5  10001  2.40292E+09  4.00202E+00 -1.00000E+00  2.63310E-01
      21    -1     0     0   515   512  0.000000000E+00  0.000000000E+00  8.846765024E+01  8.846765024E+01  0.000000000E+00  0.00000E+00  9.000E+00
      21    -1     0     0   513   516  0.000000000E+00  0.000000000E+00 -4.252946324E+00  4.252946324E+00  0.000000000E+00  0.00000E+00  9.000E+00
      21     1     1     2   515   516 -1.603635204E+01 -1.313236796E+00  3.837494391E+01  4.161160292E+01  6.743495762E-07  0.00000E+00  9.000E+00
      21     1     1     2   513   511  1.225478219E+01  3.305077266E-03  1.241157986E+01  1.744210457E+01  2.920019320E-07  0.00000E+00  9.000E+00
      21     1     1     2   511   512  3.781569849E+00  1.309931719E+00  3.342818015E+01  3.366688907E+01  4.768371582E-07  0.00000E+00  9.000E+00
</event>
<event>
      5  10001  2.40292E+09  6.89767E+00 -1.00000E+00  2.16390E-01
       1    -1     0     0   513     0  0.000000000E+00  0.000000000E+00  2.867465049E+02  2.867465049E+02  0.000000000E+00  0.00000E+00  9.000E+00
      21    -1     0     0   514   515  0.000000000E+00  0.000000000E+00 -1.808161636E+01  1.808161636E+01  0.000000000E+00  0.00000E+00  9.000E+00
      21     1     1     2   514   511  1.202901403E+01  3.270184501E+00 -1.526323149E+01  1.970678869E+01  8.920806376E-07  0.00000E+00  9.000E+00
       1     1     1     2   511     0 -1.888610922E+01 -2.523579308E+00  1.967396399E+02  1.976604371E+02  3.300000131E-01  0.00000E+00  9.000E+00
      21     1     1     2   513   515  6.857095192E+00 -7.466051925E-01  8.718848004E+01  8.746089541E+01  1.348699152E-06  0.00000E+00  9.000E+00
</event>
<event>
      5  10001  2.40292E+09  1.11881E+01 -1.00000E+00  1.90230E-01
      21    -1     0     0   517   511  0.000000000E+00  0.000000000E+00  7.880324534E+00  7.880324534E+00  0.000000000E+00  0.00000E+00  9.000E+00
      21    -1     0     0   514   516  0.000000000E+00  0.000000000E+00 -2.856838042E+02  2.856838042E+02  0.000000000E+00  0.00000E+00  9.000E+00
      21     1     1     2   512   516 -3.116626742E+01 -6.586474806E+00 -1.874109279E+02  1.900988526E+02  0.000000000E+00  0.00000E+00  9.000E+00
      21     1     1     2   514   511  2.176673098E+01  1.265452171E+01 -8.863292971E+01  9.213969680E+01  0.000000000E+00  0.00000E+00  9.000E+00
      21     1     1     2   517   512  9.399536441E+00 -6.068046901E+00 -1.759622146E+00  1.132557939E+01  1.365713982E-07  0.00000E+00  9.000E+00
</event>
<event>
      5  10001  2.40292E+09  2.92701E+00 -1.00000E+00  3.00010E-01
      21    -1     0     0   513   514  0.000000000E+00  0.000000000E+00  2.212528223E+02  2.212528223E+02  0.000000000E+00  0.00000E+00  9.000E+00
      21    -1     0     0   515   511  0.000000000E+00  0.000000000E+00 -5.308324211E+00  5.308324211E+00  0.000000000E+00  0.00000E+00  9.000E+00
      21     1     1     2   513   512 -1.503644068E+01 -8.060382808E-01  2.028892222E+02  2.034472431E+02  0.000000000E+00  0.00000E+00  9.000E+00
      21     1     1     2   515   514  1.527995456E+01  3.722901262E+00  1.259967901E+01  2.015164798E+01  7.152557373E-07  0.00000E+00  9.000E+00
      21     1     1     2   512   511 -2.435138757E-01 -2.916862981E+00  4.555968815E-01  2.962255420E+00  3.161013638E-08  0.00000E+00  9.000E+00
</event>
<event>
      5  10001  2.40292E+09  6.81952E+00 -1.00000E+00  2.17097E-01
      21    -1     0     0   516   514  0.000000000E+00  0.000000000E+00  1.179889985E+01  1.179889985E+01  0.000000000E+00  0.00000E+00  9.000E+00
       3    -1     0     0   512     0  0.000000000E+00  0.000000000E+00 -2.263426189E+01  2.263426189E+01  0.000000000E+00  0.00000E+00  9.000E+00
      21     1     1     2   513   514  4.371432586E+00 -8.394222492E-01 -5.686975454E+00  7.221893268E+00  1.460009660E-07  0.00000E+00  9.000E+00
       3     1     1     2   516     0 -1.504280531E+01 -1.204457461E+00  2.007753237E-01  1.510056357E+01  5.000000000E-01  0.00000E+00  9.000E+00
      21     1     1     2   512   513  1.067137272E+01  2.043879710E+00 -5.349161910E+00  1.211070490E+01  1.332800375E-07  0.00000E+00  9.000E+00
</event>
<event>
      5  10001  2.40292E+09  8.33583E+00 -1.00000E+00  2.05298E-01
      -2    -1     0     0     0   511  0.000000000E+00  0.000000000E+00  4.923648054E+01  4.923648054E+01  0.000000000E+00  0.00000E+00  9.000E+00
      21    -1     0     0   511   513  0.000000000E+00  0.000000000E+00 -9.034292446E+00  9.034292446E+00  0.000000000E+00  0.00000E+00  9.000E+00
      21     1     1     2   514   512 -3.463673747E+00  3.133532050E+00  1.613522384E+01  1.679766374E+01  2.384185791E-07  0.00000E+00  9.000E+00
      21     1     1     2   512   513  1.303156864E+01 -1.186217813E+00 -2.361399477E+00  1.329680794E+01  4.097141947E-07  0.00000E+00  9.000E+00
      -2     1     1     2     0   514 -9.567894893E+00 -1.947314238E+00  2.642836373E+01  2.817630130E+01  3.300000131E-01  0.00000E+00  9.000E+00
</event>
<event>
      5  10001  2.40292E+09  5.04893E+00 -1.00000E+00  2.37692E-01
      21    -1     0     0   515   513  0.000000000E+00  0.000000000E+00  2.405556218E+02  2.405556218E+02  0.000000000E+00  0.00000E+00  9.000E+00
      21    -1     0     0   511   515  0.000000000E+00  0.000000000E+00 -8.668011400E+00  8.668011400E+00  0.000000000E+00  0.00000E+00  9.000E+00
      21     1     1     2   511   514 -8.115363167E+00 -6.033951022E+00  8.843261660E+00  1.343394808E+01  1.685873940E-07  0.00000E+00  9.000E+00
      21     1     1     2   514   512  1.174002334E+01  2.519186719E+00 -6.628209364E-01  1.202554703E+01  2.757721472E-07  0.00000E+00  9.000E+00
      21     1     1     2   512   513 -3.624660174E+00  3.514764303E+00  2.237071697E+02  2.237641381E+02  0.000000000E+00  0.00000E+00  9.000E+00
</event>
<event>
      5  10001  2.40292E+09  5.65075E+00 -1.00000E+00  2.29513E-01
      21    -1     0     0   516   514  0.000000000E+00  0.000000000E+00  2.297639474E+01  2.297639474E+01  0.000000000E+00  0.00000E+00  9.000E+00
      21    -1     0     0   511   513  0.000000000E+00  0.000000000E+00 -8.365360428E+01  8.365360428E+01  0.000000000E+00  0.00000E+00  9.000E+00
      21     1     1     2   516   513 -9.732314940E+00  2.501444779E+00 -8.093789827E+01  8.155929473E+01  9.536743164E-07  0.00000E+00  9.000E+00
      -5     1     1     2     0   514  2.477075500E+00  5.916673871E-01  8.946781892E+00  1.046761106E+01  4.800000191E+00  0.00000E+00  9.000E+00
       5     1     1     2   511     0  7.255239440E+00 -3.093112166E+00  1.131390684E+01  1.460309324E+01  4.800000191E+00  0.00000E+00  9.000E+00
</event>
<event>
      5  10001  2.40292E+09  2.07518E+01 -1.00000E+00  1.65017E-01
      -4    -1     0     0     0   512  0.000000000E+00  0.000000000E+00  1.718555546E+01  1.718555546E+01  0.000000000E+00  0.00000E+00  9.000E+00
      -3    -1     0     0     0   514  0.000000000E+00  0.000000000E+00 -3.287711799E+01  3.287711799E+01  0.000000000E+00  0.00000E+00  9.000E+00
      21     1     1     2   513   514  5.225472249E+00 -7.875182695E+00 -3.628342559E+00  1.012368176E+01  1.737759082E-07  0.00000E+00  9.000E+00
      -3     1     1     2     0   512 -9.199667133E-01  1.643925704E+01 -2.103985617E+01  2.672117247E+01  5.000000000E-01  0.00000E+00  9.000E+00
      -4     1     1     2     0   513 -4.305505536E+00 -8.564074345E+00  8.976636201E+00  1.321781921E+01  1.500000000E+00  0.00000E+00  9.000E+00
</event>
<event>
      5  10001  2.40292E+09  4.72220E+00 -1.00000E+00  2.47471E-01
      21    -1     0     0   512   514  0.000000000E+00  0.000000000E+00  3.482946178E+01  3.482946178E+01  0.000000000E+00  0.00000E+00  9.000E+00
      21    -1     0     0   515   513  0.000000000E+00  0.000000000E+00 -7.378830846E+00  7.378830846E+00  0.000000000E+00  0.00000E+00  9.000E+00
      21     1     1     2   511   513 -2.390223526E+00 -1.096090560E+01  6.651183979E+00  1.304196567E+01  3.862822472E-07  0.00000E+00  9.000E+00
      21     1     1     2   515   514  5.268706712E-01  1.529992601E+01  1.317347905E+01  2.019667989E+01  1.685873940E-07  0.00000E+00  9.000E+00
      21     1     1     2   512   511  1.863352854E+00 -4.339020404E+00  7.625967906E+00  8.969647062E+00  8.429369702E-08  0.00000E+00  9.000E+00
</event>
<event>
      5  10001  2.40292E+09  4.90575E+00 -1.00000E+00  2.44101E-01
      21    -1     0     0   514   513  0.000000000E+00  0.000000000E+00  3.779842648E+01  3.779842648E+01  0.000000000E+00  0.00000E+00  9.000E+00
      21    -1     0     0   517   511  0.000000000E+00  0.000000000E+00 -8.926356747E+00  8.926356747E+00  0.000000000E+00  0.00000E+00  9.000E+00
      21     1     1     2   516   511 -8.240860294E+00 -3.574212018E+00 -1.372910029E+00  9.086894513E+00  2.235174179E-07  0.00000E+00  9.000E+00
      21     1     1     2   517   513  1.311209482E+01  4.155080769E+00  1.053244351E+01  1.732408996E+01  4.129530925E-07  0.00000E+00  9.000E+00
      21     1     1     2   514   516 -4.871234522E+00 -5.808687513E-01  1.971253626E+01  2.031379876E+01  0.000000000E+00  0.00000E+00  9.000E+00
</event>
<event>
      5  10001  2.40292E+09  1.24534E+01 -1.00000E+00  1.85298E-01
      21    -1     0     0   512   511  0.000000000E+00  0.000000000E+00  5.269063189E+01  5.269063189E+01  0.000000000E+00  0.00000E+00  9.000E+00
      21    -1     0     0   516   515  0.000000000E+00  0.000000000E+00 -2.092935111E+00  2.092935111E+00  0.000000000E+00  0.00000E+00  9.000E+00
      21     1     1     2   512   515 -7.107435810E+00 -8.097290355E-01  1.343095505E+01  1.521715672E+01  0.000000000E+00  0.00000E+00  9.000E+00
      21     1     1     2   516   513  2.132232770E+00 -3.688317095E+00  2.733378462E+01  2.766380092E+01  0.000000000E+00  0.00000E+00  9.000E+00
      21     1     1     2   513   511  4.975203040E+00  4.498046131E+00  9.832957107E+00  1.190260937E+01  2.665600750E-07  0.00000E+00  9.000E+00
</event>
<event>
      5  10001  2.40292E+09  4.66957E+00 -1.00000E+00  2.48480E-01
      21    -1     0     0   514   512  0.000000000E+00  0.000000000E+00  5.233695204E+01  5.233695204E+01  0.000000000E+00  0.00000E+00  9.000E+00
      21    -1     0     0   517   511  0.000000000E+00  0.000000000E+00 -2.028963701E+01  2.028963701E+01  0.000000000E+00  0.00000E+00  9.000E+00
      21     1     1     2   514   511 -2.936733250E+00  1.367511917E+01  4.092595808E+01  4.325005585E+01  0.000000000E+00  0.00000E+00  9.000E+00
      21     1     1     2   517   515  2.517587293E+00 -9.024403717E+00 -1.734169068E+01  1.971071648E+01  4.129530925E-07  0.00000E+00  9.000E+00
      21     1     1     2   515   512  4.191459568E-01 -4.650715450E+00  8.463047639E+00  9.665816720E+00  0.000000000E+00  0.00000E+00  9.000E+00
</event>
<event>
      5  10001  2.40292E+09  3.59292E+00 -1.00000E+00  2.74841E-01
      21    -1     0     0   513   511  0.000000000E+00  0.000000000E+00  2.445161758E+01  2.445161758E+01  0.000000000E+00  0.00000E+00  9.000E+00
      21    -1     0     0   516   512  0.000000000E+00  0.000000000E+00 -2.587002070E+01  2.587002070E+01  0.000000000E+00  0.00000E+00  9.000E+00
      21     1     1     2   513   512  1.149108453E+01 -7.691542251E+00 -2.131428698E+01  2.540676437E+01  2.384185791E-07  0.00000E+00  9.000E+00
      21     1     1     2   516   514 -1.056936971E+01  4.363176967E+00  1.393638990E+01  1.802697570E+01  4.460403188E-07  0.00000E+00  9.000E+00
      21     1     1     2   514   511 -9.217148179E-01  3.328365284E+00  5.959493953E+00  6.887898217E+00  8.429369702E-08  0.00000E+00  9.000E+00
</event>
<event>
      5  10001  2.40292E+09  9.74923E+00 -1.00000E+00  1.96982E-01
      21    -1     0     0   515   512  0.000000000E+00  0.000000000E+00  4.885581685E+01  4.885581685E+01  0.000000000E+00  0.00000E+00  9.000E+00
      21    -1     0     0   517   511  0.000000000E+00  0.000000000E+00 -2.983359537E+00  2.983359537E+00  0.000000000E+00  0.00000E+00  9.000E+00
      21     1     1     2   515   511  3.086137590E+00 -9.956014895E+00  2.729748013E+01  2.921983743E+01  0.000000000E+00  0.00000E+00  9.000E+00
      21     1     1     2   517   513 -4.423609723E+00  2.387182863E+00  9.318359409E+00  1.058767147E+01  2.665600750E-07  0.00000E+00  9.000E+00
      21     1     1     2   513   512  1.337472133E+00  7.568832032E+00  9.256617770E+00  1.203166749E+01  0.000000000E+00  0.00000E+00  9.000E+00
</event>
<event>
      5  10001  2.40292E+09  5.57890E+00 -1.00000E+00  2.30412E-01
      21    -1     0     0   514   513  0.000000000E+00  0.000000000E+00  2.988535182E+00  2.988535182E+00  0.000000000E+00  0.00000E+00  9.000E+00
      21    -1     0     0   512   514  0.000000000E+00  0.000000000E+00 -1.373168041E+02  1.373168041E+02  0.000000000E+00  0.00000E+00  9.000E+00
      21     1     1     2   516   513  5.031873173E+00  1.657331233E+01 -3.271605164E+01  3.701802891E+01  0.000000000E+00  0.00000E+00  9.000E+00
      21     1     1     2   512   511 -3.296404747E+00 -8.117446921E+00 -6.892122541E+01  6.947585581E+01  9.536743164E-07  0.00000E+00  9.000E+00
      21     1     1     2   511   516 -1.735468426E+00 -8.455865410E+00 -3.269099190E+01  3.381145459E+01  4.768371582E-07  0.00000E+00  9.000E+00
</event>
<event>
      5  10001  2.40292E+09  3.35352E+00 -1.00000E+00  2.82794E-01
      21    -1     0     0   515   512  0.000000000E+00  0.000000000E+00  1.031796312E+02  1.031796312E+02  0.000000000E+00  0.00000E+00  9.000E+00
      21    -1     0     0   514   516  0.000000000E+00  0.000000000E+00 -2.782324282E+02  2.782324282E+02  0.000000000E+00  0.00000E+00  9.000E+00
      21     1     1     2   515   516  9.674398791E+00  8.828567735E+00 -1.934511018E+02  1.938939565E+02  2.697398305E-06  0.00000E+00  9.000E+00
      21     1     1     2   513   512 -7.589048118E+00 -6.202270941E+00  1.026915329E+02  1.031581928E+02  1.907348633E-06  0.00000E+00  9.000E+00
      21     1     1     2   514   513 -2.085350673E+00 -2.626296793E+00 -8.429322811E+01  8.435991007E+01  0.000000000E+00  0.00000E+00  9.000E+00
</event>
<event>
      5  10001  2.40292E+09  6.56949E+00 -1.00000E+00  2.19451E-01
      21    -1     0     0   511   513  0.000000000E+00  0.000000000E+00  2.926119167E+01  2.926119167E+01  0.000000000E+00  0.00000E+00  9.000E+00
      21    -1     0     0   514   517  0.000000000E+00  0.000000000E+00 -1.188186905E+01  1.188186905E+01  0.000000000E+00  0.00000E+00  9.000E+00
      21     1     1     2   511   517 -6.097950874E+00  1.289837226E+01  2.062149042E+01  2.507586248E+01  4.129530925E-07  0.00000E+00  9.000E+00
      21     1     1     2   514   512  1.002954491E+00 -8.705890115E+00 -1.119803794E-01  8.764187356E+00  8.086969460E-08  0.00000E+00  9.000E+00
      21     1     1     2   512   513  5.094996383E+00 -4.192482141E+00 -3.130187423E+00  7.303010882E+00  2.021291847E-07  0.00000E+00  9.000E+00
</event>
<event>
      5  10001  2.40292E+09  3.61003E+00 -1.00000E+00  2.74311E-01
      21    -1     0     0   514   513  0.000000000E+00  0.000000000E+00  2.261972291E-01  2.261972291E-01  0.000000000E+00  0.00000E+00  9.000E+00
       4    -1     0     0   513     0  0.000000000E+00  0.000000000E+00 -5.162997034E+02  5.162997034E+02  0.000000000E+00  0.00000E+00  9.000E+00
      21     1     1     2   511   512  5.859485693E-01 -3.870158528E+00 -1.327253257E+02  1.327830318E+02  1.907348633E-06  0.00000E+00  9.000E+00
       4     1     1     2   512     0 -4.644175959E+00  9.252914379E+00 -2.040057420E+02  2.042737809E+02  1.500000000E+00  0.00000E+00  9.000E+00
      21     1     1     2   514   511  4.058227389E+00 -5.382755852E+00 -1.793424385E+02  1.794690879E+02  2.697398305E-06  0.00000E+00  9.000E+00
</event>
<event>
      5  10001  2.40292E+09  5.60132E+00 -1.00000E+00  2.30130E-01
       2    -1     0     0   511     0  0.000000000E+00  0.000000000E+00  2.642520751E+02  2.642520751E+02  0.000000000E+00  0.00000E+00  9.000E+00
      -4    -1     0     0     0   511  0.000000000E+00  0.000000000E+00 -3.262286593E+01  3.262286593E+01  0.000000000E+00  0.00000E+00  9.000E+00
      21     1     1     2   512   513  7.274422110E+00  6.906924875E+00 -2.113960624E+01  2.339884143E+01  1.980453459E-06  0.00000E+00  9.000E+00
       2     1     1     2   513     0 -5.120806483E+00 -8.978954928E+00  2.627480676E+02  2.629515169E+02  3.300000131E-01  0.00000E+00  9.000E+00
      -4     1     1     2     0   512 -2.153615626E+00  2.072030053E+00 -9.979252162E+00  1.052458277E+01  1.500000000E+00  0.00000E+00  9.000E+00
</event>
<event>
      5  10001  2.40292E+09  1.04173E+01 -1.00000E+00  1.93670E-01
       2    -1     0     0   514     0  0.000000000E+00  0.000000000E+00  4.259824151E+02  4.259824151E+02  0.000000000E+00  0.00000E+00  9.000E+00
      21    -1     0     0   515   514  0.000000000E+00  0.000000000E+00 -2.863798329E+00  2.863798329E+00  0.000000000E+00  0.00000E+00  9.000E+00
      21     1     1     2   516   512 -2.017485195E+01  1.016272054E+01  1.655959896E+02  1.671297020E+02  1.907348633E-06  0.00000E+00  9.000E+00
      21     1     1     2   515   516  1.387593213E+01 -1.866035266E+00  2.275247537E+01  2.671514019E+01  1.118282261E-06  0.00000E+00  9.000E+00
       2     1     1     2   512     0  6.298919819E+00 -8.296685277E+00  2.347701519E+02  2.350013712E+02  3.300000131E-01  0.00000E+00  9.000E+00
</event>
<event>
      5  10001  2.40292E+09  2.78643E+00 -1.00000E+00  3.06803E-01
      21    -1     0     0   511   516  0.000000000E+00  0.000000000E+00  2.945104668E+00  2.945104668E+00  0.000000000E+00  0.00000E+00  9.000E+00
      21    -1     0     0   513   514  0.000000000E+00  0.000000000E+00 -1.626161419E+02  1.626161419E+02  0.000000000E+00  0.00000E+00  9.000E+00
      21     1     1     2   515   516  9.635250405E+00  5.211066394E+00 -9.539521988E+00  1.452569252E+01  7.052516679E-07  0.00000E+00  9.000E+00
      21     1     1     2   513   515 -1.238155227E+01 -5.682265820E+00 -1.300630860E+02  1.307746050E+02  3.303624740E-06  0.00000E+00  9.000E+00
      21     1     1     2   511   514  2.746301869E+00  4.711994261E-01 -2.006842930E+01  2.026094908E+01  4.768371582E-07  0.00000E+00  9.000E+00
</event>
<event>
      5  10001  2.40292E+09  4.74533E+00 -1.00000E+00  2.47034E-01
      21    -1     0     0   515   513  0.000000000E+00  0.000000000E+00  1.770464701E+02  1.770464701E+02  0.000000000E+00  0.00000E+00  9.000E+00
      21    -1     0     0   516   517  0.000000000E+00  0.000000000E+00 -1.116852885E+01  1.116852885E+01  0.000000000E+00  0.00000E+00  9.000E+00
      21     1     1     2   512   517 -8.985325213E+00 -7.185975076E+00  1.628195338E+02  1.632255338E+02  3.303624740E-06  0.00000E+00  9.000E+00
      21     1     1     2   516   513  1.212752406E+01  3.630025656E+00 -6.564625217E+00  1.426002210E+01  7.251217997E-07  0.00000E+00  9.000E+00
      21     1     1     2   515   512 -3.142198845E+00  3.555949420E+00  9.623032644E+00  1.072944300E+01  0.000000000E+00  0.00000E+00  9.000E+00
</event>
<event>
      5  10001  2.40292E+09  4.62167E+01 -1.00000E+00  1.41024E-01
      21    -1     0     0   514   512  0.000000000E+00  0.000000000E+00  5.343969575E+02  5.343969575E+02  0.000000000E+00  0.00000E+00  9.000E+00
       1    -1     0     0   512     0  0.000000000E+00  0.000000000E+00 -4.002919334E+00  4.002919334E+00  0.000000000E+00  0.00000E+00  9.000E+00
      21     1     1     2   514   511  3.281983196E+01 -1.590455621E+01  2.784760471E+02  2.808540636E+02  5.394796609E-06  0.00000E+00  9.000E+00
      21     1     1     2   511   513 -1.884726684E+01 -4.217745927E-01  2.058481373E+02  2.067095862E+02  4.672030912E-06  0.00000E+00  9.000E+00
       1     1     1     2   513     0 -1.397256512E+01  1.632633081E+01  4.606985377E+01  5.083622704E+01  3.300000131E-01  0.00000E+00  9.000E+00
</event>
<event>
      5  10001  2.40292E+09  4.96668E+00 -1.00000E+00  2.43030E-01
      21    -1     0     0   515   511  0.000000000E+00  0.000000000E+00  6.929972440E+01  6.929972440E+01  0.000000000E+00  0.00000E+00  9.000E+00
      21    -1     0     0   512   514  0.000000000E+00  0.000000000E+00 -6.813633264E+00  6.813633264E+00  0.000000000E+00  0.00000E+00  9.000E+00
      21     1     1     2   512   516  1.168663312E+01  5.253821987E+00  1.653992465E+00  1.291958708E+01  2.298839185E-07  0.00000E+00  9.000E+00
      21     1     1     2   516   511 -7.015148642E+00 -3.567052951E+00  5.488103682E+01  5.544244204E+01  0.000000000E+00  0.00000E+00  9.000E+00
      21     1     1     2   515   514 -4.671484481E+00 -1.686769036E+00  5.951061857E+00  7.751328548E+00  0.000000000E+00  0.00000E+00  9.000E+00
</event>
<event>
      5  10001  2.40292E+09  3.24899E+00 -1.00000E+00  2.86612E-01
      21    -1     0     0   513   511  0.000000000E+00  0.000000000E+00  4.256753398E-01  4.256753398E-01  0.000000000E+00  0.00000E+00  9.000E+00
       3    -1     0     0   515     0  0.000000000E+00  0.000000000E+00 -3.238370148E+02  3.238370148E+02  0.000000000E+00  0.00000E+00  9.000E+00
       5     1     1     2   515     0  2.090604531E+00 -9.985986414E-02 -6.680982922E+01  6.701472884E+01  4.800000191E+00  0.00000E+00  9.000E+00
       3     1     1     2   513     0 -8.487682647E+00  2.451029815E+00 -1.745340183E+02  1.747581810E+02  5.000000000E-01  0.00000E+00  9.000E+00
      -5     1     1     2     0   511  6.397078116E+00 -2.351169951E+00 -8.206749192E+01  8.248978022E+01  4.800000191E+00  0.00000E+00  9.000E+00
</event>
<event>
      5  10001  2.40292E+09  7.60333E+00 -1.00000E+00  2.10533E-01
      21    -1     0     0   512   515  0.000000000E+00  0.000000000E+00  1.498417732E+02  1.498417732E+02  0.000000000E+00  0.00000E+00  9.000E+00
      21    -1     0     0   514   511  0.000000000E+00  0.000000000E+00 -1.276617159E+00  1.276617159E+00  0.000000000E+00  0.00000E+00  9.000E+00
      21     1     1     2   512   511  1.135687442E+01  1.863211479E+00  8.902868194E+01  8.976946230E+01  9.536743164E-07  0.00000E+00  9.000E+00
      21     1     1     2   513   515 -8.150912183E+00 -4.322498683E+00  5.185697973E+01  5.267131772E+01  6.743495762E-07  0.00000E+00  9.000E+00
      21     1     1     2   514   513 -3.205962236E+00  2.459287204E+00  7.679494419E+00  8.677610382E+00  1.685873940E-07  0.00000E+00  9.000E+00
</event>
<event>
      5  10001  2.40292E+09  6.01841E+00 -1.00000E+00  2.25187E-01
      21    -1     0     0   516   512  0.000000000E+00  0.000000000E+00  4.964791920E+01  4.964791920E+01  0.000000000E+00  0.00000E+00  9.000E+00
      21    -1     0     0   514   517  0.000000000E+00  0.000000000E+00 -1.933490734E+01  1.933490734E+01  0.000000000E+00  0.00000E+00  9.000E+00
      21     1     1     2   516   517 -5.303300658E-01  7.262971242E+00  6.291331906E+00  9.623557471E+00  8.429369702E-08  0.00000E+00  9.000E+00
      21     1     1     2   514   511  1.449323778E+00 -1.321080636E+01 -1.490527980E+01  1.996980997E+01  1.685873940E-07  0.00000E+00  9.000E+00
      21     1     1     2   511   512 -9.189937123E-01  5.947835117E+00  3.892695976E+01  3.938945910E+01  8.259061849E-07  0.00000E+00  9.000E+00
</event>
<event>
      5  10001  2.40292E+09  8.84602E+00 -1.00000E+00  2.02059E-01
      21    -1     0     0   513   511  0.000000000E+00  0.000000000E+00  2.378445919E+00  2.378445919E+00  0.000000000E+00  0.00000E+00  9.000E+00
      21    -1     0     0   512   513  0.000000000E+00  0.000000000E+00 -3.742492853E+02  3.742492853E+02  0.000000000E+00  0.00000E+00  9.000E+00
      21     1     1     2   514   511 -5.839013640E+00 -7.366131811E+00 -8.584912199E+00  1.273007053E+01  4.460403188E-07  0.00000E+00  9.000E+00
      21     1     1     2   512   515  4.474669225E-01  5.291202710E+00 -3.342725291E+02  3.343147032E+02  5.394796609E-06  0.00000E+00  9.000E+00
      21     1     1     2   515   514  5.391546717E+00  2.074929101E+00 -2.901339809E+01  2.958295751E+01  6.743495762E-07  0.00000E+00  9.000E+00
</event>
<event>
      5  10001  2.40292E+09  3.76823E+00 -1.00000E+00  2.69618E-01
      -3    -1     0     0     0   514  0.000000000E+00  0.000000000E+00  3.406851767E+01  3.406851767E+01  0.000000000E+00  0.00000E+00  9.000E+00
      21    -1     0     0   511   513  0.000000000E+00  0.000000000E+00 -4.293493491E+01  4.293493491E+01  0.000000000E+00  0.00000E+00  9.000E+00
      -3     1     1     2     0   513 -1.432617190E+01  4.141460518E+00  2.328746181E+01  2.765767116E+01  5.000000000E-01  0.00000E+00  9.000E+00
      21     1     1     2   515   514  1.075527172E+01 -2.938663611E+00  4.844149044E+00  1.215637255E+01  2.230201594E-07  0.00000E+00  9.000E+00
      21     1     1     2   511   515  3.570900181E+00 -1.202796907E+00 -3.699802810E+01  3.718940886E+01  0.000000000E+00  0.00000E+00  9.000E+00
</event>
<event>
      5  10001  2.40292E+09  6.28016E+00 -1.00000E+00  2.22361E-01
       4    -1     0     0   511     0  0.000000000E+00  0.000000000E+00  1.331931831E+01  1.331931831E+01  0.000000000E+00  0.00000E+00  9.000E+00
      21    -1     0     0   513   515  0.000000000E+00  0.000000000E+00 -7.801613927E+01  7.801613927E+01  0.000000000E+00  0.00000E+00  9.000E+00
      21     1     1     2   511   515  5.374922272E+00  8.715780859E+00  4.890307973E-01  1.025152557E+01  1.542288180E-07  0.00000E+00  9.000E+00
       4     1     1     2   512     0 -1.389091044E+00 -1.356234161E+01  1.774784624E+00  1.382991484E+01  1.500000000E+00  0.00000E+00  9.000E+00
      21     1     1     2   513   512 -3.985831228E+00  4.846560756E+00 -6.696063638E+01  6.725401717E+01  0.000000000E+00  0.00000E+00  9.000E+00
</event>
<event>
      5  10001  2.40292E+09  7.25450E+00 -1.00000E+00  2.13315E-01
      21    -1     0     0   514   512  0.000000000E+00  0.000000000E+00  3.347134004E+01  3.347134004E+01  0.000000000E+00  0.00000E+00  9.000E+00
      21    -1     0     0   513   516  0.000000000E+00  0.000000000E+00 -9.750612385E+01  9.750612385E+01  0.000000000E+00  0.00000E+00  9.000E+00
      21     1     1     2   514   516 -8.108139774E+00 -1.159248004E+01  3.034589635E+01  3.348135226E+01  1.168007728E-06  0.00000E+00  9.000E+00
      21     1     1     2   511   512  4.302708457E+00  6.267368872E+00 -8.809213294E+01  8.841955156E+01  1.651812370E-06  0.00000E+00  9.000E+00
      21     1     1     2   513   511  3.805431317E+00  5.325111169E+00 -6.288547222E+00  9.076560066E+00  1.460009660E-07  0.00000E+00  9.000E+00
</event>
<event>
      5  10001  2.40292E+09  3.13692E+00 -1.00000E+00  2.90974E-01
      21    -1     0     0   515   511  0.000000000E+00  0.000000000E+00  2.421001503E+01  2.421001503E+01  0.000000000E+00  0.00000E+00  9.000E+00
      21    -1     0     0   512   517  0.000000000E+00  0.000000000E+00 -2.177080057E+02  2.177080057E+02  0.000000000E+00  0.00000E+00  9.000E+00
      21     1     1     2   515   517 -8.105109478E+00  5.784158574E+00  2.286423186E+01  2.493837182E+01  1.168007728E-06  0.00000E+00  9.000E+00
      21     1     1     2   513   511  1.101151839E+01 -4.603872450E+00 -1.973326217E+02  1.976932289E+02  2.697398305E-06  0.00000E+00  9.000E+00
      21     1     1     2   512   513 -2.906408914E+00 -1.180286124E+00 -1.902960086E+01  1.928642001E+01  3.371747881E-07  0.00000E+00  9.000E+00
</event>
<event>
      5  10001  2.40292E+09  3.14392E+00 -1.00000E+00  2.90693E-01
      21    -1     0     0   514   511  0.000000000E+00  0.000000000E+00  7.040403949E+00  7.040403949E+00  0.000000000E+00  0.00000E+00  9.000E+00
      21    -1     0     0   512   514  0.000000000E+00  0.000000000E+00 -3.036041943E+01  3.036041943E+01  0.000000000E+00  0.00000E+00  9.000E+00
      21     1     1     2   513   511 -1.116616842E+01  5.518402774E-01 -2.104596555E-01  1.118177706E+01  3.118470748E-07  0.00000E+00  9.000E+00
      21     1     1     2   515   513  7.320497072E+00  7.633288205E-02 -1.978804590E+01  2.109886880E+01  0.000000000E+00  0.00000E+00  9.000E+00
      21     1     1     2   512   515  3.845671349E+00 -6.281731594E-01 -3.321509920E+00  5.120177516E+00  4.214684851E-08  0.00000E+00  9.000E+00
</event>
<event>
      5  10001  2.40292E+09  5.17511E+00 -1.00000E+00  2.35847E-01
      21    -1     0     0   516   513  0.000000000E+00  0.000000000E+00  5.363414396E+00  5.363414396E+00  0.000000000E+00  0.00000E+00  9.000E+00
      21    -1     0     0   511   516  0.000000000E+00  0.000000000E+00 -3.356323548E+02  3.356323548E+02  0.000000000E+00  0.00000E+00  9.000E+00
      21     1     1     2   515   513 -9.867569499E-01 -1.020063611E+01 -7.760731884E-02  1.024854571E+01  7.983303411E-07  0.00000E+00  9.000E+00
      21     1     1     2   512   515 -3.330433636E+00  1.305434058E+01 -2.691213376E+02  2.694583492E+02  6.607249480E-06  0.00000E+00  9.000E+00
      21     1     1     2   511   512  4.317190586E+00 -2.853704468E+00 -6.106999554E+01  6.128887434E+01  6.743495762E-07  0.00000E+00  9.000E+00
</event>
<event>
      5  10001  2.40292E+09  6.65966E+00 -1.00000E+00  2.18586E-01
      21    -1     0     0   514   512  0.000000000E+00  0.000000000E+00  2.183114521E+01  2.183114521E+01  0.000000000E+00  0.00000E+00  9.000E+00
      21    -1     0     0   511   514  0.000000000E+00  0.000000000E+00 -8.685701699E+00  8.685701699E+00  0.000000000E+00  0.00000E+00  9.000E+00
      21     1     1     2   511   517 -1.029650743E+01  4.162078630E+00 -1.242073824E+00  1.117513808E+01  2.091477640E-07  0.00000E+00  9.000E+00
      21     1     1     2   517   513  6.689509413E+00  7.585495269E-01  6.384046463E+00  9.277983769E+00  1.192092896E-07  0.00000E+00  9.000E+00
      21     1     1     2   513   512  3.606998013E+00 -4.920628156E+00  8.003470876E+00  1.006372506E+01  1.192092896E-07  0.00000E+00  9.000E+00
</event>
<event>
      5  10001  2.40292E+09  1.11578E+01 -1.00000E+00  1.90358E-01
      21    -1     0     0   515   511  0.000000000E+00  0.000000000E+00  1.977413472E+01  1.977413472E+01  0.000000000E+00  0.00000E+00  9.000E+00
       2    -1     0     0   511     0  0.000000000E+00  0.000000000E+00 -2.435190021E+02  2.435190021E+02  0.000000000E+00  0.00000E+00  9.000E+00
      21     1     1     2   515   513  8.226934026E+00  5.855058104E+00  1.820804894E+01  2.082059545E+01  2.384185791E-07  0.00000E+00  9.000E+00
       2     1     1     2   514     0  9.147786129E-02 -7.194441181E+00 -1.326289358E+02  1.328243647E+02  3.300000131E-01  0.00000E+00  9.000E+00
      21     1     1     2   513   514 -8.318411887E+00  1.339383077E+00 -1.093239805E+02  1.096481766E+02  1.348699152E-06  0.00000E+00  9.000E+00
</event>
<event>
      5  10001  2.40292E+09  5.97805E+00 -1.00000E+00  2.25641E-01
      -1    -1     0     0     0   512  0.000000000E+00  0.000000000E+00  7.581449237E+01  7.581449237E+01  0.000000000E+00  0.00000E+00  9.000E+00
      -3    -1     0     0     0   513  0.000000000E+00  0.000000000E+00 -4.569925175E+01  4.569925175E+01  0.000000000E+00  0.00000E+00  9.000E+00
      -3     1     1     2     0   512  1.649600274E+01 -4.488956264E+00 -4.214902295E+01  4.548690987E+01  5.000000000E-01  0.00000E+00  9.000E+00
      -1     1     1     2     0   511 -1.151588256E+01  8.495573700E-01  6.678413193E+01  6.777585467E+01  3.300000131E-01  0.00000E+00  9.000E+00
      21     1     1     2   511   513 -4.980120176E+00  3.639398894E+00  5.480131634E+00  8.250979579E+00  1.460009660E-07  0.00000E+00  9.000E+00
</event>
<event>
      5  10001  2.40292E+09  1.18138E+01 -1.00000E+00  1.87691E-01
      21    -1     0     0   511   514  0.000000000E+00  0.000000000E+00  5.631197094E-01  5.631197094E-01  0.000000000E+00  0.00000E+00  9.000E+00
       2    -1     0     0   512     0  0.000000000E+00  0.000000000E+00 -7.262885890E+02  7.262885890E+02  0.000000000E+00  0.00000E+00  9.000E+00
      -2     1     1     2     0   514 -7.302122724E-01 -5.951823362E+00 -1.927750072E+01  2.019129380E+01  3.300000131E-01  0.00000E+00  9.000E+00
       2     1     1     2   511     0 -4.183555185E+00  9.847344688E+00 -5.092875167E+02  5.093999959E+02  3.300000131E-01  0.00000E+00  9.000E+00
       2     1     1     2   512     0  4.913767458E+00 -3.895521326E+00 -1.971604519E+02  1.972604189E+02  3.300000131E-01  0.00000E+00  9.000E+00
</event>
<event>
      5  10001  2.40292E+09  1.48312E+01 -1.00000E+00  1.77800E-01
      21    -1     0     0   513   514  0.000000000E+00  0.000000000E+00  9.093063901E+00  9.093063901E+00  0.000000000E+00  0.00000E+00  9.000E+00
      21    -1     0     0   512   515  0.000000000E+00  0.000000000E+00 -1.194478103E+02  1.194478103E+02  0.000000000E+00  0.00000E+00  9.000E+00
      21     1     1     2   513   515  1.401042179E+01  1.204644602E+00  1.164772020E-01  1.406259771E+01  4.295669218E-07  0.00000E+00  9.000E+00
      21     1     1     2   512   511 -7.542996328E+00  3.691933666E+00 -1.033303240E+02  1.036710327E+02  0.000000000E+00  0.00000E+00  9.000E+00
      21     1     1     2   511   514 -6.467425467E+00 -4.896578268E+00 -7.140899625E+00  1.080724379E+01  2.384185791E-07  0.00000E+00  9.000E+00
</event>
<event>
      5  10001  2.40292E+09  6.46064E+00 -1.00000E+00  2.20521E-01
      21    -1     0     0   516   512  0.000000000E+00  0.000000000E+00  3.475902619E+01  3.475902619E+01  0.000000000E+00  0.00000E+00  9.000E+00
      21    -1     0     0   517   514  0.000000000E+00  0.000000000E+00 -2.966425269E+01  2.966425269E+01  0.000000000E+00  0.00000E+00  9.000E+00
      21     1     1     2   516   514 -3.377791408E+00 -1.303288218E+01 -2.662114452E+01  2.983204365E+01  0.000000000E+00  0.00000E+00  9.000E+00
      21     1     1     2   517   513  7.835666975E-01  1.280493468E+00  6.202799095E+00  6.381877225E+00  1.884864366E-07  0.00000E+00  9.000E+00
      21     1     1     2   513   512  2.594224710E+00  1.175238871E+01  2.551311891E+01  2.820935801E+01  0.000000000E+00  0.00000E+00  9.000E+00
</event>
<event>
      5  10001  2.40292E+09  1.48628E+01 -1.00000E+00  1.77713E-01
      21    -1     0     0   511   514  0.000000000E+00  0.000000000E+00  7.929640657E+00  7.929640657E+00  0.000000000E+00  0.00000E+00  9.000E+00
      21    -1     0     0   512   511  0.000000000E+00  0.000000000E+00 -5.745823172E+01  5.745823172E+01  0.000000000E+00  0.00000E+00  9.000E+00
      21     1     1     2   512   515 -3.547440571E+00 -9.523432490E+00 -4.720849178E+01  4.828997616E+01  9.536743164E-07  0.00000E+00  9.000E+00
      21     1     1     2   515   516 -1.629692926E+00  9.512160720E+00 -5.415074802E+00  1.106617078E+01  2.528810911E-07  0.00000E+00  9.000E+00
      21     1     1     2   516   514  5.177133496E+00  1.127176988E-02  3.094975523E+00  6.031725439E+00  1.264405455E-07  0.00000E+00  9.000E+00
</event>
<event>
      5  10001  2.40292E+09  5.74026E+00 -1.00000E+00  2.28418E-01
      21    -1     0     0   513   515  0.000000000E+00  0.000000000E+00  4.016655084E+01  4.016655084E+01  0.000000000E+00  0.00000E+00  9.000E+00
      21    -1     0     0   512   514  0.000000000E+00  0.000000000E+00 -5.413215076E+00  5.413215076E+00  0.000000000E+00  0.00000E+00  9.000E+00
      21     1     1     2   513   514 -2.480139641E+00  9.172525788E+00  3.222365490E+01  3.359539041E+01  4.768371582E-07  0.00000E+00  9.000E+00
      21     1     1     2   511   515 -1.284244770E+00 -7.257035671E+00  2.427991759E+00  7.759445557E+00  3.153981341E-07  0.00000E+00  9.000E+00
      21     1     1     2   512   511  3.764384411E+00 -1.915490117E+00  1.016891071E-01  4.224929947E+00  1.666677144E-07  0.00000E+00  9.000E+00
</event>
<event>
      5  10001  2.40292E+09  5.36899E+00 -1.00000E+00  2.33153E-01
      21    -1     0     0   512   511  0.000000000E+00  0.000000000E+00  1.515738301E+02  1.515738301E+02  0.000000000E+00  0.00000E+00  9.000E+00
       2    -1     0     0   515     0  0.000000000E+00  0.000000000E+00 -5.507192613E+01  5.507192613E+01  0.000000000E+00  0.00000E+00  9.000E+00
      21     1     1     2   515   511 -1.172835630E+00 -1.004021602E+01  1.505007826E+02  1.508398722E+02  3.303624740E-06  0.00000E+00  9.000E+00
       2     1     1     2   513     0 -1.244182606E+00  4.264444710E+00 -4.232678505E+01  4.256053467E+01  3.300000131E-01  0.00000E+00  9.000E+00
      21     1     1     2   512   513  2.417018236E+00  5.775771307E+00 -1.167209357E+01  1.324534936E+01  3.371747881E-07  0.00000E+00  9.000E+00
</event>
<event>
      5  10001  2.40292E+09  7.61045E+00 -1.00000E+00  2.10478E-01
      21    -1     0     0   514   513  0.000000000E+00  0.000000000E+00  1.754407580E+00  1.754407580E+00  0.000000000E+00  0.00000E+00  9.000E+00
      21    -1     0     0   511   516  0.000000000E+00  0.000000000E+00 -7.727541952E+01  7.727541952E+01  0.000000000E+00  0.00000E+00  9.000E+00
      21     1     1     2   514   516 -4.544087067E-01 -9.268558494E+00 -1.820783225E+01  2.043618896E+01  0.000000000E+00  0.00000E+00  9.000E+00
      21     1     1     2   511   515  3.263251480E+00  3.681771993E+00 -3.738749000E+01  3.770979533E+01  6.743495762E-07  0.00000E+00  9.000E+00
      21     1     1     2   515   513 -2.808842773E+00  5.586786501E+00 -1.992568968E+01  2.088384281E+01  0.000000000E+00  0.00000E+00  9.000E+00
</event>
<event>
      5  10001  2.40292E+09  4.83653E+00 -1.00000E+00  2.45345E-01
      21    -1     0     0   512   513  0.000000000E+00  0.000000000E+00  1.428948023E+01  1.428948023E+01  0.000000000E+00  0.00000E+00  9.000E+00
      21    -1     0     0   513   514  0.000000000E+00  0.000000000E+00 -1.195259719E+01  1.195259719E+01  0.000000000E+00  0.00000E+00  9.000E+00
      -3     1     1     2     0   514  1.079192595E+01 -1.701199000E+00 -1.969684730E+00  1.111257853E+01  5.000000000E-01  0.00000E+00  9.000E+00
      21     1     1     2   512   511 -9.903444022E+00  3.787090180E+00  6.066917049E+00  1.221588057E+01  2.795705652E-07  0.00000E+00  9.000E+00
       3     1     1     2   511     0 -8.884819250E-01 -2.085891180E+00 -1.760349278E+00  2.913618322E+00  5.000000000E-01  0.00000E+00  9.000E+00
</event>
<event>
      5  10001  2.40292E+09  8.20989E+00 -1.00000E+00  2.06146E-01
      21    -1     0     0   515   511  0.000000000E+00  0.000000000E+00  4.485633387E+02  4.485633387E+02  0.000000000E+00  0.00000E+00  9.000E+00
      21    -1     0     0   513   515  0.000000000E+00  0.000000000E+00 -7.246808767E+00  7.246808767E+00  0.000000000E+00  0.00000E+00  9.000E+00
      21     1     1     2   516   511  3.137375356E+00  1.004990858E+01  4.349851480E+02  4.351125404E+02  0.000000000E+00  0.00000E+00  9.000E+00
      21     1     1     2   513   512 -7.879286821E+00 -4.694169844E+00 -2.331245870E+00  9.463249899E+00  3.371747881E-07  0.00000E+00  9.000E+00
      21     1     1     2   512   516  4.741911465E+00 -5.355738740E+00  8.662627818E+00  1.123435724E+01  1.192092896E-07  0.00000E+00  9.000E+00
</event>
<event>
      5  10001  2.40292E+09  9.74451E+00 -1.00000E+00  1.97006E-01
      21    -1     0     0   514   513  0.000000000E+00  0.000000000E+00  2.711406631E+01  2.711406631E+01  0.000000000E+00  0.00000E+00  9.000E+00
      21    -1     0     0   511   516  0.000000000E+00  0.000000000E+00 -2.014322370E+01  2.014322370E+01  0.000000000E+00  0.00000E+00  9.000E+00
      21     1     1     2   514   516  1.562861276E+01  1.456990078E+01  8.103237036E+00  2.285165193E+01  4.298152060E-07  0.00000E+00  9.000E+00
      21     1     1     2   515   513 -1.043253276E+01 -1.002879092E+01  4.860747346E+00  1.526568872E+01  2.384185791E-07  0.00000E+00  9.000E+00
      21     1     1     2   511   515 -5.196079994E+00 -4.541109861E+00 -5.993141772E+00  9.139949364E+00  2.064765462E-07  0.00000E+00  9.000E+00
</event>
<event>
      5  10001  2.40292E+09  2.89298E+00 -1.00000E+00  3.01594E-01
      21    -1     0     0   514   513  0.000000000E+00  0.000000000E+00  1.796463042E+01  1.796463042E+01  0.000000000E+00  0.00000E+00  9.000E+00
       2    -1     0     0   513     0  0.000000000E+00  0.000000000E+00 -3.374130260E+01  3.374130260E+01  0.000000000E+00  0.00000E+00  9.000E+00
      21     1     1     2   512   511 -4.984137290E+00  1.094004053E+01  1.303568134E+01  1.773288186E+01  3.371747881E-07  0.00000E+00  9.000E+00
       2     1     1     2   511     0  7.429887073E+00 -9.395087773E+00 -2.867391565E+01  3.107689230E+01  3.300000131E-01  0.00000E+00  9.000E+00
      21     1     1     2   514   512 -2.445749783E+00 -1.544952759E+00 -1.384378644E-01  2.896158847E+00  4.570128078E-08  0.00000E+00  9.000E+00
</event>
<event>
      5  10001  2.40292E+09  6.76047E+00 -1.00000E+00  2.17640E-01
      21    -1     0     0   515   511  0.000000000E+00  0.000000000E+00  2.167502515E+01  2.167502515E+01  0.000000000E+00  0.00000E+00  9.000E+00
      21    -1     0     0   513   515  0.000000000E+00  0.000000000E+00 -8.337106471E+00  8.337106471E+00  0.000000000E+00  0.00000E+00  9.000E+00
      21     1     1     2   513   512  5.866815228E+00 -9.268229672E+00  1.272487880E+01  1.680006377E+01  1.685873940E-07  0.00000E+00  9.000E+00
      21     1     1     2   516   511 -2.299229921E+00  3.712819739E+00 -3.356837344E+00  5.508161726E+00  0.000000000E+00  0.00000E+00  9.000E+00
      21     1     1     2   512   516 -3.567585307E+00  5.555409933E+00  3.969877225E+00  7.703906128E+00  1.115100797E-07  0.00000E+00  9.000E+00
</event>
<event>
      5  10001  2.40292E+09  8.60316E+00 -1.00000E+00  2.03564E-01
      21    -1     0     0   514   512  0.000000000E+00  0.000000000E+00  1.029431098E+03  1.029431098E+03  0.000000000E+00  0.00000E+00  9.000E+00
      21    -1     0     0   517   514  0.000000000E+00  0.000000000E+00 -2.845783911E+00  2.845783911E+00  0.000000000E+00  0.00000E+00  9.000E+00
      21     1     1     2   517   513 -1.075853603E+01  3.829206039E+00  9.014552779E+00  1.454892018E+01  8.840797528E-07  0.00000E+00  9.000E+00
      21     1     1     2   513   511  1.364919221E+01 -9.527267690E-01  7.290254740E+02  7.291538589E+02  1.078959322E-05  0.00000E+00  9.000E+00
      21     1     1     2   511   512 -2.890656181E+00 -2.876479270E+00  2.885452868E+02  2.885741024E+02  7.629394531E-06  0.00000E+00  9.000E+00
</event>
<event>
      5  10001  2.40292E+09  4.70162E+00 -1.00000E+00  2.47863E-01
      21    -1     0     0   515   513  0.000000000E+00  0.000000000E+00  1.824017900E+02  1.824017900E+02  0.000000000E+00  0.00000E+00  9.000E+00
      21    -1     0     0   516   512  0.000000000E+00  0.000000000E+00 -2.279558721E+00  2.279558721E+00  0.000000000E+00  0.00000E+00  9.000E+00
      21     1     1     2   515   512  9.990993731E+00  2.059177532E+00  1.080008032E+01  1.485603927E+01  5.717076687E-07  0.00000E+00  9.000E+00
      21     1     1     2   516   514 -1.031612644E+01 -3.465700996E+00  1.229499876E+02  1.234306809E+02  2.336015456E-06  0.00000E+00  9.000E+00
      21     1     1     2   514   513  3.251327076E-01  1.406523465E+00  4.637216338E+01  4.639462852E+01  6.743495762E-07  0.00000E+00  9.000E+00
</event>
<event>
      5  10001 -2.40292E+09  6.72786E+00 -1.00000E+00  2.17944E-01
      21    -1     0     0   511   514  0.000000000E+00  0.000000000E+00  1.635158168E+02  1.635158168E+02  0.000000000E+00  0.00000E+00  9.000E+00
      21    -1     0     0   513   511  0.000000000E+00  0.000000000E+00 -1.017461170E+02  1.017461170E+02  0.000000000E+00  0.00000E+00  9.000E+00
      21     1     1     2   516   514  1.074234201E+01 -5.308389574E+00  1.620219371E+02  1.624644115E+02  2.697398305E-06  0.00000E+00  9.000E+00
      21     1     1     2   513   512 -4.986339807E+00  1.257717301E+00 -9.113298413E+01  9.127796138E+01  1.907348633E-06  0.00000E+00  9.000E+00
      21     1     1     2   512   516 -5.756002204E+00  4.050672273E+00 -9.119253154E+00  1.151956099E+01  2.064765462E-07  0.00000E+00  9.000E+00
</event>
<event>
      5  10001  2.40292E+09  9.66432E+00 -1.00000E+00  1.97428E-01
      -4    -1     0     0     0   515  0.000000000E+00  0.000000000E+00  2.393499503E+02  2.393499503E+02  0.000000000E+00  0.00000E+00  9.000E+00
      -2    -1     0     0     0   511  0.000000000E+00  0.000000000E+00 -1.739416242E+01  1.739416242E+01  0.000000000E+00  0.00000E+00  9.000E+00
      -4     1     1     2     0   511  1.330360046E+00  8.603892893E+00  2.282839321E+02  2.284548106E+02  1.500000000E+00  0.00000E+00  9.000E+00
      21     1     1     2   512   515 -8.118489904E+00 -1.548065578E+01 -6.415880353E+00  1.862052906E+01  8.344650269E-07  0.00000E+00  9.000E+00
      -2     1     1     2     0   512  6.788129858E+00  6.876762889E+00  8.773613396E-02  9.668773058E+00  3.300000131E-01  0.00000E+00  9.000E+00
</event>
<event>
      5  10001  2.40292E+09  2.61998E+01 -1.00000E+00  1.57204E-01
      21    -1     0     0   513   511  0.000000000E+00  0.000000000E+00  5.657151193E+01  5.657151193E+01  0.000000000E+00  0.00000E+00  9.000E+00
       2    -1     0     0   514     0  0.000000000E+00  0.000000000E+00 -1.983470797E+02  1.983470797E+02  0.000000000E+00  0.00000E+00  9.000E+00
      21     1     1     2   514   512 -7.121691514E+00  8.718422173E+00 -8.190497202E+01  8.267498907E+01  1.348699152E-06  0.00000E+00  9.000E+00
       2     1     1     2   513     0  1.874937453E+01  1.475972192E+01 -1.116720650E+02  1.141934650E+02  3.300000131E-01  0.00000E+00  9.000E+00
      21     1     1     2   512   511 -1.162768301E+01 -2.347814410E+01  5.180146924E+01  5.805013762E+01  1.348699152E-06  0.00000E+00  9.000E+00
</event>
<event>
      5  10001  2.40292E+09  8.61507E+00 -1.00000E+00  2.03488E-01
      21    -1     0     0   515   512  0.000000000E+00  0.000000000E+00  2.701971874E+02  2.701971874E+02  0.000000000E+00  0.00000E+00  9.000E+00
      21    -1     0     0   511   515  0.000000000E+00  0.000000000E+00 -7.364220672E+01  7.364220672E+01  0.000000000E+00  0.00000E+00  9.000E+00
      21     1     1     2   511   514 -3.104891558E+00  1.016819491E+01 -7.314430466E+01  7.391293421E+01  2.132480600E-06  0.00000E+00  9.000E+00
      21     1     1     2   513   512 -4.908197370E-01 -6.589756116E-01  3.080067291E+01  3.081163099E+01  3.371747881E-07  0.00000E+00  9.000E+00
      21     1     1     2   514   513  3.595711295E+00 -9.509219296E+00  2.388986125E+02  2.391148290E+02  2.697398305E-06  0.00000E+00  9.000E+00
</event>
<event>
      5  10001  2.40292E+09  2.48603E+00 -1.00000E+00  3.23885E-01
      21    -1     0     0   516   513  0.000000000E+00  0.000000000E+00  1.477776450E+02  1.477776450E+02  0.000000000E+00  0.00000E+00  9.000E+00
      21    -1     0     0   511   512  0.000000000E+00  0.000000000E+00 -4.738715918E+00  4.738715918E+00  0.000000000E+00  0.00000E+00  9.000E+00
      21     1     1     2   516   517  1.809682045E+01  2.616311970E-01  2.841871690E+01  3.369253376E+01  7.539457465E-07  0.00000E+00  9.000E+00
      21     1     1     2   511   513 -1.604300777E+01 -1.662417219E+00  1.151565683E+02  1.162805957E+02  1.348699152E-06  0.00000E+00  9.000E+00
      21     1     1     2   517   512 -2.053812679E+00  1.400786022E+00 -5.363561186E-01  2.543231387E+00  1.324444177E-07  0.00000E+00  9.000E+00
</event>
<event>
      5  10001  2.40292E+09  2.30926E+01 -1.00000E+00  1.61337E-01
      21    -1     0     0   514   512  0.000000000E+00  0.000000000E+00  7.985051366E+01  7.985051366E+01  0.000000000E+00  0.00000E+00  9.000E+00
      21    -1     0     0   515   514  0.000000000E+00  0.000000000E+00 -3.681064841E+00  3.681064841E+00  0.000000000E+00  0.00000E+00  9.000E+00
      21     1     1     2   511   512  1.074108370E+01 -5.843496689E-01  1.872643228E+01  2.159610172E+01  2.384185791E-07  0.00000E+00  9.000E+00
      21     1     1     2   513   511 -4.717131826E+00 -1.509337481E+00  8.998565594E-01  5.033803147E+00  1.576990671E-07  0.00000E+00  9.000E+00
      21     1     1     2   515   513 -6.023951871E+00  2.093687150E+00  5.654315998E+01  5.690167364E+01  9.536743164E-07  0.00000E+00  9.000E+00
</event>
<event>
      5  10001  2.40292E+09  2.80389E+01 -1.00000E+00  1.55071E-01
      21    -1     0     0   516   513  0.000000000E+00  0.000000000E+00  1.516564025E+01  1.516564025E+01  0.000000000E+00  0.00000E+00  9.000E+00
      21    -1     0     0   512   517  0.000000000E+00  0.000000000E+00 -4.734709508E+01  4.734709508E+01  0.000000000E+00  0.00000E+00  9.000E+00
      21     1     1     2   516   517  9.664440896E+00  8.983447594E-01  8.355342179E+00  1.280703651E+01  4.616955931E-07  0.00000E+00  9.000E+00
      21     1     1     2   511   513 -1.259649915E+01  9.507843077E+00 -1.417566697E+01  2.121368437E+01  3.371747881E-07  0.00000E+00  9.000E+00
      21     1     1     2   512   511  2.932058250E+00 -1.040618784E+01 -2.636113004E+01  2.849201446E+01  3.371747881E-07  0.00000E+00  9.000E+00
</event>
<event>
      5  10001  2.40292E+09  9.69881E+00 -1.00000E+00  1.97246E-01
      21    -1     0     0   514   511  0.000000000E+00  0.000000000E+00  6.775181481E+01  6.775181481E+01  0.000000000E+00  0.00000E+00  9.000E+00
      21    -1     0     0   512   515  0.000000000E+00  0.000000000E+00 -1.699917554E+00  1.699917554E+00  0.000000000E+00  0.00000E+00  9.000E+00
      21     1     1     2   514   515 -4.840092780E+00 -4.979747321E+00  2.418253875E+01  2.515988000E+01  3.371747881E-07  0.00000E+00  9.000E+00
      21     1     1     2   513   511  8.736082300E+00  2.155144664E+00  3.295778191E+01  3.416400402E+01  6.743495762E-07  0.00000E+00  9.000E+00
      21     1     1     2   512   513 -3.895989520E+00  2.824602657E+00  8.911576608E+00  1.012784835E+01  1.192092896E-07  0.00000E+00  9.000E+00
</event>
<event>
      5  10001  2.40292E+09  7.74709E+00 -1.00000E+00  2.09444E-01
      21    -1     0     0   516   513  0.000000000E+00  0.000000000E+00  3.355148200E+01  3.355148200E+01  0.000000000E+00  0.00000E+00  9.000E+00
      -2    -1     0     0     0   517  0.000000000E+00  0.000000000E+00 -9.552081758E+01  9.552081758E+01  0.000000000E+00  0.00000E+00  9.000E+00
      21     1     1     2   516   517 -1.247877157E+00  1.513173618E+01  5.979826633E+00  1.631824022E+01  1.192092896E-07  0.00000E+00  9.000E+00
      21     1     1     2   512   513  5.442089570E+00 -8.618297525E+00  2.106574095E+01  2.340206899E+01  2.384185791E-07  0.00000E+00  9.000E+00
      -2     1     1     2     0   512 -4.194212413E+00 -6.513438654E+00 -8.901490316E+01  8.935199038E+01  3.300000131E-01  0.00000E+00  9.000E+00
</event>
<event>
      5  10001  2.40292E+09  6.53059E+00 -1.00000E+00  2.19830E-01
      21    -1     0     0   511   512  0.000000000E+00  0.000000000E+00  1.204619132E+01  1.204619132E+01  0.000000000E+00  0.00000E+00  9.000E+00
      21    -1     0     0   515   514  0.000000000E+00  0.000000000E+00 -1.672882586E+02  1.672882586E+02  0.000000000E+00  0.00000E+00  9.000E+00
      21     1     1     2   511   514 -6.705175037E+00 -8.917838968E+00  9.111441177E+00  1.440505413E+01  8.259061849E-07  0.00000E+00  9.000E+00
      21     1     1     2   515   513  7.013868743E-01  7.459588794E+00 -9.982609863E+01  1.001068798E+02  0.000000000E+00  0.00000E+00  9.000E+00
      21     1     1     2   513   512  6.003788163E+00  1.458250175E+00 -6.452740979E+01  6.482251599E+01  9.536743164E-07  0.00000E+00  9.000E+00
</event>
<event>
      5  10001  2.40292E+09  9.67734E+00 -1.00000E+00  1.97359E-01
      21    -1     0     0   516   514  0.000000000E+00  0.000000000E+00  1.256206234E+01  1.256206234E+01  0.000000000E+00  0.00000E+00  9.000E+00
      21    -1     0     0   512   516  0.000000000E+00  0.000000000E+00 -5.893622586E+01  5.893622586E+01  0.000000000E+00  0.00000E+00  9.000E+00
      21     1     1     2   512   517  8.549506228E+00 -1.526917280E+01 -3.978789195E+01  4.346628625E+01  6.743495762E-07  0.00000E+00  9.000E+00
      21     1     1     2   517   511 -1.403031008E+01  1.568541204E+01 -2.520578852E+00  2.119516618E+01  6.549734168E-07  0.00000E+00  9.000E+00
      21     1     1     2   511   514  5.480803851E+00 -4.162392409E-01 -4.065692718E+00  6.836835762E+00  1.576990671E-07  0.00000E+00  9.000E+00
</event>
<event>
      5  10001  2.40292E+09  4.23344E+00 -1.00000E+00  2.57694E-01
      21    -1     0     0   513   515  0.000000000E+00  0.000000000E+00  2.981308090E+00  2.981308090E+00  0.000000000E+00  0.00000E+00  9.000E+00
      21    -1     0     0   516   514  0.000000000E+00  0.000000000E+00 -1.704789369E+02  1.704789369E+02  0.000000000E+00  0.00000E+00  9.000E+00
      21     1     1     2   513   514  8.040168438E+00 -1.264895676E+01 -1.971459481E+01  2.476500886E+01  7.539457465E-07  0.00000E+00  9.000E+00
      21     1     1     2   512   515 -6.516474615E+00  8.699222445E+00 -1.281943630E+02  1.286543261E+02  1.907348633E-06  0.00000E+00  9.000E+00
      21     1     1     2   516   512 -1.523693823E+00  3.949734315E+00 -1.958867096E+01  2.004091001E+01  4.768371582E-07  0.00000E+00  9.000E+00
</event>
<event>
      5  10001  2.40292E+09  3.43191E+01 -1.00000E+00  1.49057E-01
       2    -1     0     0   514     0  0.000000000E+00  0.000000000E+00  1.108737656E+03  1.108737656E+03  0.000000000E+00  0.00000E+00  9.000E+00
      21    -1     0     0   512   513  0.000000000E+00  0.000000000E+00 -1.332730925E+01  1.332730925E+01  0.000000000E+00  0.00000E+00  9.000E+00
      21     1     1     2   512   511  1.880229941E+01  1.250310202E+01  5.171618761E-01  2.258586903E+01  1.617616965E-06  0.00000E+00  9.000E+00
       2     1     1     2   511     0 -4.315315743E+01 -3.668639087E+01  8.839110061E+02  8.857239197E+02  3.300000131E-01  0.00000E+00  9.000E+00
      21     1     1     2   514   513  2.435085802E+01  2.418328884E+01  2.109821786E+02  2.137551764E+02  3.814697266E-06  0.00000E+00  9.000E+00
</event>
<event>
      5  10001  2.40292E+09  4.57697E+00 -1.00000E+00  2.50306E-01
      21    -1     0     0   511   515  0.000000000E+00  0.000000000E+00  5.554892306E+00  5.554892306E+00  0.000000000E+00  0.00000E+00  9.000E+00
      -2    -1     0     0     0   513  0.000000000E+00  0.000000000E+00 -6.245690922E+01  6.245690922E+01  0.000000000E+00  0.00000E+00  9.000E+00
      -2     1     1     2     0   515  9.912075487E+00 -1.004046057E+01 -4.400374978E+01  4.621145944E+01  3.300000131E-01  0.00000E+00  9.000E+00
      21     1     1     2   512   513 -1.085458898E+01  5.561985230E+00 -1.205104515E+01  1.714600452E+01  4.460403188E-07  0.00000E+00  9.000E+00
      21     1     1     2   511   512  9.425134949E-01  4.478475343E+00 -8.472219799E-01  4.654337565E+00  4.080851059E-08  0.00000E+00  9.000E+00
</event>
<event>
      5  10001  2.40292E+09  1.76943E+01 -1.00000E+00  1.70837E-01
      21    -1     0     0   514   513  0.000000000E+00  0.000000000E+00  3.802719063E+01  3.802719063E+01  0.000000000E+00  0.00000E+00  9.000E+00
      21    -1     0     0   515   514  0.000000000E+00  0.000000000E+00 -8.124641010E+01  8.124641010E+01  0.000000000E+00  0.00000E+00  9.000E+00
      21     1     1     2   512   513  7.164497643E+00  1.819334303E+01  3.018425937E+01  3.596411087E+01  4.768371582E-07  0.00000E+00  9.000E+00
      21     1     1     2   516   512  5.888629341E+00 -6.247405908E+00 -8.473318719E-01  8.626934994E+00  1.429269172E-07  0.00000E+00  9.000E+00
      21     1     1     2   515   516 -1.305312698E+01 -1.194593713E+01 -7.255614697E+01  7.468255487E+01  1.348699152E-06  0.00000E+00  9.000E+00
</event>
<event>
      5  10001  2.40292E+09  5.47347E+00 -1.00000E+00  2.31767E-01
      21    -1     0     0   512   515  0.000000000E+00  0.000000000E+00  7.850512207E-01  7.850512207E-01  0.000000000E+00  0.00000E+00  9.000E+00
      -3    -1     0     0     0   511  0.000000000E+00  0.000000000E+00 -2.840693630E+02  2.840693630E+02  0.000000000E+00  0.00000E+00  9.000E+00
      -3     1     1     2     0   515 -6.841885886E+00 -7.101808821E+00 -2.423103176E+02  2.425114164E+02  5.000000000E-01  0.00000E+00  9.000E+00
      21     1     1     2   512   513  1.674565661E+00  1.185615418E+00 -3.521608966E+00  4.075731073E+00  1.032382731E-07  0.00000E+00  9.000E+00
      21     1     1     2   513   511  5.167320225E+00  5.916193402E+00 -3.745238524E+01  3.826726672E+01  1.066240300E-06  0.00000E+00  9.000E+00
</event>
<event>
      5  10001  2.40292E+09  6.77060E+00 -1.00000E+00  2.17547E-01
       3    -1     0     0   512     0  0.000000000E+00  0.000000000E+00  1.191103835E+00  1.191103835E+00  0.000000000E+00  0.00000E+00  9.000E+00
      21    -1     0     0   513   511  0.000000000E+00  0.000000000E+00 -1.722713327E+02  1.722713327E+02  0.000000000E+00  0.00000E+00  9.000E+00
      21     1     1     2   512   511 -1.109656849E+00  9.501016753E+00 -1.244029593E+02  1.247701764E+02  1.348699152E-06  0.00000E+00  9.000E+00
      21     1     1     2   513   514 -2.490489039E+00 -9.679530457E+00 -3.777578823E+01  3.907564487E+01  6.743495762E-07  0.00000E+00  9.000E+00
       3     1     1     2   514     0  3.600145887E+00  1.785137041E-01 -8.901481329E+00  9.616615174E+00  5.000000000E-01  0.00000E+00  9.000E+00
</event>
<event>
      5  10001  2.40292E+09  3.54235E+00 -1.00000E+00  2.76437E-01
      21    -1     0     0   511   515  0.000000000E+00  0.000000000E+00  5.956831738E+01  5.956831738E+01  0.000000000E+00  0.00000E+00  9.000E+00
      21    -1     0     0   512   514  0.000000000E+00  0.000000000E+00 -7.165433066E+00  7.165433066E+00  0.000000000E+00  0.00000E+00  9.000E+00
      -1     1     1     2     0   514  7.921083805E+00  4.812268825E+00  1.006417677E+01  1.368568793E+01  3.300000131E-01  0.00000E+00  9.000E+00
      21     1     1     2   512   515 -1.076593632E+01 -2.702935606E+00  5.557241400E-01  1.111395857E+01  3.611034398E-07  0.00000E+00  9.000E+00
       1     1     1     2   511     0  2.844852513E+00 -2.109333220E+00  4.178298340E+01  4.193410395E+01  3.300000131E-01  0.00000E+00  9.000E+00
</event>
<event>
      5  10001  2.40292E+09  7.05927E+00 -1.00000E+00  2.14966E-01
      21    -1     0     0   513   512  0.000000000E+00  0.000000000E+00  1.256146497E+03  1.256146497E+03  0.000000000E+00  0.00000E+00  9.000E+00
      21    -1     0     0   517   516  0.000000000E+00  0.000000000E+00 -8.630431943E-01  8.630431943E-01  0.000000000E+00  0.00000E+00  9.000E+00
      21     1     1     2   513   516 -4.151779012E+00 -8.947174046E+00  2.917021670E+01  3.079270587E+01  8.259061849E-07  0.00000E+00  9.000E+00
      21     1     1     2   517   514 -1.824440998E+00  7.722647412E+00  9.638226087E+02  9.638552738E+02  1.525878906E-05  0.00000E+00  9.000E+00
      21     1     1     2   514   512  5.976220010E+00  1.224526634E+00  2.622906286E+02  2.623615607E+02  3.814697266E-06  0.00000E+00  9.000E+00
</event>
<event>
      5  10001  2.40292E+09  1.91522E+01 -1.00000E+00  1.67894E-01
      21    -1     0     0   511   512  0.000000000E+00  0.000000000E+00  4.447773525E+01  4.447773525E+01  0.000000000E+00  0.00000E+00  9.000E+00
      -2    -1     0     0     0   511  0.000000000E+00  0.000000000E+00 -4.013861543E+00  4.013861543E+00  0.000000000E+00  0.00000E+00  9.000E+00
      21     1     1     2   515   513  4.502286468E+00 -7.894034624E+00  2.432746780E+01  2.596944465E+01  0.000000000E+00  0.00000E+00  9.000E+00
      21     1     1     2   513   512 -3.742278196E+00  3.164077970E+00  1.695666137E+01  1.765062040E+01  2.384185791E-07  0.00000E+00  9.000E+00
      -2     1     1     2     0   515 -7.600082724E-01  4.729956654E+00 -8.202554612E-01  4.871531746E+00  3.300000131E-01  0.00000E+00  9.000E+00
</event>
<event>
      5  10001  2.40292E+09  1.39400E+01 -1.00000E+00  1.80386E-01
      21    -1     0     0   514   513  0.000000000E+00  0.000000000E+00  6.811191268E+01  6.811191268E+01  0.000000000E+00  0.00000E+00  9.000E+00
      21    -1     0     0   511   515  0.000000000E+00  0.000000000E+00 -2.392848606E+01  2.392848606E+01  0.000000000E+00  0.00000E+00  9.000E+00
      21     1     1     2   514   515  3.459131853E+00  1.130308104E+01  5.041878265E+01  5.178589459E+01  6.743495762E-07  0.00000E+00  9.000E+00
      21     1     1     2   516   513 -1.598629992E+01 -5.188052929E+00  9.440536563E+00  1.927696576E+01  2.920019320E-07  0.00000E+00  9.000E+00
      21     1     1     2   511   516  1.252716807E+01 -6.115028110E+00 -1.567589260E+01  2.097753840E+01  3.371747881E-07  0.00000E+00  9.000E+00
</event>
<event>
      5  10001  2.40292E+09  1.11879E+01 -1.00000E+00  1.90231E-01
      21    -1     0     0   512   515  0.000000000E+00  0.000000000E+00  4.246558869E+01  4.246558869E+01  0.000000000E+00  0.00000E+00  9.000E+00
      21    -1     0     0   511   517  0.000000000E+00  0.000000000E+00 -3.648328603E+00  3.648328603E+00  0.000000000E+00  0.00000E+00  9.000E+00
      21     1     1     2   512   517  8.350679536E+00  5.638034805E+00  1.762161290E+01  2.029883067E+01  2.384185791E-07  0.00000E+00  9.000E+00
      21     1     1     2   511   513 -2.006847376E+00 -4.448328071E+00  1.525338514E+00  5.112897085E+00  1.800514158E-07  0.00000E+00  9.000E+00
      21     1     1     2   513   515 -6.343832160E+00 -1.189706734E+00  1.967030867E+01  2.070218954E+01  2.384185791E-07  0.00000E+00  9.000E+00
</event>
<event>
      5  10001  2.40292E+09  5.33549E+00 -1.00000E+00  2.33607E-01
      21    -1     0     0   514   511  0.000000000E+00  0.000000000E+00  1.475713662E+01  1.475713662E+01  0.000000000E+00  0.00000E+00  9.000E+00
      21    -1     0     0   516   515  0.000000000E+00  0.000000000E+00 -5.565329068E+01  5.565329068E+01  0.000000000E+00  0.00000E+00  9.000E+00
      21     1     1     2   514   515  6.807246898E+00 -6.605336428E+00  1.138096444E+01  1.481537820E+01  3.371747881E-07  0.00000E+00  9.000E+00
      21     1     1     2   516   512 -4.915841634E+00  7.956954646E+00 -5.243723349E+01  5.326482969E+01  9.536743164E-07  0.00000E+00  9.000E+00
      21     1     1     2   512   511 -1.891405264E+00 -1.351618218E+00  1.601149791E-01  2.330219407E+00  2.341308648E-08  0.00000E+00  9.000E+00
</event>
<event>
      5  10001  2.40292E+09  6.51027E+00 -1.00000E+00  2.20029E-01
      21    -1     0     0   513   515  0.000000000E+00  0.000000000E+00  7.220683080E+00  7.220683080E+00  0.000000000E+00  0.00000E+00  9.000E+00
      21    -1     0     0   517   511  0.000000000E+00  0.000000000E+00 -4.440137498E+01  4.440137498E+01  0.000000000E+00  0.00000E+00  9.000E+00
      21     1     1     2   513   511  5.257241048E-01 -9.586317048E+00 -3.725665166E+01  3.847378267E+01  4.768371582E-07  0.00000E+00  9.000E+00
      21     1     1     2   517   514 -2.550338591E+00  3.727634852E+00  3.812479872E+00  5.910540693E+00  9.424321831E-08  0.00000E+00  9.000E+00
      21     1     1     2   514   515  2.024614486E+00  5.858682196E+00 -3.736520109E+00  7.237734688E+00  5.960464478E-08  0.00000E+00  9.000E+00
</event>
<event>
      5  10001  2.40292E+09  1.20587E+01 -1.00000E+00  1.86753E-01
      21    -1     0     0   512   511  0.000000000E+00  0.000000000E+00  2.543491450E+02  2.543491450E+02  0.000000000E+00  0.00000E+00  9.000E+00
      21    -1     0     0   516   515  0.000000000E+00  0.000000000E+00 -9.462340812E-01  9.462340812E-01  0.000000000E+00  0.00000E+00  9.000E+00
      21     1     1     2   512   515  2.478431958E+00 -8.330824690E+00  3.726634546E+01  3.826650976E+01  6.743495762E-07  0.00000E+00  9.000E+00
      21     1     1     2   516   513  3.039530490E+00  1.157297780E+01  1.737885101E+02  1.741999392E+02  1.907348633E-06  0.00000E+00  9.000E+00
      21     1     1     2   513   511 -5.517962449E+00 -3.242153111E+00  4.234805539E+01  4.282893020E+01  4.768371582E-07  0.00000E+00  9.000E+00
</event>
<event>
      5  10001  2.40292E+09  2.21037E+01 -1.00000E+00  1.62823E-01
      21    -1     0     0   514   513  0.000000000E+00  0.000000000E+00  1.243954662E+01  1.243954662E+01  0.000000000E+00  0.00000E+00  9.000E+00
      21    -1     0     0   511   514  0.000000000E+00  0.000000000E+00 -4.328744514E+01  4.328744514E+01  0.000000000E+00  0.00000E+00  9.000E+00
      21     1     1     2   516   513  4.897830375E+00 -1.176362258E+01  7.332052493E+00  1.470137927E+01  8.429369702E-08  0.00000E+00  9.000E+00
      21     1     1     2   511   512  1.570359138E-01  2.721139579E+00 -1.970379346E+00  3.363280490E+00  5.960464478E-08  0.00000E+00  9.000E+00
      21     1     1     2   512   516 -5.054866289E+00  9.042483000E+00 -3.620957166E+01  3.766233201E+01  6.743495762E-07  0.00000E+00  9.000E+00
</event>
<event>
      5  10001  2.40292E+09  4.67222E+00 -1.00000E+00  2.48429E-01
      21    -1     0     0   512   511  0.000000000E+00  0.000000000E+00  5.464300661E+00  5.464300661E+00  0.000000000E+00  0.00000E+00  9.000E+00
       2    -1     0     0   514     0  0.000000000E+00  0.000000000E+00 -5.014456340E+02  5.014456340E+02  0.000000000E+00  0.00000E+00  9.000E+00
      21     1     1     2   513   511 -5.949098710E+00 -2.135463441E+01 -2.019797921E+01  2.998950734E+01  1.305872339E-06  0.00000E+00  9.000E+00
       2     1     1     2   512     0  6.345675117E+00  2.600994061E+01 -4.426808007E+02  4.434897799E+02  3.300000131E-01  0.00000E+00  9.000E+00
      21     1     1     2   514   513 -3.965764080E-01 -4.655306206E+00 -3.310255335E+01  3.343064742E+01  0.000000000E+00  0.00000E+00  9.000E+00
</event>
<event>
      5  10001  2.40292E+09  6.97974E+00 -1.00000E+00  2.15660E-01
       2    -1     0     0   514     0  0.000000000E+00  0.000000000E+00  7.904457904E+01  7.904457904E+01  0.000000000E+00  0.00000E+00  9.000E+00
      21    -1     0     0   515   512  0.000000000E+00  0.000000000E+00 -4.394634555E+00  4.394634555E+00  0.000000000E+00  0.00000E+00  9.000E+00
      -1     1     1     2     0   512 -6.477146459E+00 -2.730806090E+00  2.039078237E+00  7.326490853E+00  3.300000131E-01  0.00000E+00  9.000E+00
       2     1     1     2   515     0  6.026244013E+00  9.211369860E+00  6.572187991E+01  6.663812235E+01  3.300000131E-01  0.00000E+00  9.000E+00
       1     1     1     2   514     0  4.509024451E-01 -6.480563770E+00  6.888986335E+00  9.474600389E+00  3.300000131E-01  0.00000E+00  9.000E+00
</event>
<event>
      5  10001  2.40292E+09  5.19582E+00 -1.00000E+00  2.35551E-01
       3    -1     0     0   512     0  0.000000000E+00  0.000000000E+00  5.469757521E+01  5.469757521E+01  0.000000000E+00  0.00000E+00  9.000E+00
      21    -1     0     0   511   515  0.000000000E+00  0.000000000E+00 -8.147884880E+01  8.147884880E+01  0.000000000E+00  0.00000E+00  9.000E+00
      21     1     1     2   512   513  1.077122239E+01 -9.753027248E+00 -1.341644908E+01  1.977730715E+01  5.840038640E-07  0.00000E+00  9.000E+00
       3     1     1     2   511     0 -5.591803688E+00  1.016460457E+01  5.075639521E+01  5.206773578E+01  5.000000000E-01  0.00000E+00  9.000E+00
      21     1     1     2   513   515 -5.179418700E+00 -4.115773265E-01 -6.412121972E+01  6.433138108E+01  9.536743164E-07  0.00000E+00  9.000E+00
</event>
<event>
      5  10001  2.40292E+09  9.50201E+00 -1.00000E+00  1.98297E-01
      21    -1     0     0   514   511  0.000000000E+00  0.000000000E+00  2.897425652E+02  2.897425652E+02  0.000000000E+00  0.00000E+00  9.000E+00
      21    -1     0     0   516   512  0.000000000E+00  0.000000000E+00 -1.770091537E+00  1.770091537E+00  0.000000000E+00  0.00000E+00  9.000E+00
      21     1     1     2   516   515  3.129838621E+00 -9.145257530E+00  1.902734931E+01  2.134178172E+01  4.129530925E-07  0.00000E+00  9.000E+00
      21     1     1     2   515   511  5.809464780E+00  1.236659242E+01  2.118783344E+02  2.123184191E+02  2.697398305E-06  0.00000E+00  9.000E+00
      21     1     1     2   514   512 -8.939303401E+00 -3.221334892E+00  5.706678996E+01  5.785245595E+01  6.743495762E-07  0.00000E+00  9.000E+00
</event>
<event>
      5  10001  2.40292E+09  6.82926E+00 -1.00000E+00  2.17008E-01
      21    -1     0     0   512   513  0.000000000E+00  0.000000000E+00  1.443159306E+01  1.443159306E+01  0.000000000E+00  0.00000E+00  9.000E+00
      -2    -1     0     0     0   512  0.000000000E+00  0.000000000E+00 -1.336864066E+01  1.336864066E+01  0.000000000E+00  0.00000E+00  9.000E+00
      -2     1     1     2     0   511  4.574014081E-01  1.063750591E+01 -7.420753424E+00  1.298238150E+01  3.300000131E-01  0.00000E+00  9.000E+00
      21     1     1     2   515   513 -2.789388295E+00 -5.013207638E+00  2.425173730E+00  6.228515513E+00  8.429369702E-08  0.00000E+00  9.000E+00
      21     1     1     2   511   515  2.331986887E+00 -5.624298274E+00  6.058532093E+00  8.589336705E+00  1.192092896E-07  0.00000E+00  9.000E+00
</event>
<event>
      5  10001  2.40292E+09  5.46091E+00 -1.00000E+00  2.31932E-01
      21    -1     0     0   512   513  0.000000000E+00  0.000000000E+00  8.303644057E+01  8.303644057E+01  0.000000000E+00  0.00000E+00  9.000E+00
      21    -1     0     0   516   514  0.000000000E+00  0.000000000E+00 -1.553720997E+01  1.553720997E+01  0.000000000E+00  0.00000E+00  9.000E+00
      21     1     1     2   515   513 -1.780686297E+01  5.789667619E-01  3.017257418E+01  3.504003145E+01  4.768371582E-07  0.00000E+00  9.000E+00
      21     1     1     2   516   515  1.693739579E+01 -5.970214761E+00 -6.701242819E+00  1.916834619E+01  3.039252468E-07  0.00000E+00  9.000E+00
      21     1     1     2   512   514  8.694671747E-01  5.391247999E+00  4.402789924E+01  4.436527290E+01  9.536743164E-07  0.00000E+00  9.000E+00
</event>
<event>
      5  10001  2.40292E+09  6.15990E+00 -1.00000E+00  2.23635E-01
       2    -1     0     0   511     0  0.000000000E+00  0.000000000E+00  1.251552241E+00  1.251552241E+00  0.000000000E+00  0.00000E+00  9.000E+00
       2    -1     0     0   512     0  0.000000000E+00  0.000000000E+00 -4.307545985E+02  4.307545985E+02  0.000000000E+00  0.00000E+00  9.000E+00
       2     1     1     2   511     0 -3.033145707E+00  1.204448215E+01 -3.806931258E+02  3.808958315E+02  3.300000131E-01  0.00000E+00  9.000E+00
       2     1     1     2   513     0 -1.124531685E+00 -6.505393475E+00 -1.244303661E+01  1.408981106E+01  3.300000131E-01  0.00000E+00  9.000E+00
      21     1     1     2   512   513  4.157677392E+00 -5.539088676E+00 -3.636688387E+01  3.702050819E+01  9.536743164E-07  0.00000E+00  9.000E+00
</event>
<event>
      5  10001  2.40292E+09  1.60580E+01 -1.00000E+00  1.74594E-01
      21    -1     0     0   514   513  0.000000000E+00  0.000000000E+00  2.138777426E+01  2.138777426E+01  0.000000000E+00  0.00000E+00  9.000E+00
      21    -1     0     0   513   511  0.000000000E+00  0.000000000E+00 -6.364061150E+00  6.364061150E+00  0.000000000E+00  0.00000E+00  9.000E+00
      -2     1     1     2     0   511 -5.512475696E+00  3.494699955E+00  2.937226740E+00  7.164950594E+00  3.300000131E-01  0.00000E+00  9.000E+00
      21     1     1     2   514   515  5.029986026E+00  1.577686856E+00 -1.973167848E+00  5.628787311E+00  1.053671213E-07  0.00000E+00  9.000E+00
       2     1     1     2   515     0  4.824896701E-01 -5.072386811E+00  1.405965422E+01  1.495809751E+01  3.300000131E-01  0.00000E+00  9.000E+00
</event>
<event>
      5  10001  2.40292E+09  1.64201E+01 -1.00000E+00  1.73715E-01
      -2    -1     0     0     0   513  0.000000000E+00  0.000000000E+00  7.627252007E+02  7.627252007E+02  0.000000000E+00  0.00000E+00  9.000E+00
      -2    -1     0     0     0   511  0.000000000E+00  0.000000000E+00 -6.373094615E+01  6.373094615E+01  0.000000000E+00  0.00000E+00  9.000E+00
      -2     1     1     2     0   512 -1.243826771E+01 -2.906000596E+01 -5.867857492E+01  6.665192049E+01  3.300000131E-01  0.00000E+00  9.000E+00
      -2     1     1     2     0   511  2.674835028E+01  2.100775958E+01  3.158024723E+02  3.176288882E+02  3.300000131E-01  0.00000E+00  9.000E+00
      21     1     1     2   512   513 -1.431008256E+01  8.052246375E+00  4.418703572E+02  4.421753381E+02  0.000000000E+00  0.00000E+00  9.000E+00
</event>
<event>
      5  10001  2.40292E+09  5.05229E+00 -1.00000E+00  2.37642E-01
      21    -1     0     0   514   512  0.000000000E+00  0.000000000E+00  1.742282688E+02  1.742282688E+02  0.000000000E+00  0.00000E+00  9.000E+00
      21    -1     0     0   513   514  0.000000000E+00  0.000000000E+00 -4.176429247E+00  4.176429247E+00  0.000000000E+00  0.00000E+00  9.000E+00
      21     1     1     2   513   515 -1.084154035E+01 -9.811520275E+00  1.051003819E+01  1.800738265E+01  2.665600750E-07  0.00000E+00  9.000E+00
      21     1     1     2   511   512  4.606686769E+00  7.266193804E+00  1.179969180E+02  1.183101508E+02  1.348699152E-06  0.00000E+00  9.000E+00
      21     1     1     2   515   511  6.234853582E+00  2.545326471E+00  4.154488343E+01  4.208716461E+01  8.259061849E-07  0.00000E+00  9.000E+00
</event>
<event>
      5  10001  2.40292E+09  7.54587E+00 -1.00000E+00  2.10977E-01
      -4    -1     0     0     0   516  0.000000000E+00  0.000000000E+00  3.020485771E+00  3.020485771E+00  0.000000000E+00  0.00000E+00  9.000E+00
      21    -1     0     0   512   511  0.000000000E+00  0.000000000E+00 -4.244184855E+01  4.244184855E+01  0.000000000E+00  0.00000E+00  9.000E+00
      -4     1     1     2     0   511 -3.230887458E-01  1.038824627E+01 -2.111163095E+01  2.357903748E+01  1.500000000E+00  0.00000E+00  9.000E+00
      21     1     1     2   512   513  6.342483923E-01 -3.985486966E+00 -1.283105571E+01  1.345073857E+01  1.685873940E-07  0.00000E+00  9.000E+00
      21     1     1     2   513   516 -3.111596464E-01 -6.402759305E+00 -5.478676113E+00  8.432558271E+00  1.685873940E-07  0.00000E+00  9.000E+00
</event>
<event>
      5  10001  2.40292E+09  2.24575E+01 -1.00000E+00  1.62281E-01
       2    -1     0     0   511     0  0.000000000E+00  0.000000000E+00  3.801787150E+02  3.801787150E+02  0.000000000E+00  0.00000E+00  9.000E+00
      21    -1     0     0   513   514  0.000000000E+00  0.000000000E+00 -5.369584191E+00  5.369584191E+00  0.000000000E+00  0.00000E+00  9.000E+00
      21     1     1     2   512   514  8.176986201E-01 -6.673788805E+00  7.289941060E+00  9.917223841E+00  2.064765462E-07  0.00000E+00  9.000E+00
       2     1     1     2   513     0 -8.804439987E+00  4.311561717E+00  3.671637356E+02  3.672947391E+02  3.300000131E-01  0.00000E+00  9.000E+00
      21     1     1     2   511   512  7.986741367E+00  2.362227089E+00  3.554541484E-01  8.336336253E+00  3.650024150E-07  0.00000E+00  9.000E+00
</event>
<event>
      5  10001  2.40292E+09  1.02364E+01 -1.00000E+00  1.94534E-01
       2    -1     0     0   513     0  0.000000000E+00  0.000000000E+00  1.424438098E+02  1.424438098E+02  0.000000000E+00  0.00000E+00  9.000E+00
      21    -1     0     0   511   515  0.000000000E+00  0.000000000E+00 -1.280442208E+02  1.280442208E+02  0.000000000E+00  0.00000E+00  9.000E+00
      21     1     1     2   513   514 -2.520990529E+00  2.211483378E+00 -1.208415810E+02  1.208881042E+02  3.303624740E-06  0.00000E+00  9.000E+00
       2     1     1     2   511     0  2.387789094E+00 -1.109014795E+01  1.393530496E+02  1.398144279E+02  3.300000131E-01  0.00000E+00  9.000E+00
      21     1     1     2   514   515  1.332014352E-01  8.878664572E+00 -4.111879628E+00  9.785498520E+00  2.795705652E-07  0.00000E+00  9.000E+00
</event>
<event>
      5  10001  2.40292E+09  7.87517E+00 -1.00000E+00  2.08501E-01
       2    -1     0     0   513     0  0.000000000E+00  0.000000000E+00  5.782666174E+01  5.782666174E+01  0.000000000E+00  0.00000E+00  9.000E+00
       2    -1     0     0   512     0  0.000000000E+00  0.000000000E+00 -3.847806586E+00  3.847806586E+00  0.000000000E+00  0.00000E+00  9.000E+00
       2     1     1     2   512     0 -6.077154301E+00  1.027967160E+01  4.145043640E+01  4.313758257E+01  3.300000131E-01  0.00000E+00  9.000E+00
      21     1     1     2   513   511 -5.326895168E-01 -5.165403145E+00  3.703362253E+00  6.378090604E+00  4.214684851E-08  0.00000E+00  9.000E+00
       2     1     1     2   511     0  6.609843818E+00 -5.114268458E+00  8.825056500E+00  1.215879515E+01  3.300000131E-01  0.00000E+00  9.000E+00
</event>
<event>
      5  10001  2.40292E+09  8.19276E+00 -1.00000E+00  2.06263E-01
      21    -1     0     0   514   512  0.000000000E+00  0.000000000E+00  2.371990833E+02  2.371990833E+02  0.000000000E+00  0.00000E+00  9.000E+00
      21    -1     0     0   512   513  0.000000000E+00  0.000000000E+00 -6.736895155E+00  6.736895155E+00  0.000000000E+00  0.00000E+00  9.000E+00
      21     1     1     2   514   511  1.511182843E+01 -1.103963671E+01  2.045292480E+02  2.053836757E+02  2.697398305E-06  0.00000E+00  9.000E+00
       2     1     1     2   511     0 -6.922015675E+00  1.084390863E+01  2.735514662E+01  3.023107014E+01  3.300000131E-01  0.00000E+00  9.000E+00
      -2     1     1     2     0   513 -8.189812752E+00  1.957280805E-01 -1.422206440E+00  8.321232695E+00  3.300000131E-01  0.00000E+00  9.000E+00
</event>
<event>
      5  10001  2.40292E+09  5.72013E+00 -1.00000E+00  2.28662E-01
      21    -1     0     0   515   511  0.000000000E+00  0.000000000E+00  5.146631917E+00  5.146631917E+00  0.000000000E+00  0.00000E+00  9.000E+00
      21    -1     0     0   512   515  0.000000000E+00  0.000000000E+00 -5.593604640E+02  5.593604640E+02  0.000000000E+00  0.00000E+00  9.000E+00
      21     1     1     2   512   513  1.272094916E+00  1.106458127E+01 -5.515181477E+02  5.516305923E+02  1.078959322E-05  0.00000E+00  9.000E+00
      21     1     1     2   513   514 -1.927385530E+00 -3.086691912E+00  1.382462632E+00  3.892773416E+00  5.715134415E-07  0.00000E+00  9.000E+00
      21     1     1     2   514   511  6.552906143E-01 -7.977889357E+00 -4.078147037E+00  8.983730163E+00  2.665600750E-07  0.00000E+00  9.000E+00
</event>
<event>
      5  10001  2.40292E+09  1.00771E+01 -1.00000E+00  1.95314E-01
      21    -1     0     0   516   513  0.000000000E+00  0.000000000E+00  4.922551192E-01  4.922551192E-01  0.000000000E+00  0.00000E+00  9.000E+00
      21    -1     0     0   512   511  0.000000000E+00  0.000000000E+00 -2.443462874E+02  2.443462874E+02  0.000000000E+00  0.00000E+00  9.000E+00
      21     1     1     2   516   511 -9.577712013E+00  1.420775603E-01 -8.145503119E+01  8.201630850E+01  1.651812370E-06  0.00000E+00  9.000E+00
      21     1     1     2   512   515  1.513371236E+00  1.665049555E+00 -7.490619756E+01  7.493998342E+01  9.536743164E-07  0.00000E+00  9.000E+00
      21     1     1     2   515   513  8.064340777E+00 -1.807127115E+00 -8.749280354E+01  8.788225061E+01  0.000000000E+00  0.00000E+00  9.000E+00
</event>
<event>
      5  10001  2.40292E+09  9.78025E+00 -1.00000E+00  1.96820E-01
      21    -1     0     0   514   515  0.000000000E+00  0.000000000E+00  4.508179617E+02  4.508179617E+02  0.000000000E+00  0.00000E+00  9.000E+00
      21    -1     0     0   513   514  0.000000000E+00  0.000000000E+00 -3.852800180E-01  3.852800180E-01  0.000000000E+00  0.00000E+00  9.000E+00
      21     1     1     2   512   515  2.182583487E-01  1.038539153E+01  2.094960523E+02  2.097534264E+02  2.697398305E-06  0.00000E+00  9.000E+00
      21     1     1     2   513   511  2.491386275E+00 -6.618326108E+00  5.468043886E+01  5.513582901E+01  6.743495762E-07  0.00000E+00  9.000E+00
      21     1     1     2   511   512 -2.709644624E+00 -3.767065421E+00  1.862561906E+02  1.863139863E+02  0.000000000E+00  0.00000E+00  9.000E+00
</event>
<event>
      5  10001  2.40292E+09  4.06791E+00 -1.00000E+00  2.61652E-01
      21    -1     0     0   516   514  0.000000000E+00  0.000000000E+00  1.167709923E+01  1.167709923E+01  0.000000000E+00  0.00000E+00  9.000E+00
      21    -1     0     0   517   516  0.000000000E+00  0.000000000E+00 -3.242520280E+01  3.242520280E+01  0.000000000E+00  0.00000E+00  9.000E+00
      21     1     1     2   513   511  1.083074766E+00 -9.194747613E+00  6.787394906E+00  1.147977196E+01  3.475518164E-07  0.00000E+00  9.000E+00
      21     1     1     2   517   513 -4.889586750E+00  1.062944967E+01 -2.553808061E+01  2.809068921E+01  4.768371582E-07  0.00000E+00  9.000E+00
      21     1     1     2   511   514  3.806511984E+00 -1.434702062E+00 -1.997417864E+00  4.531840863E+00  9.185692672E-08  0.00000E+00  9.000E+00
</event>
<event>
      5  10001  2.40292E+09  1.55603E+01 -1.00000E+00  1.75849E-01
      21    -1     0     0   512   513  0.000000000E+00  0.000000000E+00  2.312417037E+01  2.312417037E+01  0.000000000E+00  0.00000E+00  9.000E+00
      21    -1     0     0   513   514  0.000000000E+00  0.000000000E+00 -1.952030849E+01  1.952030849E+01  0.000000000E+00  0.00000E+00  9.000E+00
      -1     1     1     2     0   514  1.171706502E+01 -3.880218382E+00 -9.899737854E+00  1.582590967E+01  3.300000131E-01  0.00000E+00  9.000E+00
       1     1     1     2   515     0 -3.315089319E+00  9.076734740E+00  1.389931081E+01  1.693152892E+01  3.300000131E-01  0.00000E+00  9.000E+00
      21     1     1     2   512   515 -8.401975698E+00 -5.196516357E+00 -3.957110717E-01  9.887040262E+00  1.623816395E-07  0.00000E+00  9.000E+00
</event>
<event>
      5  10001  2.40292E+09  4.62451E+00 -1.00000E+00  2.49360E-01
      21    -1     0     0   511   513  0.000000000E+00  0.000000000E+00  1.369691454E+02  1.369691454E+02  0.000000000E+00  0.00000E+00  9.000E+00
      21    -1     0     0   514   511  0.000000000E+00  0.000000000E+00 -9.909141998E+01  9.909141998E+01  0.000000000E+00  0.00000E+00  9.000E+00
      -4     1     1     2     0   512 -1.040633844E+01 -4.523577553E+00 -1.736364859E+01  2.079665661E+01  1.500000000E+00  0.00000E+00  9.000E+00
      21     1     1     2   512   513  6.290714970E+00  6.629967668E+00  1.350242002E+02  1.353331600E+02  1.907348633E-06  0.00000E+00  9.000E+00
       4     1     1     2   514     0  4.115623475E+00 -2.106390115E+00 -7.978282620E+01  7.993074873E+01  1.500000000E+00  0.00000E+00  9.000E+00
</event>
<event>
      5  10001  2.40292E+09  1.18148E+01 -1.00000E+00  1.87688E-01
      21    -1     0     0   514   513  0.000000000E+00  0.000000000E+00  7.914372347E+01  7.914372347E+01  0.000000000E+00  0.00000E+00  9.000E+00
       2    -1     0     0   512     0  0.000000000E+00  0.000000000E+00 -6.398239157E+00  6.398239157E+00  0.000000000E+00  0.00000E+00  9.000E+00
      21     1     1     2   512   513  4.987672513E+00 -1.320248504E+01  6.753652867E+01  6.899539980E+01  9.536743164E-07  0.00000E+00  9.000E+00
      21     1     1     2   514   511  1.374028024E+00  2.275149108E+00 -4.396750591E-01  2.693987868E+00  1.106354773E-07  0.00000E+00  9.000E+00
       2     1     1     2   511     0 -6.361700537E+00  1.092733593E+01  5.648630700E+00  1.385257496E+01  3.300000131E-01  0.00000E+00  9.000E+00
</event>
<event>
      5  10001  2.40292E+09  4.12747E+00 -1.00000E+00  2.60195E-01
       2    -1     0     0   515     0  0.000000000E+00  0.000000000E+00  1.861642159E+02  1.861642159E+02  0.000000000E+00  0.00000E+00  9.000E+00
      21    -1     0     0   511   514  0.000000000E+00  0.000000000E+00 -9.573305580E-01  9.573305580E-01  0.000000000E+00  0.00000E+00  9.000E+00
      21     1     1     2   515   514  9.130739650E+00  4.546564804E+00  3.367666983E+01  3.518749422E+01  0.000000000E+00  0.00000E+00  9.000E+00
      21     1     1     2   511   512 -3.447203714E+00 -2.022009796E+00  9.019007315E+01  9.027857460E+01  1.348699152E-06  0.00000E+00  9.000E+00
       2     1     1     2   512     0 -5.683535937E+00 -2.524555008E+00  6.134014232E+01  6.165547760E+01  3.300000131E-01  0.00000E+00  9.000E+00
</event>
<event>
      5  10001  2.40292E+09  6.83065E+00 -1.00000E+00  2.16996E-01
      21    -1     0     0   513   514  0.000000000E+00  0.000000000E+00  1.629751456E+02  1.629751456E+02  0.000000000E+00  0.00000E+00  9.000E+00
      21    -1     0     0   517   516  0.000000000E+00  0.000000000E+00 -2.205857219E+02  2.205857219E+02  0.000000000E+00  0.00000E+00  9.000E+00
      21     1     1     2   513   516  5.590609946E+00  1.022031630E+01 -2.030746907E+02  2.034085539E+02  0.000000000E+00  0.00000E+00  9.000E+00
      21     1     1     2   517   511 -1.055935854E+01 -1.490745663E+01 -1.243923815E+01  2.210128869E+01  9.973764736E-07  0.00000E+00  9.000E+00
      21     1     1     2   511   514  4.968748596E+00  4.687140328E+00  1.579033526E+02  1.580510250E+02  0.000000000E+00  0.00000E+00  9.000E+00
</event>
<event>
      5  10001  2.40292E+09  1.30816E+02 -1.00000E+00  1.18778E-01
      21    -1     0     0   512   516  0.000000000E+00  0.000000000E+00  1.148196393E+01  1.148196393E+01  0.000000000E+00  0.00000E+00  9.000E+00
      21    -1     0     0   514   512  0.000000000E+00  0.000000000E+00 -3.920095018E+02  3.920095018E+02  0.000000000E+00  0.00000E+00  9.000E+00
      21     1     1     2   514   515  6.684137626E+00 -4.879604274E+00 -2.103966220E+02  2.105593189E+02  3.814697266E-06  0.00000E+00  9.000E+00
      21     1     1     2   513   516 -9.996059799E+00 -4.282724886E+00 -1.792548168E+02  1.795843877E+02  1.907348633E-06  0.00000E+00  9.000E+00
      21     1     1     2   515   513  3.311922173E+00  9.162329160E+00  9.123900981E+00  1.334775911E+01  8.429369702E-07  0.00000E+00  9.000E+00
</event>
<event>
      5  10001  2.40292E+09  7.17995E+00 -1.00000E+00  2.13937E-01
       1    -1     0     0   512     0  0.000000000E+00  0.000000000E+00  4.084373015E+01  4.084373015E+01  0.000000000E+00  0.00000E+00  9.000E+00
      21    -1     0     0   513   512  0.000000000E+00  0.000000000E+00 -2.951623279E+01  2.951623279E+01  0.000000000E+00  0.00000E+00  9.000E+00
      21     1     1     2   513   514 -6.621650390E+00 -1.003603972E+00 -2.059626760E+01  2.165778645E+01  4.129530925E-07  0.00000E+00  9.000E+00
       1     1     1     2   511     0  1.188515964E+01 -4.567039101E+00  3.725120352E+01  3.936846364E+01  3.300000131E-01  0.00000E+00  9.000E+00
      21     1     1     2   514   511 -5.263509249E+00  5.570643074E+00 -5.327438562E+00  9.333712846E+00  1.576990671E-07  0.00000E+00  9.000E+00
</event>
<event>
      5  10001  2.40292E+09  3.73331E+00 -1.00000E+00  2.70622E-01
      21    -1     0     0   515   512  0.000000000E+00  0.000000000E+00  9.391759503E+01  9.391759503E+01  0.000000000E+00  0.00000E+00  9.000E+00
      21    -1     0     0   513   516  0.000000000E+00  0.000000000E+00 -7.985141069E+00  7.985141069E+00  0.000000000E+00  0.00000E+00  9.000E+00
      21     1     1     2   515   516 -2.678501980E+00 -9.297927505E+00  3.703847073E+00  1.036071001E+01  1.931411236E-07  0.00000E+00  9.000E+00
      21     1     1     2   513   511  5.952794925E+00  1.109142624E+01  3.976713299E+00  1.320112692E+01  9.424321831E-08  0.00000E+00  9.000E+00
      21     1     1     2   511   512 -3.274292945E+00 -1.793498733E+00  7.825189359E+01  7.834089917E+01  9.536743164E-07  0.00000E+00  9.000E+00
</event>
<event>
      5  10001  2.40292E+09  8.15499E+00 -1.00000E+00  2.06522E-01
       2    -1     0     0   513     0  0.000000000E+00  0.000000000E+00  8.068932427E+02  8.068932427E+02  0.000000000E+00  0.00000E+00  9.000E+00
      21    -1     0     0   511   514  0.000000000E+00  0.000000000E+00 -4.184223463E-01  4.184223463E-01  0.000000000E+00  0.00000E+00  9.000E+00
      21     1     1     2   513   515 -6.138101214E+00  2.680828573E+00  2.910851995E+01  2.986919922E+01  1.348699152E-06  0.00000E+00  9.000E+00
       2     1     1     2   511     0  6.766184916E+00 -5.036579673E+00  5.957351258E+02  5.957949290E+02  3.300000131E-01  0.00000E+00  9.000E+00
      21     1     1     2   515   514 -6.280837012E-01  2.355751100E+00  1.816311746E+02  1.816475368E+02  2.697398305E-06  0.00000E+00  9.000E+00
</event>
<event>
      5  10001  2.40292E+09  1.91272E+01 -1.00000E+00  1.67942E-01
      21    -1     0     0   512   511  0.000000000E+00  0.000000000E+00  1.301746352E+01  1.301746352E+01  0.000000000E+00  0.00000E+00  9.000E+00
      21    -1     0     0   515   516  0.000000000E+00  0.000000000E+00 -2.123235154E+01  2.123235154E+01  0.000000000E+00  0.00000E+00  9.000E+00
      21     1     1     2   512   516  8.220945540E+00  7.102157568E+00 -8.188241053E-01  1.089472627E+01  1.452385537E-07  0.00000E+00  9.000E+00
      21     1     1     2   513   511 -8.227364677E+00  2.522638768E+00 -1.018564124E+01  1.333418627E+01  1.192092896E-07  0.00000E+00  9.000E+00
      21     1     1     2   515   513  6.419137307E-03 -9.624796337E+00  2.789577322E+00  1.002090252E+01  1.931411236E-07  0.00000E+00  9.000E+00
</event>
<event>
      5  10001  2.40292E+09  1.52359E+01 -1.00000E+00  1.76700E-01
       4    -1     0     0   512     0  0.000000000E+00  0.000000000E+00  9.109990691E+00  9.109990691E+00  0.000000000E+00  0.00000E+00  9.000E+00
      21    -1     0     0   513   512  0.000000000E+00  0.000000000E+00 -1.479364123E+02  1.479364123E+02  0.000000000E+00  0.00000E+00  9.000E+00
      21     1     1     2   513   511 -4.762803464E+00 -2.502468890E+00 -8.213087275E+01  8.230690680E+01  0.000000000E+00  0.00000E+00  9.000E+00
       4     1     1     2   514     0  5.783502884E+00 -9.657377023E+00  4.591598895E+00  1.224935170E+01  1.500000000E+00  0.00000E+00  9.000E+00
      21     1     1     2   511   514 -1.020699420E+00  1.215984591E+01 -6.128714776E+01  6.249014451E+01  9.536743164E-07  0.00000E+00  9.000E+00
</event>
<event>
      5  10001  2.40292E+09  3.62725E+00 -1.00000E+00  2.73782E-01
      21    -1     0     0   515   511  0.000000000E+00  0.000000000E+00  4.495154455E+00  4.495154455E+00  0.000000000E+00  0.00000E+00  9.000E+00
      21    -1     0     0   516   515  0.000000000E+00  0.000000000E+00 -5.647070463E+01  5.647070463E+01  0.000000000E+00  0.00000E+00  9.000E+00
      21     1     1     2   516   513  1.026630707E+01  1.127063661E+01 -2.682625777E+01  3.085567073E+01  3.371747881E-07  0.00000E+00  9.000E+00
      21     1     1     2   513   512 -8.010826038E+00 -9.104847613E+00 -1.395901763E+01  1.849123460E+01  3.371747881E-07  0.00000E+00  9.000E+00
      21     1     1     2   512   511 -2.255481034E+00 -2.165789001E+00 -1.119027478E+01  1.161895375E+01  1.192092896E-07  0.00000E+00  9.000E+00
</event>
<event>
      5  10001  2.40292E+09  1.95701E+01 -1.00000E+00  1.67110E-01
      21    -1     0     0   514   513  0.000000000E+00  0.000000000E+00  1.272822278E+01  1.272822278E+01  0.000000000E+00  0.00000E+00  9.000E+00
      21    -1     0     0   516   511  0.000000000E+00  0.000000000E+00 -1.842944773E+01  1.842944773E+01  0.000000000E+00  0.00000E+00  9.000E+00
      21     1     1     2   514   511 -6.282073033E-01 -6.195323833E+00  2.371380367E+00  6.663342004E+00  1.884864366E-07  0.00000E+00  9.000E+00
      21     1     1     2   515   513 -5.383661907E-02  2.223132430E+00 -1.570580463E+01  1.586245616E+01  1.685873940E-07  0.00000E+00  9.000E+00
      21     1     1     2   516   515  6.820439223E-01  3.972191404E+00  7.633199315E+00  8.631872348E+00  1.192092896E-07  0.00000E+00  9.000E+00
</event>
<event>
      5  10001  2.40292E+09  1.37053E+00 -1.00000E+00  4.77446E-01
       3    -1     0     0   511     0  0.000000000E+00  0.000000000E+00  1.196593398E+00  1.196593398E+00  0.000000000E+00  0.00000E+00  9.000E+00
       2    -1     0     0   513     0  0.000000000E+00  0.000000000E+00 -8.225372796E+02  8.225372796E+02  0.000000000E+00  0.00000E+00  9.000E+00
       2     1     1     2   512     0 -9.138859445E+00  1.253862423E+01 -5.193427232E+02  5.195745461E+02  3.300000131E-01  0.00000E+00  9.000E+00
       3     1     1     2   513     0  8.902580196E+00 -1.388842185E+01 -3.023048646E+02  3.027550584E+02  5.000000000E-01  0.00000E+00  9.000E+00
      21     1     1     2   511   512  2.362792495E-01  1.349797619E+00  3.069016695E-01  1.404268539E+00  3.360203589E-07  0.00000E+00  9.000E+00
</event>
<event>
      5  10001  2.40292E+09  2.98889E+00 -1.00000E+00  2.97218E-01
      21    -1     0     0   514   513  0.000000000E+00  0.000000000E+00  2.198739841E+00  2.198739841E+00  0.000000000E+00  0.00000E+00  9.000E+00
      21    -1     0     0   516   512  0.000000000E+00  0.000000000E+00 -1.126279056E+02  1.126279056E+02  0.000000000E+00  0.00000E+00  9.000E+00
      21     1     1     2   514   512  6.908151850E+00  1.073160652E+01 -4.517585524E+01  4.694409268E+01  4.768371582E-07  0.00000E+00  9.000E+00
      21     1     1     2   515   513 -3.937192096E+00 -1.105853620E+01 -2.613410657E+01  2.864933212E+01  4.768371582E-07  0.00000E+00  9.000E+00
      21     1     1     2   516   515 -2.970959754E+00  3.269296880E-01 -3.911920398E+01  3.923322068E+01  4.768371582E-07  0.00000E+00  9.000E+00
</event>
<event>
      5  10001  2.40292E+09  1.19897E+01 -1.00000E+00  1.87014E-01
      21    -1     0     0   512   513  0.000000000E+00  0.000000000E+00  4.642886984E+01  4.642886984E+01  0.000000000E+00  0.00000E+00  9.000E+00
       1    -1     0     0   515     0  0.000000000E+00  0.000000000E+00 -2.276570397E+02  2.276570397E+02  0.000000000E+00  0.00000E+00  9.000E+00
      21     1     1     2   515   513 -1.429248374E+01  2.419350195E+01  2.830139634E+01  3.988194658E+01  1.261592536E-06  0.00000E+00  9.000E+00
       1     1     1     2   511     0  1.297122646E+01 -1.227685523E+01 -2.185006303E+02  2.192295788E+02  3.300000131E-01  0.00000E+00  9.000E+00
      21     1     1     2   512   511  1.321257287E+00 -1.191664672E+01  8.971064081E+00  1.497438415E+01  2.920019320E-07  0.00000E+00  9.000E+00
</event>
<event>
      5  10001  2.40292E+09  4.30244E+00 -1.00000E+00  2.56126E-01
      21    -1     0     0   514   515  0.000000000E+00  0.000000000E+00  5.190697341E+01  5.190697341E+01  0.000000000E+00  0.00000E+00  9.000E+00
      21    -1     0     0   516   514  0.000000000E+00  0.000000000E+00 -5.590077968E+00  5.590077968E+00  0.000000000E+00  0.00000E+00  9.000E+00
      21     1     1     2   511   515 -7.065452550E+00 -6.584677345E+00  4.110145383E+01  4.222094389E+01  6.743495762E-07  0.00000E+00  9.000E+00
      21     1     1     2   513   511  7.787071709E+00  4.445106698E+00 -6.510555338E-01  8.990068557E+00  2.647840328E-07  0.00000E+00  9.000E+00
      21     1     1     2   516   513 -7.216191587E-01  2.139570646E+00  5.866497146E+00  6.286038938E+00  8.429369702E-08  0.00000E+00  9.000E+00
</event>
<event>
      5  10001  2.40292E+09  6.18675E+00 -1.00000E+00  2.23347E-01
      21    -1     0     0   512   513  0.000000000E+00  0.000000000E+00  3.539713589E+01  3.539713589E+01  0.000000000E+00  0.00000E+00  9.000E+00
      21    -1     0     0   515   517  0.000000000E+00  0.000000000E+00 -8.697621244E+00  8.697621244E+00  0.000000000E+00  0.00000E+00  9.000E+00
      21     1     1     2   512   517 -1.207241245E+01 -6.486373262E+00  2.316242339E+01  2.691308302E+01  4.768371582E-07  0.00000E+00  9.000E+00
      21     1     1     2   515   511  1.059504347E+01  7.535217657E+00  5.838955739E+00  1.425229299E+01  2.384185791E-07  0.00000E+00  9.000E+00
      21     1     1     2   511   513  1.477368978E+00 -1.048844395E+00 -2.301864483E+00  2.929381122E+00  1.299053116E-07  0.00000E+00  9.000E+00
</event>
<event>
      5  10001  2.40292E+09  8.04819E+00 -1.00000E+00  2.07264E-01
      21    -1     0     0   512   513  0.000000000E+00  0.000000000E+00  1.905560504E+01  1.905560504E+01  0.000000000E+00  0.00000E+00  9.000E+00
      -3    -1     0     0     0   514  0.000000000E+00  0.000000000E+00 -1.030455924E+02  1.030455924E+02  0.000000000E+00  0.00000E+00  9.000E+00
      -3     1     1     2     0   511 -1.159972328E+01 -3.575483121E+00 -9.477937215E+01  9.555478557E+01  5.000000000E-01  0.00000E+00  9.000E+00
      21     1     1     2   511   513  1.093988568E+01 -4.445343103E+00  1.360981743E+01  1.801858220E+01  6.529361695E-07  0.00000E+00  9.000E+00
      21     1     1     2   512   514  6.598376018E-01  8.020826224E+00 -2.820432684E+00  8.527829706E+00  1.397852826E-07  0.00000E+00  9.000E+00
</event>
<event>
      5  10001  2.40292E+09  8.40040E+00 -1.00000E+00  2.04871E-01
      21    -1     0     0   515   511  0.000000000E+00  0.000000000E+00  1.651221218E+02  1.651221218E+02  0.000000000E+00  0.00000E+00  9.000E+00
      21    -1     0     0   517   516  0.000000000E+00  0.000000000E+00 -3.042729366E+00  3.042729366E+00  0.000000000E+00  0.00000E+00  9.000E+00
      21     1     1     2   515   516  9.573514244E+00 -2.661627845E+00  6.720804596E+00  1.199606820E+01  1.884864366E-07  0.00000E+00  9.000E+00
       3     1     1     2   517     0 -4.808937249E+00 -2.675890061E+00  1.179189186E+02  1.180483276E+02  5.000000000E-01  0.00000E+00  9.000E+00
      -3     1     1     2     0   511 -4.764576995E+00  5.337517905E+00  3.743966916E+01  3.812045538E+01  5.000000000E-01  0.00000E+00  9.000E+00
</event>
<event>
      5  10001  2.40292E+09  1.06006E+01 -1.00000E+00  1.92817E-01
      21    -1     0     0   512   514  0.000000000E+00  0.000000000E+00  4.406605159E+01  4.406605159E+01  0.000000000E+00  0.00000E+00  9.000E+00
      21    -1     0     0   513   511  0.000000000E+00  0.000000000E+00 -3.187655311E+00  3.187655311E+00  0.000000000E+00  0.00000E+00  9.000E+00
      21     1     1     2   512   511  8.991098001E+00  4.577274691E+00  1.233926056E+01  1.593890329E+01  1.685873940E-07  0.00000E+00  9.000E+00
      21     1     1     2   515   514 -4.262550803E+00  1.179879693E-01  3.859715119E+00  5.751579027E+00  4.214684851E-08  0.00000E+00  9.000E+00
      21     1     1     2   513   515 -4.728547199E+00 -4.695262660E+00  2.467942061E+01  2.556322459E+01  3.371747881E-07  0.00000E+00  9.000E+00
</event>
<event>
      5  10001  2.40292E+09  1.57076E+01 -1.00000E+00  1.75472E-01
      21    -1     0     0   513   514  0.000000000E+00  0.000000000E+00  3.900569304E+01  3.900569304E+01  0.000000000E+00  0.00000E+00  9.000E+00
      -4    -1     0     0     0   516  0.000000000E+00  0.000000000E+00 -2.322835927E+01  2.322835927E+01  0.000000000E+00  0.00000E+00  9.000E+00
      -4     1     1     2     0   514  8.663523333E+00  2.409398910E+01 -5.109792442E+00  2.615218779E+01  1.500000000E+00  0.00000E+00  9.000E+00
      21     1     1     2   511   516 -5.622473896E+00 -1.348439361E+01  2.773333045E+00  1.487052319E+01  2.043144286E-07  0.00000E+00  9.000E+00
      21     1     1     2   513   511 -3.041049437E+00 -1.060959549E+01  1.811379316E+01  2.121134133E+01  0.000000000E+00  0.00000E+00  9.000E+00
</event>
<event>
      5  10001  2.40292E+09  1.31041E+01 -1.00000E+00  1.83046E-01
       5    -1     0     0   513     0  0.000000000E+00  0.000000000E+00  6.622258466E+01  6.622258466E+01  0.000000000E+00  0.00000E+00  9.000E+00
      21    -1     0     0   511   513  0.000000000E+00  0.000000000E+00 -9.031577723E+00  9.031577723E+00  0.000000000E+00  0.00000E+00  9.000E+00
      21     1     1     2   514   512  2.602121852E-01 -8.303087179E+00 -4.611295200E-01  8.319952374E+00  2.140016350E-07  0.00000E+00  9.000E+00
       5     1     1     2   512     0  9.081051576E+00  7.578539356E+00  5.597993507E+01  5.741683455E+01  4.800000191E+00  0.00000E+00  9.000E+00
      21     1     1     2   511   514 -9.341263761E+00  7.245478231E-01  1.672201382E+00  9.517375461E+00  4.214684851E-08  0.00000E+00  9.000E+00
</event>
<event>
      5  10001  2.40292E+09  4.46927E+00 -1.00000E+00  2.52513E-01
       1    -1     0     0   513     0  0.000000000E+00  0.000000000E+00  2.098681189E+02  2.098681189E+02  0.000000000E+00  0.00000E+00  9.000E+00
      21    -1     0     0   512   516  0.000000000E+00  0.000000000E+00 -2.541471824E+01  2.541471824E+01  0.000000000E+00  0.00000E+00  9.000E+00
      21     1     1     2   512   515  5.337683515E+00 -9.003004736E+00  2.223474192E+01  2.457496100E+01  6.307962682E-07  0.00000E+00  9.000E+00
       1     1     1     2   515     0 -8.527034073E+00  5.872154649E+00  1.861120474E+02  1.864000954E+02  3.300000131E-01  0.00000E+00  9.000E+00
      21     1     1     2   513   516  3.189350558E+00  3.130850087E+00 -2.389338866E+01  2.430778066E+01  1.066240300E-06  0.00000E+00  9.000E+00
</event>
<event>
      5  10001  2.40292E+09  1.09642E+01 -1.00000E+00  1.91191E-01
      21    -1     0     0   512   514  0.000000000E+00  0.000000000E+00  7.775707537E+01  7.775707537E+01  0.000000000E+00  0.00000E+00  9.000E+00
      -1    -1     0     0     0   511  0.000000000E+00  0.000000000E+00 -1.808081037E+00  1.808081037E+00  0.000000000E+00  0.00000E+00  9.000E+00
      -1     1     1     2     0   515  4.778298814E+00  5.265500535E+00  9.118669577E+00  1.156791556E+01  3.300000131E-01  0.00000E+00  9.000E+00
      21     1     1     2   512   511 -1.759883639E+00 -7.561797433E+00  3.062462007E+01  3.159343801E+01  3.371747881E-07  0.00000E+00  9.000E+00
      21     1     1     2   515   514 -3.018415175E+00  2.296296898E+00  3.620570468E+01  3.640380284E+01  4.768371582E-07  0.00000E+00  9.000E+00
</event>
<event>
      5  10001  2.40292E+09  5.11949E+00 -1.00000E+00  2.36651E-01
      21    -1     0     0   513   515  0.000000000E+00  0.000000000E+00  1.970593090E+01  1.970593090E+01  0.000000000E+00  0.00000E+00  9.000E+00
      21    -1     0     0   514   513  0.000000000E+00  0.000000000E+00 -8.232326920E+00  8.232326920E+00  0.000000000E+00  0.00000E+00  9.000E+00
      21     1     1     2   514   516 -9.991124922E-01 -9.210469679E+00 -1.867648693E+00  9.450877690E+00  3.257872330E-07  0.00000E+00  9.000E+00
      21     1     1     2   511   515  5.152601723E-01  6.422876757E+00  1.414725856E+01  1.554553839E+01  3.769728732E-07  0.00000E+00  9.000E+00
      21     1     1     2   516   511  4.838523199E-01  2.787592922E+00 -8.060058874E-01  2.941841745E+00  7.598131170E-08  0.00000E+00  9.000E+00
</event>
<event>
      5  10001  2.40292E+09  7.65101E+00 -1.00000E+00  2.10168E-01
      21    -1     0     0   511   513  0.000000000E+00  0.000000000E+00  5.586534527E+01  5.586534527E+01  0.000000000E+00  0.00000E+00  9.000E+00
       1    -1     0     0   514     0  0.000000000E+00  0.000000000E+00 -1.848365861E+02  1.848365861E+02  0.000000000E+00  0.00000E+00  9.000E+00
      21     1     1     2   511   512  4.359426909E+00  9.900016474E+00 -1.005862766E+01  1.477128700E+01  3.576278687E-07  0.00000E+00  9.000E+00
       1     1     1     2   512     0 -2.389987382E+00 -1.729318464E+01 -1.717030956E+02  1.725886098E+02  3.300000131E-01  0.00000E+00  9.000E+00
      21     1     1     2   514   513 -1.969439528E+00  7.393168161E+00  5.279048240E+01  5.334203464E+01  6.743495762E-07  0.00000E+00  9.000E+00
</event>
<event>
      5  10001  2.40292E+09  8.47738E+00 -1.00000E+00  2.04369E-01
      21    -1     0     0   511   516  0.000000000E+00  0.000000000E+00  1.451226517E+02  1.451226517E+02  0.000000000E+00  0.00000E+00  9.000E+00
      21    -1     0     0   513   515  0.000000000E+00  0.000000000E+00 -7.491650083E+01  7.491650083E+01  0.000000000E+00  0.00000E+00  9.000E+00
      21     1     1     2   514   516  1.203852118E+01 -9.195404109E+00  1.197853686E+02  1.207394550E+02  0.000000000E+00  0.00000E+00  9.000E+00
      21     1     1     2   513   514 -8.146921290E+00  1.672676528E+01 -7.250640747E+01  7.485543486E+01  1.348699152E-06  0.00000E+00  9.000E+00
      21     1     1     2   511   515 -3.891599888E+00 -7.531361173E+00  2.292718976E+01  2.444426274E+01  3.371747881E-07  0.00000E+00  9.000E+00
</event>
<event>
      5  10001  2.40292E+09  1.38170E+01 -1.00000E+00  1.80763E-01
      21    -1     0     0   516   514  0.000000000E+00  0.000000000E+00  2.839120776E+02  2.839120776E+02  0.000000000E+00  0.00000E+00  9.000E+00
      21    -1     0     0   517   512  0.000000000E+00  0.000000000E+00 -1.072017580E+01  1.072017580E+01  0.000000000E+00  0.00000E+00  9.000E+00
      21     1     1     2   513   514 -1.569515279E+01 -1.990892390E+01  3.530032983E+01  4.346051493E+01  6.743495762E-07  0.00000E+00  9.000E+00
      21     1     1     2   517   513  1.280293161E+01  6.398047982E+00  1.515958142E+00  1.439264412E+01  5.701519987E-07  0.00000E+00  9.000E+00
      21     1     1     2   516   512  2.892221177E+00  1.351087592E+01  2.363756138E+02  2.367790944E+02  3.814697266E-06  0.00000E+00  9.000E+00
</event>
<event>
      5  10001  2.40292E+09  1.09649E+01 -1.00000E+00  1.91188E-01
      21    -1     0     0   511   513  0.000000000E+00  0.000000000E+00  1.555591965E+00  1.555591965E+00  0.000000000E+00  0.00000E+00  9.000E+00
      21    -1     0     0   514   511  0.000000000E+00  0.000000000E+00 -3.708848327E+02  3.708848327E+02  0.000000000E+00  0.00000E+00  9.000E+00
      21     1     1     2   512   513 -2.923819384E+00 -1.440781744E+01 -4.389191608E+01  4.628859709E+01  9.536743164E-07  0.00000E+00  9.000E+00
      21     1     1     2   515   512 -5.985631615E+00  8.016406578E+00 -1.940661949E+02  1.943239012E+02  0.000000000E+00  0.00000E+00  9.000E+00
      21     1     1     2   514   515  8.909450999E+00  6.391410860E+00 -1.313711297E+02  1.318279264E+02  1.907348633E-06  0.00000E+00  9.000E+00
</event>
<event>
      5  10001  2.40292E+09  4.69437E+00 -1.00000E+00  2.48002E-01
      21    -1     0     0   516   512  0.000000000E+00  0.000000000E+00  1.671306347E+02  1.671306347E+02  0.000000000E+00  0.00000E+00  9.000E+00
      21    -1     0     0   514   516  0.000000000E+00  0.000000000E+00 -1.350890115E+00  1.350890115E+00  0.000000000E+00  0.00000E+00  9.000E+00
      21     1     1     2   515   512 -1.312902093E+01  5.717788688E+00  7.225133250E+01  7.365676714E+01  9.536743164E-07  0.00000E+00  9.000E+00
      21     1     1     2   514   511  7.533026388E+00 -6.497383106E+00  6.232848487E+01  6.311737082E+01  1.168007728E-06  0.00000E+00  9.000E+00
      21     1     1     2   511   515  5.595994541E+00  7.795944186E-01  3.119992718E+01  3.170738681E+01  4.768371582E-07  0.00000E+00  9.000E+00
</event>
<event>
      5  10001  2.40292E+09  1.52895E+01 -1.00000E+00  1.76558E-01
      21    -1     0     0   513   516  0.000000000E+00  0.000000000E+00  1.263707991E+02  1.263707991E+02  0.000000000E+00  0.00000E+00  9.000E+00
      21    -1     0     0   512   515  0.000000000E+00  0.000000000E+00 -5.170089191E+01  5.170089191E+01  0.000000000E+00  0.00000E+00  9.000E+00
      21     1     1     2   513   515  2.528345849E+01 -2.087716648E+01 -4.221581116E+01  5.345356925E+01  8.259061849E-07  0.00000E+00  9.000E+00
      21     1     1     2   512   514 -2.690925273E+01  5.674345635E+00  6.645437216E+01  7.192002267E+01  0.000000000E+00  0.00000E+00  9.000E+00
      21     1     1     2   514   516  1.625794236E+00  1.520282084E+01  5.043134616E+01  5.269809906E+01  0.000000000E+00  0.00000E+00  9.000E+00
</event>
<event>
      5  10001  2.40292E+09  1.07932E+01 -1.00000E+00  1.91945E-01
      21    -1     0     0   511   512  0.000000000E+00  0.000000000E+00  5.589228387E+01  5.589228387E+01  0.000000000E+00  0.00000E+00  9.000E+00
      21    -1     0     0   514   513  0.000000000E+00  0.000000000E+00 -1.650262214E+01  1.650262214E+01  0.000000000E+00  0.00000E+00  9.000E+00
      -2     1     1     2     0   513 -7.910167912E+00 -1.091057545E+00 -1.072259141E+01  1.337325800E+01  3.300000131E-01  0.00000E+00  9.000E+00
       2     1     1     2   511     0  1.870236532E+01  1.160092508E+00  4.026081695E+01  4.440908201E+01  3.300000131E-01  0.00000E+00  9.000E+00
      21     1     1     2   514   512 -1.079219740E+01 -6.903496263E-02  9.851436180E+00  1.461256601E+01  0.000000000E+00  0.00000E+00  9.000E+00
</event>
<event>
      5  10001  2.40292E+09  1.30846E+01 -1.00000E+00  1.83111E-01
      21    -1     0     0   515   513  0.000000000E+00  0.000000000E+00  9.886043901E+00  9.886043901E+00  0.000000000E+00  0.00000E+00  9.000E+00
      21    -1     0     0   514   512  0.000000000E+00  0.000000000E+00 -5.042925890E+01  5.042925890E+01  0.000000000E+00  0.00000E+00  9.000E+00
      21     1     1     2   515   512 -1.137608761E+01 -3.779659036E+00 -3.725042869E+01  3.913177263E+01  0.000000000E+00  0.00000E+00  9.000E+00
      21     1     1     2   514   511  2.244141271E+00  6.113455461E+00  5.325000876E+00  8.412261411E+00  5.297776709E-07  0.00000E+00  9.000E+00
      21     1     1     2   511   513  9.131946343E+00 -2.333796425E+00 -8.617787190E+00  1.277126876E+01  3.153981341E-07  0.00000E+00  9.000E+00
</event>
<event>
      5  10001  2.40292E+09  6.66949E+00 -1.00000E+00  2.18492E-01
      21    -1     0     0   516   511  0.000000000E+00  0.000000000E+00  1.431574295E+02  1.431574295E+02  0.000000000E+00  0.00000E+00  9.000E+00
      21    -1     0     0   512   516  0.000000000E+00  0.000000000E+00 -1.563349303E+01  1.563349303E+01  0.000000000E+00  0.00000E+00  9.000E+00
      21     1     1     2   514   511  4.972962985E+00 -1.425362510E+01  1.381187331E+02  1.389412849E+02  1.907348633E-06  0.00000E+00  9.000E+00
      21     1     1     2   513   514 -3.655244054E+00  7.715605136E+00 -1.000723144E+01  1.315431689E+01  7.633118912E-07  0.00000E+00  9.000E+00
      21     1     1     2   512   513 -1.317718930E+00  6.538019960E+00 -5.875651873E-01  6.695320831E+00  1.127477434E-07  0.00000E+00  9.000E+00
</event>
<event>
      5  10001  2.40292E+09  1.06497E+01 -1.00000E+00  1.92593E-01
      21    -1     0     0   515   512  0.000000000E+00  0.000000000E+00  3.415216157E+01  3.415216157E+01  0.000000000E+00  0.00000E+00  9.000E+00
      21    -1     0     0   511   517  0.000000000E+00  0.000000000E+00 -4.955590557E+01  4.955590557E+01  0.000000000E+00  0.00000E+00  9.000E+00
      21     1     1     2   515   517  6.707765143E+00 -1.322433006E+01 -4.403012150E+01  4.645996791E+01  6.743495762E-07  0.00000E+00  9.000E+00
      21     1     1     2   514   512 -1.286153560E+01  8.738016711E+00  2.307104686E+01  2.782166849E+01  0.000000000E+00  0.00000E+00  9.000E+00
      21     1     1     2   511   514  6.153770454E+00  4.486313347E+00  5.555330634E+00  9.426430751E+00  1.032382731E-07  0.00000E+00  9.000E+00
</event>
<event>
      5  10001  2.40292E+09  4.72940E+00 -1.00000E+00  2.47334E-01
      -2    -1     0     0     0   513  0.000000000E+00  0.000000000E+00  7.776555760E+01  7.776555760E+01  0.000000000E+00  0.00000E+00  9.000E+00
      21    -1     0     0   512   514  0.000000000E+00  0.000000000E+00 -2.461669314E+01  2.461669314E+01  0.000000000E+00  0.00000E+00  9.000E+00
      -2     1     1     2     0   515  1.140432988E+01  3.838298325E+00  5.388876271E+01  5.521683548E+01  3.300000131E-01  0.00000E+00  9.000E+00
      21     1     1     2   512   513 -1.890610901E+01 -2.257196922E+00 -1.928341626E+01  2.709955790E+01  8.920806376E-07  0.00000E+00  9.000E+00
      21     1     1     2   515   514  7.501779128E+00 -1.581101403E+00  1.854351801E+01  2.006585737E+01  2.384185791E-07  0.00000E+00  9.000E+00
</event>
<event>
      5  10001  2.40292E+09  4.53233E+00 -1.00000E+00  2.51209E-01
      21    -1     0     0   511   512  0.000000000E+00  0.000000000E+00  1.409431650E+02  1.409431650E+02  0.000000000E+00  0.00000E+00  9.000E+00
      21    -1     0     0   513   511  0.000000000E+00  0.000000000E+00 -3.983719929E+01  3.983719929E+01  0.000000000E+00  0.00000E+00  9.000E+00
      21     1     1     2   516   514  8.917808117E+00  1.054137735E+01 -3.599573236E+01  3.855308919E+01  8.259061849E-07  0.00000E+00  9.000E+00
      21     1     1     2   514   512 -6.677293761E+00 -6.601567746E+00  1.373666635E+02  1.376872078E+02  3.303624740E-06  0.00000E+00  9.000E+00
      21     1     1     2   513   516 -2.240514356E+00 -3.939809604E+00 -2.649654351E-01  4.540067288E+00  2.326443046E-08  0.00000E+00  9.000E+00
</event>
<event>
      5  10001  2.40292E+09  1.40094E+01 -1.00000E+00  1.80176E-01
      21    -1     0     0   515   514  0.000000000E+00  0.000000000E+00  2.039902891E+00  2.039902891E+00  0.000000000E+00  0.00000E+00  9.000E+00
      21    -1     0     0   513   516  0.000000000E+00  0.000000000E+00 -1.716218993E+02  1.716218993E+02  0.000000000E+00  0.00000E+00  9.000E+00
      21     1     1     2   515   516  5.632488213E+00 -1.319745739E+01 -9.584249380E+01  9.691068787E+01  1.348699152E-06  0.00000E+00  9.000E+00
      21     1     1     2   513   511  1.912259730E+00  8.080531366E+00 -1.367443371E+01  1.599818308E+01  5.591411304E-07  0.00000E+00  9.000E+00
      21     1     1     2   511   514 -7.544747944E+00  5.116926025E+00 -6.006506888E+01  6.075293123E+01  9.536743164E-07  0.00000E+00  9.000E+00
</event>
<event>
      5  10001  2.40292E+09  5.60212E+00 -1.00000E+00  2.30120E-01
       1    -1     0     0   512     0  0.000000000E+00  0.000000000E+00  2.817154903E+02  2.817154903E+02  0.000000000E+00  0.00000E+00  9.000E+00
      21    -1     0     0   514   512  0.000000000E+00  0.000000000E+00 -2.132840394E+01  2.132840394E+01  0.000000000E+00  0.00000E+00  9.000E+00
      21     1     1     2   513   511  1.476256263E+01  5.542463388E+00  1.108414851E+01  1.927460775E+01  3.769728732E-07  0.00000E+00  9.000E+00
      21     1     1     2   514   513 -9.160548843E+00 -5.512479808E+00 -1.554240165E+01  1.886449941E+01  2.920019320E-07  0.00000E+00  9.000E+00
       1     1     1     2   511     0 -5.602013791E+00 -2.998358002E-02  2.648453396E+02  2.649047871E+02  3.300000131E-01  0.00000E+00  9.000E+00
</event>
<event>
      5  10001  2.40292E+09  4.02812E+00 -1.00000E+00  2.62648E-01
      21    -1     0     0   512   513  0.000000000E+00  0.000000000E+00  8.081883164E+01  8.081883164E+01  0.000000000E+00  0.00000E+00  9.000E+00
      21    -1     0     0   516   515  0.000000000E+00  0.000000000E+00 -2.048254372E+02  2.048254372E+02  0.000000000E+00  0.00000E+00  9.000E+00
      21     1     1     2   514   513  9.960649567E+00 -3.546499398E-01 -1.352115536E+02  1.355784073E+02  1.907348633E-06  0.00000E+00  9.000E+00
      21     1     1     2   516   514 -9.531809658E+00  4.359874882E+00 -6.898402473E+01  6.977578070E+01  2.336015456E-06  0.00000E+00  9.000E+00
      21     1     1     2   512   515 -4.288399085E-01 -4.005224942E+00  8.018897273E+01  8.029008081E+01  1.348699152E-06  0.00000E+00  9.000E+00
</event>
<event>
      5  10001  2.40292E+09  9.27910E+00 -1.00000E+00  1.99529E-01
      -3    -1     0     0     0   511  0.000000000E+00  0.000000000E+00  2.847052738E+02  2.847052738E+02  0.000000000E+00  0.00000E+00  9.000E+00
      21    -1     0     0   511   512  0.000000000E+00  0.000000000E+00 -2.379111056E+00  2.379111056E+00  0.000000000E+00  0.00000E+00  9.000E+00
      -3     1     1     2     0   514  1.300031046E+01  4.173007420E+00  2.431555703E+02  2.435391209E+02  5.000000000E-01  0.00000E+00  9.000E+00
      21     1     1     2   513   512 -4.255301784E+00 -4.355244528E+00  3.957486245E+00  7.262055188E+00  3.397987560E-07  0.00000E+00  9.000E+00
      21     1     1     2   514   513 -8.745008675E+00  1.822371073E-01  3.521310619E+01  3.628320872E+01  1.066240300E-06  0.00000E+00  9.000E+00
</event>
<event>
      5  10001  2.40292E+09  5.12664E+00 -1.00000E+00  2.36547E-01
      21    -1     0     0   512   511  0.000000000E+00  0.000000000E+00  1.782747993E+01  1.782747993E+01  0.000000000E+00  0.00000E+00  9.000E+00
       1    -1     0     0   511     0  0.000000000E+00  0.000000000E+00 -1.597406966E+01  1.597406966E+01  0.000000000E+00  0.00000E+00  9.000E+00
      21     1     1     2   513   515 -1.325201222E+01 -7.613755793E+00  4.644804079E+00  1.597370683E+01  2.598106231E-07  0.00000E+00  9.000E+00
       1     1     1     2   515     0  8.179640158E+00  8.353212615E+00 -4.336820737E+00  1.247395640E+01  3.300000131E-01  0.00000E+00  9.000E+00
      21     1     1     2   512   513  5.072372060E+00 -7.394568219E-01  1.545426932E+00  5.353886356E+00  9.884312124E-08  0.00000E+00  9.000E+00
</event>
<event>
      5  10001  2.40292E+09  1.57266E+01 -1.00000E+00  1.75423E-01
      21    -1     0     0   514   513  0.000000000E+00  0.000000000E+00  4.021105368E+02  4.021105368E+02  0.000000000E+00  0.00000E+00  9.000E+00
      21    -1     0     0   511   514  0.000000000E+00  0.000000000E+00 -2.677424357E+00  2.677424357E+00  0.000000000E+00  0.00000E+00  9.000E+00
      21     1     1     2   516   513 -1.285857560E+00 -1.786257556E+01  3.342182849E+02  3.346977547E+02  6.607249480E-06  0.00000E+00  9.000E+00
       1     1     1     2   511     0 -4.719056583E+00  5.188146360E+00  5.997836018E+00  9.234137458E+00  3.300000131E-01  0.00000E+00  9.000E+00
      -1     1     1     2     0   516  6.004914143E+00  1.267442920E+01  5.921699156E+01  6.085606904E+01  3.300000131E-01  0.00000E+00  9.000E+00
</event>
<event>
      5  10001  2.40292E+09  1.38999E+01 -1.00000E+00  1.80508E-01
      21    -1     0     0   514   511  0.000000000E+00  0.000000000E+00  9.578234509E+00  9.578234509E+00  0.000000000E+00  0.00000E+00  9.000E+00
      21    -1     0     0   513   515  0.000000000E+00  0.000000000E+00 -3.550732642E+02  3.550732642E+02  0.000000000E+00  0.00000E+00  9.000E+00
      21     1     1     2   512   515  9.027962214E-01  1.805722265E+01 -3.177131964E+02  3.182272042E+02  3.814697266E-06  0.00000E+00  9.000E+00
      21     1     1     2   513   511 -1.193019983E+01 -9.595322906E+00 -2.866388186E+01  3.249643077E+01  3.371747881E-07  0.00000E+00  9.000E+00
      21     1     1     2   514   512  1.102740360E+01 -8.461899748E+00  8.820485973E-01  1.392786370E+01  7.893396996E-07  0.00000E+00  9.000E+00
</event>
<event>
      5  10001  2.40292E+09  6.29610E+00 -1.00000E+00  2.22195E-01
      21    -1     0     0   516   513  0.000000000E+00  0.000000000E+00  8.644484004E+01  8.644484004E+01  0.000000000E+00  0.00000E+00  9.000E+00
      21    -1     0     0   517   512  0.000000000E+00  0.000000000E+00 -6.768062155E+00  6.768062155E+00  0.000000000E+00  0.00000E+00  9.000E+00
      21     1     1     2   516   512 -7.808374577E+00  6.502543867E+00 -1.623497643E+00  1.029026408E+01  3.002500784E-07  0.00000E+00  9.000E+00
      21     1     1     2   517   511  2.784766264E+00 -6.036469043E+00  7.229809069E+01  7.260308395E+01  9.536743164E-07  0.00000E+00  9.000E+00
      21     1     1     2   511   513  5.023608313E+00 -4.660748240E-01  9.002184835E+00  1.031955416E+01  1.685873940E-07  0.00000E+00  9.000E+00
</event>
<event>
      5  10001  2.40292E+09  5.49908E+00 -1.00000E+00  2.31434E-01
      21    -1     0     0   514   511  0.000000000E+00  0.000000000E+00  1.492751012E+00  1.492751012E+00  0.000000000E+00  0.00000E+00  9.000E+00
      21    -1     0     0   513   514  0.000000000E+00  0.000000000E+00 -1.741708742E+02  1.741708742E+02  0.000000000E+00  0.00000E+00  9.000E+00
      21     1     1     2   515   511 -3.315148293E+00 -9.338694357E+00 -1.885992573E+01  2.130488721E+01  8.259061849E-07  0.00000E+00  9.000E+00
      21     1     1     2   513   512  4.952495608E-02  5.255098400E+00 -1.220515205E+02  1.221646109E+02  1.907348633E-06  0.00000E+00  9.000E+00
      21     1     1     2   512   515  3.265623337E+00  4.083595958E+00 -3.176667695E+01  3.219412704E+01  0.000000000E+00  0.00000E+00  9.000E+00
</event>
<event>
      5  10001  2.40292E+09  7.95154E+00 -1.00000E+00  2.07950E-01
       2    -1     0     0   514     0  0.000000000E+00  0.000000000E+00  2.024545782E+01  2.024545782E+01  0.000000000E+00  0.00000E+00  9.000E+00
      21    -1     0     0   516   514  0.000000000E+00  0.000000000E+00 -1.655625056E+01  1.655625056E+01  0.000000000E+00  0.00000E+00  9.000E+00
      21     1     1     2   516   512  2.597152994E+00  9.728574042E+00 -1.313061735E+01  1.654700784E+01  1.685873940E-07  0.00000E+00  9.000E+00
       2     1     1     2   511     0  7.528159596E-01 -1.310542384E+00  5.726279443E+00  5.931562145E+00  3.300000131E-01  0.00000E+00  9.000E+00
      21     1     1     2   512   511 -3.349968954E+00 -8.418031658E+00  1.109354517E+01  1.432313839E+01  3.576278687E-07  0.00000E+00  9.000E+00
</event>
<event>
      5  10001  2.40292E+09  7.12868E+00 -1.00000E+00  2.14371E-01
      21    -1     0     0   513   516  0.000000000E+00  0.000000000E+00  2.574591015E+01  2.574591015E+01  0.000000000E+00  0.00000E+00  9.000E+00
      21    -1     0     0   515   513  0.000000000E+00  0.000000000E+00 -3.152646320E+01  3.152646320E+01  0.000000000E+00  0.00000E+00  9.000E+00
      21     1     1     2   511   516 -2.184439378E+01 -1.817381762E+01 -3.926022155E+00  2.868586475E+01  2.763753681E-07  0.00000E+00  9.000E+00
      21     1     1     2   515   514  2.632180799E+00  1.627994876E+00 -8.593241291E-01  3.212036898E+00  4.214684851E-08  0.00000E+00  9.000E+00
      21     1     1     2   514   511  1.921221298E+01  1.654582274E+01 -9.952067674E-01  2.537447171E+01  2.737518112E-07  0.00000E+00  9.000E+00
</event>
<event>
      5  10001  2.40292E+09  2.57941E+00 -1.00000E+00  3.18145E-01
      21    -1     0     0   512   515  0.000000000E+00  0.000000000E+00  8.486010327E+01  8.486010327E+01  0.000000000E+00  0.00000E+00  9.000E+00
      21    -1     0     0   516   513  0.000000000E+00  0.000000000E+00 -3.131454213E+01  3.131454213E+01  0.000000000E+00  0.00000E+00  9.000E+00
      21     1     1     2   512   511 -6.580022649E+00 -9.540662932E+00  5.366724433E+01  5.490440839E+01  6.743495762E-07  0.00000E+00  9.000E+00
      21     1     1     2   516   515  4.667966905E+00  7.809360169E+00  2.984079267E+01  3.119693780E+01  4.768371582E-07  0.00000E+00  9.000E+00
      21     1     1     2   511   513  1.912055744E+00  1.731302763E+00 -2.996247585E+01  3.007329921E+01  0.000000000E+00  0.00000E+00  9.000E+00
</event>
<event>
      5  10001  2.40292E+09  1.99978E+01 -1.00000E+00  1.66331E-01
       3    -1     0     0   512     0  0.000000000E+00  0.000000000E+00  7.111360116E+00  7.111360116E+00  0.000000000E+00  0.00000E+00  9.000E+00
      21    -1     0     0   511   512  0.000000000E+00  0.000000000E+00 -8.767815223E+01  8.767815223E+01  0.000000000E+00  0.00000E+00  9.000E+00
      21     1     1     2   511   514 -7.803166641E+00  6.308692367E+00 -7.875235347E+01  7.938905584E+01  9.536743164E-07  0.00000E+00  9.000E+00
      21     1     1     2   514   515 -3.032489804E+00 -1.787976772E+00 -7.701976043E-02  3.521191190E+00  9.093161963E-08  0.00000E+00  9.000E+00
       3     1     1     2   515     0  1.083565645E+01 -4.520715595E+00 -1.737418877E+00  1.187926532E+01  5.000000000E-01  0.00000E+00  9.000E+00
</event>
<event>
      5  10001  2.40292E+09  1.09601E+01 -1.00000E+00  1.91209E-01
      21    -1     0     0   513   511  0.000000000E+00  0.000000000E+00  2.192607650E+01  2.192607650E+01  0.000000000E+00  0.00000E+00  9.000E+00
      21    -1     0     0   516   513  0.000000000E+00  0.000000000E+00 -2.059511065E+01  2.059511065E+01  0.000000000E+00  0.00000E+00  9.000E+00
      21     1     1     2   517   511 -4.648773237E+00  1.317339894E+01  1.488920604E+01  2.041661061E+01  1.685873940E-07  0.00000E+00  9.000E+00
      21     1     1     2   516   512 -2.603840450E+00 -8.264281299E+00 -6.038459519E+00  1.056131260E+01  2.384185791E-07  0.00000E+00  9.000E+00
      21     1     1     2   512   517  7.252613687E+00 -4.909117646E+00 -7.519780663E+00  1.154326395E+01  8.429369702E-08  0.00000E+00  9.000E+00
</event>
<event>
      5  10001  2.40292E+09  9.44333E+00 -1.00000E+00  1.98617E-01
      21    -1     0     0   514   511  0.000000000E+00  0.000000000E+00  5.968193237E+01  5.968193237E+01  0.000000000E+00  0.00000E+00  9.000E+00
      -3    -1     0     0     0   513  0.000000000E+00  0.000000000E+00 -5.418747669E+00  5.418747669E+00  0.000000000E+00  0.00000E+00  9.000E+00
      21     1     1     2   514   512 -9.006004496E+00 -2.947102973E-01  2.604575274E+01  2.756041014E+01  3.371747881E-07  0.00000E+00  9.000E+00
      21     1     1     2   512   513  1.168487101E+01  9.346793035E+00  2.024105064E+01  2.517139014E+01  2.384185791E-07  0.00000E+00  9.000E+00
      -3     1     1     2     0   511 -2.678866512E+00 -9.052082737E+00  7.976381328E+00  1.236887977E+01  5.000000000E-01  0.00000E+00  9.000E+00
</event>
<event>
      5  10001  2.40292E+09  3.74419E+00 -1.00000E+00  2.70307E-01
      21    -1     0     0   515   512  0.000000000E+00  0.000000000E+00  2.630692616E+00  2.630692616E+00  0.000000000E+00  0.00000E+00  9.000E+00
      21    -1     0     0   516   511  0.000000000E+00  0.000000000E+00 -4.114468537E+01  4.114468537E+01  0.000000000E+00  0.00000E+00  9.000E+00
      21     1     1     2   515   511 -6.975740603E+00  7.008133179E+00 -1.393453286E+01  1.708643010E+01  3.371747881E-07  0.00000E+00  9.000E+00
      21     1     1     2   513   512  2.487671612E+00 -3.774033164E+00 -7.729715308E+00  8.954347275E+00  1.460009660E-07  0.00000E+00  9.000E+00
      21     1     1     2   516   513  4.488068991E+00 -3.234100014E+00 -1.684974459E+01  1.773460061E+01  3.371747881E-07  0.00000E+00  9.000E+00
</event>
<event>
      5  10001  2.40292E+09  3.83642E+00 -1.00000E+00  2.67705E-01
      21    -1     0     0   514   511  0.000000000E+00  0.000000000E+00  2.127087791E+01  2.127087791E+01  0.000000000E+00  0.00000E+00  9.000E+00
      21    -1     0     0   516   514  0.000000000E+00  0.000000000E+00 -2.278821805E+01  2.278821805E+01  0.000000000E+00  0.00000E+00  9.000E+00
      21     1     1     2   516   517  1.523061861E+00  1.054798885E+01 -1.985266747E+01  2.253238097E+01  3.371747881E-07  0.00000E+00  9.000E+00
      -2     1     1     2     0   511 -4.202721596E-01 -3.424603834E+00  9.540357004E+00  1.015046067E+01  3.300000131E-01  0.00000E+00  9.000E+00
       2     1     1     2   517     0 -1.102789701E+00 -7.123385014E+00  8.794970335E+00  1.137625432E+01  3.300000131E-01  0.00000E+00  9.000E+00
</event>
<event>
      5  10001  2.40292E+09  7.72920E+00 -1.00000E+00  2.09578E-01
      21    -1     0     0   512   516  0.000000000E+00  0.000000000E+00  3.799403834E+02  3.799403834E+02  0.000000000E+00  0.00000E+00  9.000E+00
      21    -1     0     0   513   511  0.000000000E+00  0.000000000E+00 -9.514533324E+01  9.514533324E+01  0.000000000E+00  0.00000E+00  9.000E+00
      21     1     1     2   513   515 -1.551287299E+01  4.075468993E-01  6.604743062E+00  1.686528843E+01  1.025477084E-06  0.00000E+00  9.000E+00
      21     1     1     2   515   516  1.866371543E+01  6.650266849E+00  3.677722997E+02  3.683056133E+02  7.629394531E-06  0.00000E+00  9.000E+00
      21     1     1     2   512   511 -3.150842444E+00 -7.057813749E+00 -8.958199262E+01  8.991481494E+01  2.697398305E-06  0.00000E+00  9.000E+00
</event>
<event>
      5  10001  2.40292E+09  6.47513E+00 -1.00000E+00  2.20377E-01
      21    -1     0     0   514   511  0.000000000E+00  0.000000000E+00  3.492431471E+02  3.492431471E+02  0.000000000E+00  0.00000E+00  9.000E+00
      21    -1     0     0   513   517  0.000000000E+00  0.000000000E+00 -2.402459035E+02  2.402459035E+02  0.000000000E+00  0.00000E+00  9.000E+00
      21     1     1     2   514   517 -3.320918842E+00 -9.950228751E+00  3.489000434E+02  3.490576970E+02  3.814697266E-06  0.00000E+00  9.000E+00
      21     1     1     2   513   515 -2.411576787E+00  7.191792989E+00 -1.859740942E+02  1.861287224E+02  5.394796609E-06  0.00000E+00  9.000E+00
      21     1     1     2   515   511  5.732495629E+00  2.758435762E+00 -5.392870548E+01  5.430263115E+01  1.507891493E-06  0.00000E+00  9.000E+00
</event>
<event>
      5  10001  2.40292E+09  8.62589E+00 -1.00000E+00  2.03420E-01
      21    -1     0     0   514   513  0.000000000E+00  0.000000000E+00  3.501438133E+02  3.501438133E+02  0.000000000E+00  0.00000E+00  9.000E+00
      21    -1     0     0   516   511  0.000000000E+00  0.000000000E+00 -9.451811378E+00  9.451811378E+00  0.000000000E+00  0.00000E+00  9.000E+00
      21     1     1     2   512   511 -2.238883812E+01  4.645420696E+00  2.432218530E+02  2.442943097E+02  5.394796609E-06  0.00000E+00  9.000E+00
      21     1     1     2   516   513  1.812332793E+01  2.852011254E+00  9.229664870E-01  1.836956316E+01  8.548384612E-07  0.00000E+00  9.000E+00
      21     1     1     2   514   512  4.265510195E+00 -7.497431950E+00  9.654718244E+01  9.693175176E+01  1.348699152E-06  0.00000E+00  9.000E+00
</event>
<event>
      5  10001  2.40292E+09  1.89293E+01 -1.00000E+00  1.68322E-01
      21    -1     0     0   515   513  0.000000000E+00  0.000000000E+00  1.509453280E+02  1.509453280E+02  0.000000000E+00  0.00000E+00  9.000E+00
      21    -1     0     0   512   515  0.000000000E+00  0.000000000E+00 -1.101509479E+00  1.101509479E+00  0.000000000E+00  0.00000E+00  9.000E+00
      -3     1     1     2     0   513 -3.499640268E+00 -2.836284894E+00  3.285080806E+01  3.316199005E+01  5.000000000E-01  0.00000E+00  9.000E+00
      21     1     1     2   512   511  2.224282901E+00  4.187139133E+00  5.055923989E+00  6.931229034E+00  3.475518164E-07  0.00000E+00  9.000E+00
       3     1     1     2   511     0  1.275357367E+00 -1.350854239E+00  1.119370865E+02  1.119536184E+02  5.000000000E-01  0.00000E+00  9.000E+00
</event>
<event>
      5  10001  2.40292E+09  7.70960E+00 -1.00000E+00  2.09725E-01
       4    -1     0     0   515     0  0.000000000E+00  0.000000000E+00  5.135124290E+01  5.135124290E+01  0.000000000E+00  0.00000E+00  9.000E+00
      21    -1     0     0   514   515  0.000000000E+00  0.000000000E+00 -4.762739115E+00  4.762739115E+00  0.000000000E+00  0.00000E+00  9.000E+00
      21     1     1     2   514   511  5.944062923E+00  6.288158613E+00  2.173976082E+00  8.921826875E+00  1.429269172E-07  0.00000E+00  9.000E+00
       4     1     1     2   512     0 -3.594104405E+00 -4.067755578E+00  4.345690829E+01  4.382028183E+01  1.500000000E+00  0.00000E+00  9.000E+00
      21     1     1     2   511   512 -2.349958518E+00 -2.220403035E+00  9.576194169E-01  3.371873310E+00  5.674193133E-08  0.00000E+00  9.000E+00
</event>
<event>
      5  10001  2.40292E+09  6.03182E+00 -1.00000E+00  2.25037E-01
       1    -1     0     0   512     0  0.000000000E+00  0.000000000E+00  1.510096035E+02  1.510096035E+02  0.000000000E+00  0.00000E+00  9.000E+00
      21    -1     0     0   511   512  0.000000000E+00  0.000000000E+00 -1.779596972E+00  1.779596972E+00  0.000000000E+00  0.00000E+00  9.000E+00
      21     1     1     2   511   513  1.487379272E+00 -9.503264956E+00  1.360480665E+01  1.666178579E+01  5.840038640E-07  0.00000E+00  9.000E+00
       1     1     1     2   514     0 -2.120545010E+00  2.790840875E+00  8.264232585E+01  8.271728009E+01  3.300000131E-01  0.00000E+00  9.000E+00
      21     1     1     2   513   514  6.331657384E-01  6.712424081E+00  5.298287399E+01  5.341013455E+01  0.000000000E+00  0.00000E+00  9.000E+00
</event>
<event>
      5  10001  2.40292E+09  2.28597E+01 -1.00000E+00  1.61679E-01
       2    -1     0     0   512     0  0.000000000E+00  0.000000000E+00  7.125672200E+02  7.125672200E+02  0.000000000E+00  0.00000E+00  9.000E+00
      21    -1     0     0   513   512  0.000000000E+00  0.000000000E+00 -5.723551510E-01  5.723551510E-01  0.000000000E+00  0.00000E+00  9.000E+00
      21     1     1     2   513   515  1.043523659E+01  1.103616138E+00  2.348309579E+02  2.350652907E+02  5.394796609E-06  0.00000E+00  9.000E+00
      21     1     1     2   515   511 -1.015976078E+01  2.257637903E+00  5.995527875E+01  6.085189494E+01  1.168007728E-06  0.00000E+00  9.000E+00
       2     1     1     2   511     0 -2.754758099E-01 -3.361254041E+00  4.172086282E+02  4.172223894E+02  3.300000131E-01  0.00000E+00  9.000E+00
</event>
<event>
      5  10001  2.40292E+09  5.10356E+00 -1.00000E+00  2.36884E-01
      21    -1     0     0   514   512  0.000000000E+00  0.000000000E+00  4.989292222E+01  4.989292222E+01  0.000000000E+00  0.00000E+00  9.000E+00
       1    -1     0     0   513     0  0.000000000E+00  0.000000000E+00 -1.683303176E+01  1.683303176E+01  0.000000000E+00  0.00000E+00  9.000E+00
      21     1     1     2   514   511  1.171510297E+01  9.648355109E-01  1.694372362E+01  2.062193772E+01  2.384185791E-07  0.00000E+00  9.000E+00
       1     1     1     2   511     0 -1.633662523E+01  1.199906349E+00 -1.019866974E+01  1.929888244E+01  3.300000131E-01  0.00000E+00  9.000E+00
      21     1     1     2   513   512  4.621522259E+00 -2.164741860E+00  2.631483658E+01  2.680513382E+01  3.371747881E-07  0.00000E+00  9.000E+00
</event>
<event>
      5  10001  2.40292E+09  4.08755E+00 -1.00000E+00  2.61168E-01
      21    -1     0     0   515   514  0.000000000E+00  0.000000000E+00  8.532329457E+01  8.532329457E+01  0.000000000E+00  0.00000E+00  9.000E+00
      21    -1     0     0   512   515  0.000000000E+00  0.000000000E+00 -5.765596818E+00  5.765596818E+00  0.000000000E+00  0.00000E+00  9.000E+00
      21     1     1     2   512   513 -1.045547080E+01 -3.927929185E+00  1.093739691E+00  1.122237782E+01  3.115019941E-07  0.00000E+00  9.000E+00
      21     1     1     2   513   511  7.915281453E+00  7.130350297E+00  6.158668315E+01  6.250130492E+01  9.536743164E-07  0.00000E+00  9.000E+00
      21     1     1     2   511   514  2.540189348E+00 -3.202421112E+00  1.687727491E+01  1.736520865E+01  0.000000000E+00  0.00000E+00  9.000E+00
</event>
<event>
      5  10001  2.40292E+09  2.83625E+01 -1.00000E+00  1.54717E-01
      21    -1     0     0   516   513  0.000000000E+00  0.000000000E+00  7.003443373E+00  7.003443373E+00  0.000000000E+00  0.00000E+00  9.000E+00
      21    -1     0     0   512   514  0.000000000E+00  0.000000000E+00 -6.814405649E+01  6.814405649E+01  0.000000000E+00  0.00000E+00  9.000E+00
      21     1     1     2   516   514 -1.362949487E+01 -7.463994552E+00 -2.113172230E+01  2.623021220E+01  4.768371582E-07  0.00000E+00  9.000E+00
      21     1     1     2   512   515  7.013242863E-01  5.450950035E+00  1.247669427E+00  5.635724536E+00  5.575503985E-08  0.00000E+00  9.000E+00
      21     1     1     2   515   513  1.292817058E+01  2.013044516E+00 -4.125656025E+01  4.328156313E+01  4.768371582E-07  0.00000E+00  9.000E+00
</event>
<event>
      5  10001  2.40292E+09  7.05929E+00 -1.00000E+00  2.14966E-01
      21    -1     0     0   511   515  0.000000000E+00  0.000000000E+00  2.088827814E+01  2.088827814E+01  0.000000000E+00  0.00000E+00  9.000E+00
      21    -1     0     0   513   511  0.000000000E+00  0.000000000E+00 -2.715831217E+01  2.715831217E+01  0.000000000E+00  0.00000E+00  9.000E+00
      21     1     1     2   512   515 -1.144348942E+01 -2.371904193E+00  1.743373721E+01  2.098843903E+01  4.129530925E-07  0.00000E+00  9.000E+00
      21     1     1     2   514   512  6.197935533E+00 -1.275846809E+00 -8.765961972E+00  1.081130331E+01  0.000000000E+00  0.00000E+00  9.000E+00
      21     1     1     2   513   514  5.245553887E+00  3.647751002E+00 -1.493780928E+01  1.624684797E+01  1.685873940E-07  0.00000E+00  9.000E+00
</event>
<event>
      5  10001  2.40292E+09  1.09519E+01 -1.00000E+00  1.91245E-01
      21    -1     0     0   511   512  0.000000000E+00  0.000000000E+00  2.569024625E+01  2.569024625E+01  0.000000000E+00  0.00000E+00  9.000E+00
       2    -1     0     0   512     0  0.000000000E+00  0.000000000E+00 -4.466987313E+02  4.466987313E+02  0.000000000E+00  0.00000E+00  9.000E+00
      21     1     1     2   514   513  1.423501280E+01  7.776918030E+00 -1.183915970E+01  2.008187606E+01  1.727506727E-06  0.00000E+00  9.000E+00
       2     1     1     2   513     0 -2.478985947E+01 -1.069887442E+01 -4.288954971E+02  4.297446444E+02  3.300000131E-01  0.00000E+00  9.000E+00
      21     1     1     2   511   514  1.055484667E+01  2.921956387E+00  1.972617177E+01  2.256245709E+01  2.384185791E-07  0.00000E+00  9.000E+00
</event>
<event>
      5  10001  2.40292E+09  3.36021E+00 -1.00000E+00  2.82557E-01
      21    -1     0     0   515   514  0.000000000E+00  0.000000000E+00  3.535150001E+00  3.535150001E+00  0.000000000E+00  0.00000E+00  9.000E+00
      21    -1     0     0   512   515  0.000000000E+00  0.000000000E+00 -1.060452317E+02  1.060452317E+02  0.000000000E+00  0.00000E+00  9.000E+00
      21     1     1     2   516   514  1.578217521E+00  1.088377137E+01 -6.345328617E+00  1.269686753E+01  2.064765462E-07  0.00000E+00  9.000E+00
      21     1     1     2   512   513 -8.476347966E-01 -5.042939402E+00 -6.242808313E+01  6.263717176E+01  9.536743164E-07  0.00000E+00  9.000E+00
      21     1     1     2   513   516 -7.305827240E-01 -5.840831968E+00 -3.373666993E+01  3.424634239E+01  8.259061849E-07  0.00000E+00  9.000E+00
</event>
<event>
      5  10001  2.40292E+09  4.69885E+00 -1.00000E+00  2.47916E-01
      -3    -1     0     0     0   511  0.000000000E+00  0.000000000E+00  1.874953353E+00  1.874953353E+00  0.000000000E+00  0.00000E+00  9.000E+00
      21    -1     0     0   512   515  0.000000000E+00  0.000000000E+00 -2.742007745E+02  2.742007745E+02  0.000000000E+00  0.00000E+00  9.000E+00
      -3     1     1     2     0   515 -1.018613756E-01  1.410829530E+01 -5.644501395E+01  5.818370881E+01  5.000000000E-01  0.00000E+00  9.000E+00
      21     1     1     2   513   511  3.977702735E+00 -1.145328676E+01 -3.672472469E+01  3.867434939E+01  6.743495762E-07  0.00000E+00  9.000E+00
      21     1     1     2   512   513 -3.875841360E+00 -2.655008535E+00 -1.791560825E+02  1.792176697E+02  1.907348633E-06  0.00000E+00  9.000E+00
</event>
<event>
      5  10001  2.40292E+09  1.03587E+01 -1.00000E+00  1.93947E-01
       2    -1     0     0   515     0  0.000000000E+00  0.000000000E+00  5.308276542E+02  5.308276542E+02  0.000000000E+00  0.00000E+00  9.000E+00
      21    -1     0     0   513   515  0.000000000E+00  0.000000000E+00 -4.903068601E+00  4.903068601E+00  0.000000000E+00  0.00000E+00  9.000E+00
      21     1     1     2   513   511  5.677056648E+00 -7.578241409E+00  5.862055446E+00  1.113653488E+01  3.039252468E-07  0.00000E+00  9.000E+00
       2     1     1     2   514     0 -1.204127815E+01  3.628865376E+00  5.158449280E+02  5.159983136E+02  3.300000131E-01  0.00000E+00  9.000E+00
      21     1     1     2   511   514  6.364221502E+00  3.949376034E+00  4.217602124E+00  8.595874246E+00  2.665600750E-07  0.00000E+00  9.000E+00
</event>
<event>
      5  10001  2.40292E+09  1.71207E+01 -1.00000E+00  1.72094E-01
      21    -1     0     0   514   513  0.000000000E+00  0.000000000E+00  4.759734277E+01  4.759734277E+01  0.000000000E+00  0.00000E+00  9.000E+00
      21    -1     0     0   512   514  0.000000000E+00  0.000000000E+00 -2.764018388E+00  2.764018388E+00  0.000000000E+00  0.00000E+00  9.000E+00
      -2     1     1     2     0   513  5.017663072E+00  1.471125392E+00  1.561263633E+01  1.646828667E+01  3.300000131E-01  0.00000E+00  9.000E+00
      21     1     1     2   512   515 -5.085651225E+00  2.920769136E+00  2.888626181E+01  2.947559774E+01  0.000000000E+00  0.00000E+00  9.000E+00
       2     1     1     2   515     0  6.798815300E-02 -4.391894527E+00  3.344262439E-01  4.417476751E+00  3.300000131E-01  0.00000E+00  9.000E+00
</event>
<event>
      5  10001  2.40292E+09  6.29127E+00 -1.00000E+00  2.22245E-01
      21    -1     0     0   511   512  0.000000000E+00  0.000000000E+00  7.521469942E+00  7.521469942E+00  0.000000000E+00  0.00000E+00  9.000E+00
      21    -1     0     0   513   516  0.000000000E+00  0.000000000E+00 -6.032301923E+01  6.032301923E+01  0.000000000E+00  0.00000E+00  9.000E+00
      21     1     1     2   511   516 -9.832645625E+00 -2.515510731E+00 -5.555519788E+01  5.647467331E+01  9.536743164E-07  0.00000E+00  9.000E+00
      21     1     1     2   513   514  3.210072497E+00 -1.208904242E+00  9.826290099E-01  3.568133219E+00  1.021572143E-07  0.00000E+00  9.000E+00
      21     1     1     2   514   512  6.622573129E+00  3.724414973E+00  1.771019578E+00  7.801682644E+00  2.337155810E-07  0.00000E+00  9.000E+00
</event>
<event>
      5  10001  2.40292E+09  9.42059E+00 -1.00000E+00  1.98742E-01
      21    -1     0     0   515   513  0.000000000E+00  0.000000000E+00  7.841938937E+01  7.841938937E+01  0.000000000E+00  0.00000E+00  9.000E+00
      21    -1     0     0   512   515  0.000000000E+00  0.000000000E+00 -4.452005692E+00  4.452005692E+00  0.000000000E+00  0.00000E+00  9.000E+00
      21     1     1     2   512   517 -1.394539045E+00  8.637441562E+00  1.765326591E+00  8.925609999E+00  4.113368315E-07  0.00000E+00  9.000E+00
      21     1     1     2   517   511  5.356810641E+00 -1.012059119E+01  4.596761591E+01  4.737239174E+01  0.000000000E+00  0.00000E+00  9.000E+00
      21     1     1     2   511   513 -3.962271597E+00  1.483149632E+00  2.623444117E+01  2.657339332E+01  3.371747881E-07  0.00000E+00  9.000E+00
</event>
<event>
      5  10001  2.40292E+09  6.78471E+00 -1.00000E+00  2.17416E-01
      21    -1     0     0   514   516  0.000000000E+00  0.000000000E+00  3.732570839E+01  3.732570839E+01  0.000000000E+00  0.00000E+00  9.000E+00
      21    -1     0     0   515   513  0.000000000E+00  0.000000000E+00 -3.341150154E+02  3.341150154E+02  0.000000000E+00  0.00000E+00  9.000E+00
      21     1     1     2   514   513  6.621264228E+00 -1.042488411E+01  3.360865806E+01  3.580588283E+01  4.768371582E-07  0.00000E+00  9.000E+00
      21     1     1     2   512   516 -8.086006011E+00  3.800167081E+00 -5.142734189E+00  1.030885435E+01  3.475518164E-07  0.00000E+00  9.000E+00
      21     1     1     2   515   512  1.464741783E+00  6.624717033E+00 -3.252552309E+02  3.253259866E+02  0.000000000E+00  0.00000E+00  9.000E+00
</event>
<event>
      5  10001  2.40292E+09  4.50724E+00 -1.00000E+00  2.51724E-01
      21    -1     0     0   511   515  0.000000000E+00  0.000000000E+00  6.760668796E+01  6.760668796E+01  0.000000000E+00  0.00000E+00  9.000E+00
      -3    -1     0     0     0   511  0.000000000E+00  0.000000000E+00 -1.093387589E+02  1.093387589E+02  0.000000000E+00  0.00000E+00  9.000E+00
      -3     1     1     2     0   513  1.763765805E+00 -1.081657115E+01 -9.229848481E+01  9.294820805E+01  5.000000000E-01  0.00000E+00  9.000E+00
      21     1     1     2   514   515  2.336701842E+00  1.204364193E+01  6.643669207E+01  6.755992554E+01  0.000000000E+00  0.00000E+00  9.000E+00
      21     1     1     2   513   514 -4.100467647E+00 -1.227070781E+00 -1.587027818E+01  1.643731326E+01  1.685873940E-07  0.00000E+00  9.000E+00
</event>
<event>
      5  10001  2.40292E+09  1.73030E+01 -1.00000E+00  1.71688E-01
       1    -1     0     0   511     0  0.000000000E+00  0.000000000E+00  2.491398506E+02  2.491398506E+02  0.000000000E+00  0.00000E+00  9.000E+00
      21    -1     0     0   513   511  0.000000000E+00  0.000000000E+00 -8.421395033E+00  8.421395033E+00  0.000000000E+00  0.00000E+00  9.000E+00
      21     1     1     2   513   512 -1.696100772E+01 -1.257248001E+01  6.542573277E+00  2.210312877E+01  5.960464478E-07  0.00000E+00  9.000E+00
      21     1     1     2   512   515  1.106380300E+01  3.014321726E+00  7.342428190E+01  7.431432597E+01  9.536743164E-07  0.00000E+00  9.000E+00
       1     1     1     2   515     0  5.897204719E+00  9.558158285E+00  1.607516004E+02  1.611437909E+02  3.300000131E-01  0.00000E+00  9.000E+00
</event>
<event>
      5  10001  2.40292E+09  2.58376E+00 -1.00000E+00  3.17888E-01
       1    -1     0     0   511     0  0.000000000E+00  0.000000000E+00  1.906981215E+00  1.906981215E+00  0.000000000E+00  0.00000E+00  9.000E+00
       2    -1     0     0   512     0  0.000000000E+00  0.000000000E+00 -5.787165320E+02  5.787165320E+02  0.000000000E+00  0.00000E+00  9.000E+00
      21     1     1     2   512   514 -2.608374264E+00  9.151086468E+00 -1.200851254E+02  1.204615430E+02  0.000000000E+00  0.00000E+00  9.000E+00
       1     1     1     2   514     0  4.607907455E+00 -1.078721032E+01 -1.835993052E+01  2.178973764E+01  3.300000131E-01  0.00000E+00  9.000E+00
       2     1     1     2   511     0 -1.999533191E+00  1.636123856E+00 -4.383644949E+02  4.383722326E+02  3.300000131E-01  0.00000E+00  9.000E+00
</event>
<event>
      5  10001  2.40292E+09  1.66647E+01 -1.00000E+00  1.73138E-01
      21    -1     0     0   513   512  0.000000000E+00  0.000000000E+00  3.058579803E+01  3.058579803E+01  0.000000000E+00  0.00000E+00  9.000E+00
      21    -1     0     0   515   514  0.000000000E+00  0.000000000E+00 -2.708029432E+02  2.708029432E+02  0.000000000E+00  0.00000E+00  9.000E+00
      21     1     1     2   516   512 -4.388139099E+00  1.487626616E+01  2.659864023E+01  3.079036736E+01  8.259061849E-07  0.00000E+00  9.000E+00
      21     1     1     2   515   516  2.080621411E+01 -1.773269087E+01 -1.355714075E+02  1.383002292E+02  2.697398305E-06  0.00000E+00  9.000E+00
      21     1     1     2   513   514 -1.641807501E+01  2.856424714E+00 -1.312443779E+02  1.322981447E+02  1.907348633E-06  0.00000E+00  9.000E+00
</event>
<event>
      5  10001  2.40292E+09  7.11655E+00 -1.00000E+00  2.14474E-01
      21    -1     0     0   515   512  0.000000000E+00  0.000000000E+00  1.131163227E+01  1.131163227E+01  0.000000000E+00  0.00000E+00  9.000E+00
      21    -1     0     0   512   516  0.000000000E+00  0.000000000E+00 -4.853128209E+01  4.853128209E+01  0.000000000E+00  0.00000E+00  9.000E+00
      21     1     1     2   515   511 -1.608931362E+01 -3.000021150E+00  3.672887376E-01  1.637073733E+01  6.165102209E-07  0.00000E+00  9.000E+00
       4     1     1     2   511     0  9.132713241E+00  1.642592193E+00 -6.200819646E+00  1.126076039E+01  1.500000000E+00  0.00000E+00  9.000E+00
      -4     1     1     2     0   516  6.956600377E+00  1.357428957E+00 -3.138611891E+01  3.221141665E+01  1.500000000E+00  0.00000E+00  9.000E+00
</event>
<event>
      5  10001  2.40292E+09  1.17002E+01 -1.00000E+00  1.88137E-01
      21    -1     0     0   513   511  0.000000000E+00  0.000000000E+00  1.090149660E+02  1.090149660E+02  0.000000000E+00  0.00000E+00  9.000E+00
      21    -1     0     0   514   515  0.000000000E+00  0.000000000E+00 -2.418972030E+01  2.418972030E+01  0.000000000E+00  0.00000E+00  9.000E+00
      -3     1     1     2     0   515  8.993122111E+00 -1.626982360E+01 -1.471073128E+01  2.371157987E+01  5.000000000E-01  0.00000E+00  9.000E+00
       3     1     1     2   513     0 -4.786553393E-01  2.429341954E+01  2.830232575E+01  3.730510672E+01  5.000000000E-01  0.00000E+00  9.000E+00
      21     1     1     2   514   511 -8.514466771E+00 -8.023595942E+00  7.123365127E+01  7.218799976E+01  0.000000000E+00  0.00000E+00  9.000E+00
</event>
<event>
      5  10001  2.40292E+09  5.35296E+00 -1.00000E+00  2.33370E-01
      21    -1     0     0   512   515  0.000000000E+00  0.000000000E+00  2.771916618E+01  2.771916618E+01  0.000000000E+00  0.00000E+00  9.000E+00
      21    -1     0     0   514   511  0.000000000E+00  0.000000000E+00 -4.083511065E+01  4.083511065E+01  0.000000000E+00  0.00000E+00  9.000E+00
      21     1     1     2   512   511  2.032145536E+01 -4.430498984E+00  1.900631342E+01  2.817500344E+01  6.307962682E-07  0.00000E+00  9.000E+00
      21     1     1     2   513   515 -1.520432837E+01  4.244971830E+00 -3.148317984E+01  3.521905734E+01  3.371747881E-07  0.00000E+00  9.000E+00
      21     1     1     2   514   513 -5.117126986E+00  1.855271548E-01 -6.390780476E-01  5.160216048E+00  1.307571588E-07  0.00000E+00  9.000E+00
</event>
<event>
      5  10001  2.40292E+09  3.08169E+01 -1.00000E+00  1.52199E-01
      21    -1     0     0   516   511  0.000000000E+00  0.000000000E+00  4.397822783E+00  4.397822783E+00  0.000000000E+00  0.00000E+00  9.000E+00
      21    -1     0     0   514   516  0.000000000E+00  0.000000000E+00 -8.606261717E+01  8.606261717E+01  0.000000000E+00  0.00000E+00  9.000E+00
      21     1     1     2   514   517  3.486377129E+00 -1.040527111E+00 -1.875507169E+01  1.910471764E+01  2.384185791E-07  0.00000E+00  9.000E+00
      21     1     1     2   517   512  1.464198338E+00  1.291564227E+00  3.900496418E+00  4.361867402E+00  2.308477966E-07  0.00000E+00  9.000E+00
      21     1     1     2   512   511 -4.950575467E+00 -2.510371159E-01 -6.681021912E+01  6.699385491E+01  9.536743164E-07  0.00000E+00  9.000E+00
</event>
<event>
      5  10001  2.40292E+09  5.14677E+00 -1.00000E+00  2.36255E-01
       2    -1     0     0   515     0  0.000000000E+00  0.000000000E+00  3.317098967E+01  3.317098967E+01  0.000000000E+00  0.00000E+00  9.000E+00
      21    -1     0     0   513   514  0.000000000E+00  0.000000000E+00 -1.118450336E+02  1.118450336E+02  0.000000000E+00  0.00000E+00  9.000E+00
      21     1     1     2   513   512 -2.440135002E+00 -8.253248210E+00  4.516854510E+00  9.719688241E+00  3.576278687E-07  0.00000E+00  9.000E+00
       2     1     1     2   512     0 -7.404004403E-01  1.229959720E+01  2.452985312E+01  2.745270256E+01  3.300000131E-01  0.00000E+00  9.000E+00
      21     1     1     2   515   514  3.180535442E+00 -4.046348991E+00 -1.077207515E+02  1.078436324E+02  1.348699152E-06  0.00000E+00  9.000E+00
</event>
<event>
      5  10001  2.40292E+09  3.51239E+00 -1.00000E+00  2.77403E-01
      21    -1     0     0   512   513  0.000000000E+00  0.000000000E+00  6.246551052E-01  6.246551052E-01  0.000000000E+00  0.00000E+00  9.000E+00
      21    -1     0     0   516   511  0.000000000E+00  0.000000000E+00 -8.484117298E+02  8.484117298E+02  0.000000000E+00  0.00000E+00  9.000E+00
      21     1     1     2   514   513 -1.809406052E+01 -9.658928404E+00 -2.882028416E+02  2.889317702E+02  6.607249480E-06  0.00000E+00  9.000E+00
      21     1     1     2   516   514  1.595064368E+01  1.244148936E+01 -5.068614629E+02  5.072649764E+02  0.000000000E+00  0.00000E+00  9.000E+00
      21     1     1     2   512   511  2.143416834E+00 -2.782560952E+00 -5.272277008E+01  5.283963821E+01  0.000000000E+00  0.00000E+00  9.000E+00
</event>
<event>
      5  10001  2.40292E+09  1.74168E+01 -1.00000E+00  1.71438E-01
      21    -1     0     0   515   511  0.000000000E+00  0.000000000E+00  3.537675662E+00  3.537675662E+00  0.000000000E+00  0.00000E+00  9.000E+00
      21    -1     0     0   513   517  0.000000000E+00  0.000000000E+00 -2.284288882E+02  2.284288882E+02  0.000000000E+00  0.00000E+00  9.000E+00
      21     1     1     2   515   517 -1.647349634E+00  2.592143905E+01 -8.785595003E+01  9.161496995E+01  9.536743164E-07  0.00000E+00  9.000E+00
      -3     1     1     2     0   511 -5.471057022E+00 -1.075466314E+01 -7.993037426E+01  8.083755299E+01  5.000000000E-01  0.00000E+00  9.000E+00
       3     1     1     2   513     0  7.118406655E+00 -1.516677591E+01 -5.710488824E+01  5.951404091E+01  5.000000000E-01  0.00000E+00  9.000E+00
</event>
<event>
      5  10001  2.40292E+09  1.06419E+01 -1.00000E+00  1.92628E-01
       2    -1     0     0   512     0  0.000000000E+00  0.000000000E+00  4.768966307E+02  4.768966307E+02  0.000000000E+00  0.00000E+00  9.000E+00
      21    -1     0     0   513   514  0.000000000E+00  0.000000000E+00 -7.366075333E+00  7.366075333E+00  0.000000000E+00  0.00000E+00  9.000E+00
      21     1     1     2   512   514 -4.848576276E+00  9.906022502E+00  2.173229437E+01  2.437069126E+01  5.840038640E-07  0.00000E+00  9.000E+00
      21     1     1     2   513   516  3.997464822E+00 -2.051373239E+01  1.227320849E+01  2.423684361E+01  3.371747881E-07  0.00000E+00  9.000E+00
       2     1     1     2   516     0  8.511114539E-01  1.060770989E+01  4.355250525E+02  4.356551712E+02  3.300000131E-01  0.00000E+00  9.000E+00
</event>
<event>
      5  10001  2.40292E+09  2.81076E+00 -1.00000E+00  3.05579E-01
       2    -1     0     0   512     0  0.000000000E+00  0.000000000E+00  2.202702539E+00  2.202702539E+00  0.000000000E+00  0.00000E+00  9.000E+00
      21    -1     0     0   515   512  0.000000000E+00  0.000000000E+00 -1.894426708E+02  1.894426708E+02  0.000000000E+00  0.00000E+00  9.000E+00
      21     1     1     2   515   511 -1.443233505E+01 -3.122114696E-01 -1.565504496E+02  1.572146082E+02  0.000000000E+00  0.00000E+00  9.000E+00
       2     1     1     2   513     0  1.084299258E+01  1.395156622E+00 -1.681924659E+01  2.006272429E+01  3.300000131E-01  0.00000E+00  9.000E+00
      21     1     1     2   511   513  3.589342466E+00 -1.082945152E+00 -1.387027206E+01  1.436804080E+01  1.685873940E-07  0.00000E+00  9.000E+00
</event>
<event>
      5  10001  2.40292E+09  8.64798E+00 -1.00000E+00  2.03281E-01
      -2    -1     0     0     0   514  0.000000000E+00  0.000000000E+00  5.171723821E+00  5.171723821E+00  0.000000000E+00  0.00000E+00  9.000E+00
      21    -1     0     0   514   512  0.000000000E+00  0.000000000E+00 -3.844802038E+01  3.844802038E+01  0.000000000E+00  0.00000E+00  9.000E+00
      -2     1     1     2     0   516  7.867774816E-01 -5.320077991E+00  1.443440842E+00  5.578052537E+00  3.300000131E-01  0.00000E+00  9.000E+00
      21     1     1     2   515   512 -6.790171234E+00  5.224254568E+00 -2.658322346E+01  2.792968011E+01  0.000000000E+00  0.00000E+00  9.000E+00
      21     1     1     2   516   515  6.003393752E+00  9.582342318E-02 -8.136513942E+00  1.011201156E+01  1.192092896E-07  0.00000E+00  9.000E+00
</event>
<event>
      5  10001  2.40292E+09  4.85577E+00 -1.00000E+00  2.44996E-01
      21    -1     0     0   514   513  0.000000000E+00  0.000000000E+00  8.822908019E+01  8.822908019E+01  0.000000000E+00  0.00000E+00  9.000E+00
      -1    -1     0     0     0   511  0.000000000E+00  0.000000000E+00 -2.212365648E+01  2.212365648E+01  0.000000000E+00  0.00000E+00  9.000E+00
      -1     1     1     2     0   513  2.049800133E+01 -1.295105912E+01 -1.193251334E+01  2.702576114E+01  3.300000131E-01  0.00000E+00  9.000E+00
      21     1     1     2   512   511 -1.806926072E+01  8.746413026E+00  3.782609312E+01  4.282302237E+01  1.066240300E-06  0.00000E+00  9.000E+00
      21     1     1     2   514   512 -2.428740607E+00  4.204646090E+00  4.021184392E+01  4.050395316E+01  0.000000000E+00  0.00000E+00  9.000E+00
</event>
<event>
      5  10001  2.40292E+09  4.43874E+00 -1.00000E+00  2.53156E-01
      21    -1     0     0   515   512  0.000000000E+00  0.000000000E+00  2.392273419E+01  2.392273419E+01  0.000000000E+00  0.00000E+00  9.000E+00
      21    -1     0     0   511   516  0.000000000E+00  0.000000000E+00 -5.443960405E+01  5.443960405E+01  0.000000000E+00  0.00000E+00  9.000E+00
      21     1     1     2   515   516 -4.154899821E+00 -1.033571943E+01  1.764111212E+01  2.086382337E+01  6.743495762E-07  0.00000E+00  9.000E+00
      21     1     1     2   513   512 -2.829713547E-01  1.042340384E+01 -1.388977911E+00  1.051934789E+01  2.555016905E-07  0.00000E+00  9.000E+00
      21     1     1     2   511   513  4.437871176E+00 -8.768440641E-02 -4.676900407E+01  4.697916699E+01  0.000000000E+00  0.00000E+00  9.000E+00
</event>
<event>
      5  10001  2.40292E+09  9.89351E+00 -1.00000E+00  1.96237E-01
      21    -1     0     0   514   513  0.000000000E+00  0.000000000E+00  2.869965035E-01  2.869965035E-01  0.000000000E+00  0.00000E+00  9.000E+00
      21    -1     0     0   511   517  0.000000000E+00  0.000000000E+00 -4.955706236E+02  4.955706236E+02  0.000000000E+00  0.00000E+00  9.000E+00
      21     1     1     2   514   517  3.961920033E+00  8.417770541E+00 -1.094988692E+02  1.098933939E+02  0.000000000E+00  0.00000E+00  9.000E+00
      21     1     1     2   512   513  1.886825295E+00 -2.807465761E+00 -1.557935325E+02  1.558302498E+02  0.000000000E+00  0.00000E+00  9.000E+00
      21     1     1     2   511   512 -5.848745328E+00 -5.610304781E+00 -2.299912254E+02  2.301339764E+02  2.697398305E-06  0.00000E+00  9.000E+00
</event>
<event>
      5  10001  2.40292E+09  5.98458E+00 -1.00000E+00  2.25567E-01
      21    -1     0     0   513   512  0.000000000E+00  0.000000000E+00  4.456655901E+01  4.456655901E+01  0.000000000E+00  0.00000E+00  9.000E+00
      21    -1     0     0   511   515  0.000000000E+00  0.000000000E+00 -5.369958628E+01  5.369958628E+01  0.000000000E+00  0.00000E+00  9.000E+00
      21     1     1     2   511   516  1.481618456E+01 -1.161284801E+01 -4.897234642E+01  5.246587727E+01  9.536743164E-07  0.00000E+00  9.000E+00
      21     1     1     2   516   512 -1.336503575E+01  5.806868410E+00  1.801754332E+01  2.317273762E+01  6.307962682E-07  0.00000E+00  9.000E+00
      21     1     1     2   513   515 -1.451148808E+00  5.805979596E+00  2.182177583E+01  2.262753040E+01  2.384185791E-07  0.00000E+00  9.000E+00
</event>
<event>
      5  10001  2.40292E+09  2.43645E+00 -1.00000E+00  3.27115E-01
      21    -1     0     0   511   516  0.000000000E+00  0.000000000E+00  2.044970238E+01  2.044970238E+01  0.000000000E+00  0.00000E+00  9.000E+00
      -3    -1     0     0     0   514  0.000000000E+00  0.000000000E+00 -3.625842898E+01  3.625842898E+01  0.000000000E+00  0.00000E+00  9.000E+00
      -3     1     1     2     0   512 -5.015991961E+00  1.014918718E+01 -2.319940812E+01  2.581915399E+01  5.000000000E-01  0.00000E+00  9.000E+00
      21     1     1     2   511   514  2.600406524E+00 -1.046522032E+01 -9.166818228E+00  1.415321543E+01  2.920019320E-07  0.00000E+00  9.000E+00
      21     1     1     2   512   516  2.415585437E+00  3.160331451E-01  1.655749975E+01  1.673576195E+01  0.000000000E+00  0.00000E+00  9.000E+00
</event>
<event>
      5  10001  2.40292E+09  5.31712E+00 -1.00000E+00  2.33858E-01
       2    -1     0     0   512     0  0.000000000E+00  0.000000000E+00  9.049007110E+02  9.049007110E+02  0.000000000E+00  0.00000E+00  9.000E+00
       3    -1     0     0   511     0  0.000000000E+00  0.000000000E+00 -3.085694209E+00  3.085694209E+00  0.000000000E+00  0.00000E+00  9.000E+00
      21     1     1     2   511   513 -8.461113921E+00  1.041932500E+01  3.937131293E+01  4.159631070E+01  9.536743164E-07  0.00000E+00  9.000E+00
       2     1     1     2   513     0  4.602434285E+00 -6.761484646E+00  8.607481157E+02  8.607870396E+02  3.300000131E-01  0.00000E+00  9.000E+00
       3     1     1     2   512     0  3.858679636E+00 -3.657840351E+00  1.695588190E+00  5.603054870E+00  5.000000000E-01  0.00000E+00  9.000E+00
</event>
<event>
      5  10001  2.40292E+09  2.67119E+00 -1.00000E+00  3.12899E-01
      21    -1     0     0   514   513  0.000000000E+00  0.000000000E+00  2.763449597E+02  2.763449597E+02  0.000000000E+00  0.00000E+00  9.000E+00
      21    -1     0     0   516   514  0.000000000E+00  0.000000000E+00 -4.550944246E+00  4.550944246E+00  0.000000000E+00  0.00000E+00  9.000E+00
      21     1     1     2   515   511 -1.088670777E+01  9.642061423E+00  8.988245554E+00  1.709614906E+01  5.960464478E-07  0.00000E+00  9.000E+00
      21     1     1     2   511   513  8.365064214E+00 -1.052328535E+01  2.575828455E+02  2.579333948E+02  0.000000000E+00  0.00000E+00  9.000E+00
      21     1     1     2   516   515  2.521643553E+00  8.812239305E-01  5.222924318E+00  5.866360052E+00  1.032382731E-07  0.00000E+00  9.000E+00
</event>
<event>
      5  10001  2.40292E+09  7.97769E+00 -1.00000E+00  2.07763E-01
      21    -1     0     0   512   511  0.000000000E+00  0.000000000E+00  1.525972837E+02  1.525972837E+02  0.000000000E+00  0.00000E+00  9.000E+00
      21    -1     0     0   516   515  0.000000000E+00  0.000000000E+00 -1.454333923E+00  1.454333923E+00  0.000000000E+00  0.00000E+00  9.000E+00
      21     1     1     2   512   515 -4.532639848E+00  9.637638916E+00  1.023667377E+02  1.029192786E+02  1.348699152E-06  0.00000E+00  9.000E+00
      21     1     1     2   513   511  7.511704243E+00 -7.813566255E+00  4.330737378E+01  4.464309736E+01  4.768371582E-07  0.00000E+00  9.000E+00
      21     1     1     2   516   513 -2.979064395E+00 -1.824072661E+00  5.468838265E+00  6.489241690E+00  2.598106231E-07  0.00000E+00  9.000E+00
</event>
<event>
      5  10001  2.40292E+09  1.97958E+01 -1.00000E+00  1.66696E-01
      21    -1     0     0   514   513  0.000000000E+00  0.000000000E+00  1.313626860E+02  1.313626860E+02  0.000000000E+00  0.00000E+00  9.000E+00
      21    -1     0     0   516   517  0.000000000E+00  0.000000000E+00 -2.631999117E+01  2.631999117E+01  0.000000000E+00  0.00000E+00  9.000E+00
      21     1     1     2   514   517  8.785605421E+00  5.190371871E+00 -2.386265520E+01  2.595290226E+01  4.768371582E-07  0.00000E+00  9.000E+00
       4     1     1     2   516     0 -8.441037070E+00 -1.494129033E+01  7.872374014E+01  8.058641651E+01  1.500000000E+00  0.00000E+00  9.000E+00
      -4     1     1     2     0   513 -3.445683518E-01  9.750918455E+00  5.018160985E+01  5.114335837E+01  1.500000000E+00  0.00000E+00  9.000E+00
</event>
<event>
      5  10001  2.40292E+09  7.98808E+00 -1.00000E+00  2.07689E-01
      21    -1     0     0   511   515  0.000000000E+00  0.000000000E+00  4.649448331E+00  4.649448331E+00  0.000000000E+00  0.00000E+00  9.000E+00
      21    -1     0     0   512   511  0.000000000E+00  0.000000000E+00 -4.651436485E+01  4.651436485E+01  0.000000000E+00  0.00000E+00  9.000E+00
      21     1     1     2   513   515 -1.298607554E+01  5.147182610E+00 -1.459473661E+01  2.020242519E+01  2.384185791E-07  0.00000E+00  9.000E+00
      21     1     1     2   514   513  3.515652712E+00 -5.428301676E-03 -4.053677956E+00  5.365831569E+00  1.460009660E-07  0.00000E+00  9.000E+00
      21     1     1     2   512   514  9.470422825E+00 -5.141754308E+00 -2.321650195E+01  2.559555643E+01  0.000000000E+00  0.00000E+00  9.000E+00
</event>
<event>
      5  10001  2.40292E+09  4.01933E+00 -1.00000E+00  2.62870E-01
      21    -1     0     0   516   514  0.000000000E+00  0.000000000E+00  1.692865243E+01  1.692865243E+01  0.000000000E+00  0.00000E+00  9.000E+00
      21    -1     0     0   512   516  0.000000000E+00  0.000000000E+00 -4.127380583E+01  4.127380583E+01  0.000000000E+00  0.00000E+00  9.000E+00
      21     1     1     2   512   517 -1.172506934E+01 -9.486122034E+00 -3.568209123E+01  3.873855182E+01  4.768371582E-07  0.00000E+00  9.000E+00
       3     1     1     2   517     0  7.128187127E+00  3.323916687E+00  7.406486904E+00  1.081505997E+01  5.000000000E-01  0.00000E+00  9.000E+00
      -3     1     1     2     0   514  4.596882208E+00  6.162205347E+00  3.930450926E+00  8.648846470E+00  5.000000000E-01  0.00000E+00  9.000E+00
</event>
<event>
      5  10001  2.40292E+09  5.76034E+00 -1.00000E+00  2.28176E-01
      21    -1     0     0   511   515  0.000000000E+00  0.000000000E+00  1.929905425E+02  1.929905425E+02  0.000000000E+00  0.00000E+00  9.000E+00
      21    -1     0     0   512   513  0.000000000E+00  0.000000000E+00 -9.323527276E+00  9.323527276E+00  0.000000000E+00  0.00000E+00  9.000E+00
      21     1     1     2   511   513 -3.058720553E-01 -1.146023803E+01 -2.421393726E+00  1.171724203E+01  1.999200562E-07  0.00000E+00  9.000E+00
      21     1     1     2   512   514 -4.706731132E+00  8.622046951E+00  8.720644449E+00  1.313554914E+01  2.064765462E-07  0.00000E+00  9.000E+00
      21     1     1     2   514   515  5.012603187E+00  2.838191074E+00  1.773677645E+02  1.774612786E+02  3.303624740E-06  0.00000E+00  9.000E+00
</event>
<event>
      5  10001  2.40292E+09  5.01210E+00 -1.00000E+00  2.38245E-01
      21    -1     0     0   516   514  0.000000000E+00  0.000000000E+00  1.930900132E+02  1.930900132E+02  0.000000000E+00  0.00000E+00  9.000E+00
      21    -1     0     0   515   511  0.000000000E+00  0.000000000E+00 -5.280965812E+00  5.280965812E+00  0.000000000E+00  0.00000E+00  9.000E+00
      21     1     1     2   512   514  1.064396822E+01 -3.443689938E+00  1.684841545E+02  1.688551550E+02  3.303624740E-06  0.00000E+00  9.000E+00
      21     1     1     2   515   512 -1.223771448E+01  8.195648764E+00  7.196666540E+00  1.639275217E+01  4.042583694E-07  0.00000E+00  9.000E+00
      21     1     1     2   516   511  1.593746256E+00 -4.751958826E+00  1.212822641E+01  1.312307188E+01  0.000000000E+00  0.00000E+00  9.000E+00
</event>
<event>
      5  10001  2.40292E+09  8.26797E+00 -1.00000E+00  2.05752E-01
      21    -1     0     0   513   512  0.000000000E+00  0.000000000E+00  3.061470970E+01  3.061470970E+01  0.000000000E+00  0.00000E+00  9.000E+00
      21    -1     0     0   517   513  0.000000000E+00  0.000000000E+00 -6.634773022E+01  6.634773022E+01  0.000000000E+00  0.00000E+00  9.000E+00
      21     1     1     2   517   511  1.972123907E-01  8.022756090E+00 -6.034959624E+01  6.088084489E+01  9.536743164E-07  0.00000E+00  9.000E+00
      21     1     1     2   511   514  7.305510176E+00 -1.149672465E+01  4.521878245E+00  1.435244019E+01  1.332800375E-07  0.00000E+00  9.000E+00
      21     1     1     2   514   512 -7.502722567E+00  3.473968558E+00  2.009469748E+01  2.172915484E+01  2.384185791E-07  0.00000E+00  9.000E+00
</event>
<event>
      5  10001  2.40292E+09  4.58622E+00 -1.00000E+00  2.50120E-01
      21    -1     0     0   515   511  0.000000000E+00  0.000000000E+00  1.146419274E+01  1.146419274E+01  0.000000000E+00  0.00000E+00  9.000E+00
      21    -1     0     0   513   512  0.000000000E+00  0.000000000E+00 -6.739101256E+01  6.739101256E+01  0.000000000E+00  0.00000E+00  9.000E+00
      21     1     1     2   515   512  1.252543031E+01 -6.902872237E+00 -2.904758485E+00  1.459361749E+01  3.475518164E-07  0.00000E+00  9.000E+00
      21     1     1     2   516   511 -1.187671293E+01  2.362761710E+00 -1.124256079E+00  1.216153381E+01  3.541965581E-07  0.00000E+00  9.000E+00
      21     1     1     2   513   516 -6.487173845E-01  4.540110527E+00 -5.189780525E+01  5.210005401E+01  0.000000000E+00  0.00000E+00  9.000E+00
</event>
<event>
      5  10001  2.40292E+09  2.83199E+01 -1.00000E+00  1.54763E-01
      21    -1     0     0   516   511  0.000000000E+00  0.000000000E+00  1.010370030E+01  1.010370030E+01  0.000000000E+00  0.00000E+00  9.000E+00
      21    -1     0     0   514   516  0.000000000E+00  0.000000000E+00 -3.308679675E+01  3.308679675E+01  0.000000000E+00  0.00000E+00  9.000E+00
      -2     1     1     2     0   512  2.822182679E+00  1.779561514E+00 -5.970478378E+00  6.847413112E+00  3.300000131E-01  0.00000E+00  9.000E+00
       2     1     1     2   514     0  8.909680913E+00 -1.222712042E+01 -1.342465175E+01  2.022906480E+01  3.300000131E-01  0.00000E+00  9.000E+00
      21     1     1     2   512   511 -1.173186359E+01  1.044755891E+01 -3.587966312E+00  1.611401914E+01  2.827296549E-07  0.00000E+00  9.000E+00
</event>
<event>
      5  10001  2.40292E+09  1.27702E+01 -1.00000E+00  1.84180E-01
      21    -1     0     0   513   511  0.000000000E+00  0.000000000E+00  6.905093132E+01  6.905093132E+01  0.000000000E+00  0.00000E+00  9.000E+00
      -1    -1     0     0     0   513  0.000000000E+00  0.000000000E+00 -6.203048657E+01  6.203048657E+01  0.000000000E+00  0.00000E+00  9.000E+00
      -1     1     1     2     0   514 -7.223330019E+00 -3.905043589E+00 -5.415777751E+01  5.477772929E+01  3.300000131E-01  0.00000E+00  9.000E+00
      21     1     1     2   515   511  1.653272965E+01 -1.203189170E+00  6.333478401E+01  6.546811192E+01  1.507891493E-06  0.00000E+00  9.000E+00
      21     1     1     2   514   515 -9.309399630E+00  5.108232758E+00 -2.156561746E+00  1.083557668E+01  8.429369702E-08  0.00000E+00  9.000E+00
</event>
<event>
      5  10001  2.40292E+09  6.66023E+00 -1.00000E+00  2.18580E-01
      21    -1     0     0   512   511  0.000000000E+00  0.000000000E+00  4.955562067E+01  4.955562067E+01  0.000000000E+00  0.00000E+00  9.000E+00
      21    -1     0     0   516   512  0.000000000E+00  0.000000000E+00 -1.673617585E+02  1.673617585E+02  0.000000000E+00  0.00000E+00  9.000E+00
      21     1     1     2   516   517  1.213002027E+01  6.677228019E+00 -1.410822184E+02  1.417600618E+02  3.303624740E-06  0.00000E+00  9.000E+00
      21     1     1     2   517   514 -9.264335777E+00 -6.650326404E-01 -2.487255598E+01  2.655022084E+01  6.743495762E-07  0.00000E+00  9.000E+00
      21     1     1     2   514   511 -2.865684490E+00 -6.012195379E+00  4.814863651E+01  4.860709659E+01  0.000000000E+00  0.00000E+00  9.000E+00
</event>
<event>
      5  10001  2.40292E+09  9.70041E+00 -1.00000E+00  1.97237E-01
       1    -1     0     0   513     0  0.000000000E+00  0.000000000E+00  5.517841219E+02  5.517841219E+02  0.000000000E+00  0.00000E+00  9.000E+00
      21    -1     0     0   511   513  0.000000000E+00  0.000000000E+00 -1.462682405E+00  1.462682405E+00  0.000000000E+00  0.00000E+00  9.000E+00
      21     1     1     2   515   514 -1.521524985E+01 -7.713701068E+00  9.414344761E+01  9.567650568E+01  0.000000000E+00  0.00000E+00  9.000E+00
      21     1     1     2   511   515  8.399814761E+00  1.461575067E+01  1.125664590E+02  1.138217236E+02  0.000000000E+00  0.00000E+00  9.000E+00
       1     1     1     2   514     0  6.815435091E+00 -6.902049601E+00  3.436115329E+02  3.437485751E+02  3.300000131E-01  0.00000E+00  9.000E+00
</event>
<event>
      5  10001  2.40292E+09  6.56556E+00 -1.00000E+00  2.19489E-01
      21    -1     0     0   513   511  0.000000000E+00  0.000000000E+00  3.863852825E+01  3.863852825E+01  0.000000000E+00  0.00000E+00  9.000E+00
      -4    -1     0     0     0   512  0.000000000E+00  0.000000000E+00 -4.116503785E+01  4.116503785E+01  0.000000000E+00  0.00000E+00  9.000E+00
      -4     1     1     2     0   511 -1.160576963E+01  7.267197734E+00 -5.476245813E+00  1.482380922E+01  1.500000000E+00  0.00000E+00  9.000E+00
      21     1     1     2   515   512  5.247674908E+00 -5.655346243E+00 -3.020894994E+01  3.117854534E+01  3.371747881E-07  0.00000E+00  9.000E+00
      21     1     1     2   513   515  6.358094719E+00 -1.611851491E+00  3.315868616E+01  3.380121154E+01  8.259061849E-07  0.00000E+00  9.000E+00
</event>
<event>
      5  10001  2.40292E+09  4.35633E+01 -1.00000E+00  1.42548E-01
      21    -1     0     0   514   511  0.000000000E+00  0.000000000E+00  3.145107526E+01  3.145107526E+01  0.000000000E+00  0.00000E+00  9.000E+00
      21    -1     0     0   516   514  0.000000000E+00  0.000000000E+00 -1.683124937E+01  1.683124937E+01  0.000000000E+00  0.00000E+00  9.000E+00
      21     1     1     2   516   517 -3.535844180E+00 -6.573408867E-01  2.950283852E+00  4.651716448E+00  3.908537939E-07  0.00000E+00  9.000E+00
      -2     1     1     2     0   511  1.872832745E+00 -1.716948626E+00  2.745677809E+01  2.757605806E+01  3.300000131E-01  0.00000E+00  9.000E+00
       2     1     1     2   517     0  1.663011435E+00  2.374289512E+00 -1.578723605E+01  1.605455013E+01  3.300000131E-01  0.00000E+00  9.000E+00
</event>
<event>
      5  10001  2.40292E+09  8.39570E+00 -1.00000E+00  2.04902E-01
       2    -1     0     0   514     0  0.000000000E+00  0.000000000E+00  2.887972376E+02  2.887972376E+02  0.000000000E+00  0.00000E+00  9.000E+00
      21    -1     0     0   513   514  0.000000000E+00  0.000000000E+00 -6.454910863E+00  6.454910863E+00  0.000000000E+00  0.00000E+00  9.000E+00
      21     1     1     2   513   512 -1.536283227E+01  7.633131250E+00  6.149357987E+00  1.822349889E+01  4.298152060E-07  0.00000E+00  9.000E+00
      21     1     1     2   512   511  1.654289057E+01 -4.599345860E+00  1.901995916E+02  1.909730501E+02  3.814697266E-06  0.00000E+00  9.000E+00
       2     1     1     2   511     0 -1.180058303E+00 -3.033785390E+00  8.599337716E+01  8.605559951E+01  3.300000131E-01  0.00000E+00  9.000E+00
</event>
<event>
      5  10001  2.40292E+09  3.09930E+00 -1.00000E+00  2.92507E-01
      21    -1     0     0   515   512  0.000000000E+00  0.000000000E+00  9.325236971E-01  9.325236971E-01  0.000000000E+00  0.00000E+00  9.000E+00
      21    -1     0     0   516   515  0.000000000E+00  0.000000000E+00 -1.188721027E+02  1.188721027E+02  0.000000000E+00  0.00000E+00  9.000E+00
      21     1     1     2   516   513  5.414109796E+00  8.024239809E+00 -4.408567228E+01  4.513587830E+01  4.768371582E-07  0.00000E+00  9.000E+00
      21     1     1     2   514   512 -3.717092031E+00 -6.399571893E+00 -6.731494306E+01  6.772054971E+01  9.536743164E-07  0.00000E+00  9.000E+00
      21     1     1     2   513   514 -1.697017765E+00 -1.624667916E+00 -6.538963707E+00  6.948198435E+00  1.685873940E-07  0.00000E+00  9.000E+00
</event>
<event>
      5  10001  2.40292E+09  1.57715E+01 -1.00000E+00  1.75310E-01
      21    -1     0     0   511   514  0.000000000E+00  0.000000000E+00  6.443438806E+01  6.443438806E+01  0.000000000E+00  0.00000E+00  9.000E+00
      21    -1     0     0   513   517  0.000000000E+00  0.000000000E+00 -2.675678782E+00  2.675678782E+00  0.000000000E+00  0.00000E+00  9.000E+00
      21     1     1     2   511   517 -9.666079249E+00  5.172653847E+00  2.146295997E+01  2.410079017E+01  2.384185791E-07  0.00000E+00  9.000E+00
      21     1     1     2   513   512  2.616718033E+00  5.956321566E-01  1.333907148E+00  2.996881581E+00  2.980232239E-08  0.00000E+00  9.000E+00
      21     1     1     2   512   514  7.049361217E+00 -5.768286004E+00  3.896184216E+01  4.001239510E+01  4.768371582E-07  0.00000E+00  9.000E+00
</event>
<event>
      5  10001  2.40292E+09  2.82507E+01 -1.00000E+00  1.54838E-01
      -1    -1     0     0     0   514  0.000000000E+00  0.000000000E+00  9.292284476E+01  9.292284476E+01  0.000000000E+00  0.00000E+00  9.000E+00
      21    -1     0     0   511   512  0.000000000E+00  0.000000000E+00 -6.130857705E+00  6.130857705E+00  0.000000000E+00  0.00000E+00  9.000E+00
      -1     1     1     2     0   513 -8.580850489E+00 -5.335605913E+00  8.147107189E+01  8.209594472E+01  3.300000131E-01  0.00000E+00  9.000E+00
      21     1     1     2   511   514 -3.386406128E-01  7.016030882E+00  2.402183318E+00  7.423600979E+00  2.064765462E-07  0.00000E+00  9.000E+00
      21     1     1     2   513   512  8.919491102E+00 -1.680424969E+00  2.918731853E+00  9.534156765E+00  2.858538343E-07  0.00000E+00  9.000E+00
</event>
<event>
      5  10001  2.40292E+09  7.58525E+00 -1.00000E+00  2.10672E-01
      21    -1     0     0   515   511  0.000000000E+00  0.000000000E+00  1.554201657E+00  1.554201657E+00  0.000000000E+00  0.00000E+00  9.000E+00
      21    -1     0     0   513   516  0.000000000E+00  0.000000000E+00 -1.845564388E+02  1.845564388E+02  0.000000000E+00  0.00000E+00  9.000E+00
      21     1     1     2   515   516 -2.782322156E+00  9.624575931E+00 -1.763951932E+01  2.028611398E+01  2.384185791E-07  0.00000E+00  9.000E+00
      -3     1     1     2     0   511  1.859568691E+00 -7.262051798E+00 -6.568171560E+01  6.611000799E+01  5.000000000E-01  0.00000E+00  9.000E+00
       3     1     1     2   513     0  9.227534650E-01 -2.362524132E+00 -9.968100219E+01  9.971451846E+01  5.000000000E-01  0.00000E+00  9.000E+00
</event>
<event>
      5  10001  2.40292E+09  8.90220E+00 -1.00000E+00  2.01720E-01
      21    -1     0     0   514   511  0.000000000E+00  0.000000000E+00  1.931808144E+01  1.931808144E+01  0.000000000E+00  0.00000E+00  9.000E+00
       1    -1     0     0   511     0  0.000000000E+00  0.000000000E+00 -5.240713508E+02  5.240713508E+02  0.000000000E+00  0.00000E+00  9.000E+00
      21     1     1     2   513   512 -1.345382405E+01  4.885806331E+00 -3.715679121E+01  3.981838292E+01  1.066240300E-06  0.00000E+00  9.000E+00
       1     1     1     2   512     0  2.003689060E+01 -1.087846740E+01 -4.841973313E+02  4.847339297E+02  3.300000131E-01  0.00000E+00  9.000E+00
      21     1     1     2   514   513 -6.583066547E+00  5.992661065E+00  1.660085314E+01  1.883711965E+01  1.143415337E-06  0.00000E+00  9.000E+00
</event>
<event>
      5  10001  2.40292E+09  9.73586E+00 -1.00000E+00  1.97051E-01
      21    -1     0     0   515   513  0.000000000E+00  0.000000000E+00  2.054231679E+02  2.054231679E+02  0.000000000E+00  0.00000E+00  9.000E+00
      21    -1     0     0   511   512  0.000000000E+00  0.000000000E+00 -5.066508818E+00  5.066508818E+00  0.000000000E+00  0.00000E+00  9.000E+00
      21     1     1     2   516   513  9.057281138E+00  9.192355734E+00  1.284207619E+02  1.290675243E+02  1.907348633E-06  0.00000E+00  9.000E+00
      21     1     1     2   511   516 -1.871620761E+00 -1.576147082E+01  6.963109439E+01  7.141719843E+01  9.536743164E-07  0.00000E+00  9.000E+00
      21     1     1     2   515   512 -7.185660377E+00  6.569115086E+00  2.304802798E+00  1.000495397E+01  2.365486006E-07  0.00000E+00  9.000E+00
</event>
<event>
      5  10001  2.40292E+09  1.59861E+01 -1.00000E+00  1.74771E-01
      21    -1     0     0   514   512  0.000000000E+00  0.000000000E+00  5.421338648E+01  5.421338648E+01  0.000000000E+00  0.00000E+00  9.000E+00
      21    -1     0     0   517   514  0.000000000E+00  0.000000000E+00 -2.541843465E+02  2.541843465E+02  0.000000000E+00  0.00000E+00  9.000E+00
      21     1     1     2   511   512 -9.917169590E+00  5.356080130E+00  5.188518692E+01  5.309529610E+01  1.168007728E-06  0.00000E+00  9.000E+00
      -1     1     1     2     0   511  1.219056077E+01  7.529595487E+00 -2.246993378E+02  2.251559591E+02  3.300000131E-01  0.00000E+00  9.000E+00
       1     1     1     2   517     0 -2.273391181E+00 -1.288567562E+01 -2.715680908E+01  3.014647778E+01  3.300000131E-01  0.00000E+00  9.000E+00
</event>
<event>
      5  10001  2.40292E+09  9.88682E+00 -1.00000E+00  1.96272E-01
       3    -1     0     0   515     0  0.000000000E+00  0.000000000E+00  1.397452430E+00  1.397452430E+00  0.000000000E+00  0.00000E+00  9.000E+00
      21    -1     0     0   513   514  0.000000000E+00  0.000000000E+00 -3.285011543E+02  3.285011543E+02  0.000000000E+00  0.00000E+00  9.000E+00
      21     1     1     2   515   514  6.058904141E+00 -1.255135545E+01 -2.594220521E+02  2.597961662E+02  5.394796609E-06  0.00000E+00  9.000E+00
      21     1     1     2   513   511 -5.208524847E-01  4.953252912E+00 -6.439961040E+00  8.141197695E+00  8.429369702E-08  0.00000E+00  9.000E+00
       3     1     1     2   511     0 -5.538051656E+00  7.598102538E+00 -6.124168874E+01  6.196124287E+01  5.000000000E-01  0.00000E+00  9.000E+00
</event>
<event>
      5  10001  2.40292E+09  2.08452E+00 -1.00000E+00  3.54682E-01
       4    -1     0     0   511     0  0.000000000E+00  0.000000000E+00  2.777217980E-01  2.777217980E-01  0.000000000E+00  0.00000E+00  9.000E+00
       2    -1     0     0   512     0  0.000000000E+00  0.000000000E+00 -1.082001922E+03  1.082001922E+03  0.000000000E+00  0.00000E+00  9.000E+00
       2     1     1     2   513     0 -1.034414425E+00 -7.168261416E+00 -6.285832140E+02  6.286250232E+02  3.300000131E-01  0.00000E+00  9.000E+00
       4     1     1     2   512     0  2.940250646E-01  1.207631087E+01 -1.567002628E+02  1.571723452E+02  1.500000000E+00  0.00000E+00  9.000E+00
      21     1     1     2   511   513  7.403893602E-01 -4.908049450E+00 -2.964407230E+02  2.964822750E+02  3.814697266E-06  0.00000E+00  9.000E+00
</event>
<event>
      5  10001  2.40292E+09  1.40686E+01 -1.00000E+00  1.79998E-01
      21    -1     0     0   514   516  0.000000000E+00  0.000000000E+00  3.480422872E+01  3.480422872E+01  0.000000000E+00  0.00000E+00  9.000E+00
      21    -1     0     0   515   514  0.000000000E+00  0.000000000E+00 -2.721508873E+02  2.721508873E+02  0.000000000E+00  0.00000E+00  9.000E+00
      21     1     1     2   512   513 -8.299233449E+00  3.147998249E+01  2.122112108E+01  3.886132464E+01  1.238859277E-06  0.00000E+00  9.000E+00
      21     1     1     2   515   512  5.517153086E+00 -4.527076788E+01 -2.424397626E+02  2.466919535E+02  2.697398305E-06  0.00000E+00  9.000E+00
      21     1     1     2   513   516  2.782080363E+00  1.379078539E+01 -1.612801702E+01  2.140183791E+01  2.384185791E-07  0.00000E+00  9.000E+00
</event>
<event>
      5  10001  2.40292E+09  1.04467E+01 -1.00000E+00  1.93531E-01
      21    -1     0     0   511   512  0.000000000E+00  0.000000000E+00  1.181521865E+02  1.181521865E+02  0.000000000E+00  0.00000E+00  9.000E+00
       1    -1     0     0   513     0  0.000000000E+00  0.000000000E+00 -3.893404688E+02  3.893404688E+02  0.000000000E+00  0.00000E+00  9.000E+00
      21     1     1     2   513   515  8.210387278E+00  2.308094347E+01 -1.921907939E+02  1.937458171E+02  2.697398305E-06  0.00000E+00  9.000E+00
       1     1     1     2   511     0 -2.826971216E+00 -1.412814889E+01 -1.958744484E+02  1.964039327E+02  3.300000131E-01  0.00000E+00  9.000E+00
      21     1     1     2   515   512 -5.383416062E+00 -8.952794578E+00  1.168769599E+02  1.173429055E+02  1.348699152E-06  0.00000E+00  9.000E+00
</event>
<event>
      5  10001  2.40292E+09  5.46998E+00 -1.00000E+00  2.31813E-01
      21    -1     0     0   515   512  0.000000000E+00  0.000000000E+00  2.473474484E+01  2.473474484E+01  0.000000000E+00  0.00000E+00  9.000E+00
       2    -1     0     0   512     0  0.000000000E+00  0.000000000E+00 -1.129576226E+01  1.129576226E+01  0.000000000E+00  0.00000E+00  9.000E+00
      21     1     1     2   515   514 -1.783437673E+00  1.084013114E+01  1.981449540E+01  2.265619829E+01  2.384185791E-07  0.00000E+00  9.000E+00
      21     1     1     2   514   511 -1.083698343E+00 -4.766150944E+00 -1.664003646E+00  5.163284328E+00  1.349357536E-07  0.00000E+00  9.000E+00
       2     1     1     2   511     0  2.867136016E+00 -6.073980198E+00 -4.711509168E+00  8.211024481E+00  3.300000131E-01  0.00000E+00  9.000E+00
</event>
<event>
      5  10001  2.40292E+09  9.79440E+00 -1.00000E+00  1.96747E-01
      21    -1     0     0   513   514  0.000000000E+00  0.000000000E+00  6.469525044E+01  6.469525044E+01  0.000000000E+00  0.00000E+00  9.000E+00
      21    -1     0     0   512   513  0.000000000E+00  0.000000000E+00 -1.177376861E+02  1.177376861E+02  0.000000000E+00  0.00000E+00  9.000E+00
      21     1     1     2   512   516 -1.206535785E+01 -1.307614477E+01 -1.154806488E+02  1.168432226E+02  1.907348633E-06  0.00000E+00  9.000E+00
      21     1     1     2   515   514  6.559832622E+00  1.072188079E+01  2.880986055E+01  3.143243860E+01  6.743495762E-07  0.00000E+00  9.000E+00
      21     1     1     2   516   515  5.505525232E+00  2.354263984E+00  3.362835254E+01  3.415727538E+01  6.743495762E-07  0.00000E+00  9.000E+00
</event>
<event>
      5  10001  2.40292E+09  8.54052E+00 -1.00000E+00  2.03962E-01
      21    -1     0     0   511   515  0.000000000E+00  0.000000000E+00  1.414209700E+00  1.414209700E+00  0.000000000E+00  0.00000E+00  9.000E+00
      21    -1     0     0   512   517  0.000000000E+00  0.000000000E+00 -1.268296016E+02  1.268296016E+02  0.000000000E+00  0.00000E+00  9.000E+00
      21     1     1     2   511   517  1.145739840E+01 -7.385604545E-02 -6.713685949E+01  6.810752774E+01  0.000000000E+00  0.00000E+00  9.000E+00
      21     1     1     2   512   513 -7.617283377E+00  1.268154855E+00 -5.268057443E+01  5.324353618E+01  6.743495762E-07  0.00000E+00  9.000E+00
      21     1     1     2   513   515 -3.840115019E+00 -1.194298809E+00 -5.597958024E+00  6.892747423E+00  0.000000000E+00  0.00000E+00  9.000E+00
</event>
<event>
      5  10001  2.40292E+09  3.88956E+00 -1.00000E+00  2.66258E-01
      21    -1     0     0   513   512  0.000000000E+00  0.000000000E+00  4.692571681E+01  4.692571681E+01  0.000000000E+00  0.00000E+00  9.000E+00
      -3    -1     0     0     0   514  0.000000000E+00  0.000000000E+00 -2.977681558E+01  2.977681558E+01  0.000000000E+00  0.00000E+00  9.000E+00
      -3     1     1     2     0   512  2.355008208E+01 -1.555644413E+01 -1.637220108E+01  3.263293257E+01  5.000000000E-01  0.00000E+00  9.000E+00
      21     1     1     2   513   511 -1.500570969E+01  7.192467642E+00  2.012618342E+01  2.611448206E+01  2.384185791E-07  0.00000E+00  9.000E+00
      21     1     1     2   511   514 -8.544372389E+00  8.363976485E+00  1.339491889E+01  1.795511777E+01  2.384185791E-07  0.00000E+00  9.000E+00
</event>
<event>
      5  10001  2.40292E+09  6.28375E+00 -1.00000E+00  2.22324E-01
      21    -1     0     0   515   514  0.000000000E+00  0.000000000E+00  1.894073594E+02  1.894073594E+02  0.000000000E+00  0.00000E+00  9.000E+00
      21    -1     0     0   512   516  0.000000000E+00  0.000000000E+00 -8.345194635E+00  8.345194635E+00  0.000000000E+00  0.00000E+00  9.000E+00
      21     1     1     2   515   516 -3.026607035E+00  1.319256192E+01 -2.272880727E+00  1.372479606E+01  6.650660516E-07  0.00000E+00  9.000E+00
      21     1     1     2   513   514 -2.024921204E+00 -9.148652595E+00  1.188891671E+02  1.192578392E+02  0.000000000E+00  0.00000E+00  9.000E+00
      21     1     1     2   512   513  5.051528239E+00 -4.043909322E+00  6.444587832E+01  6.476991874E+01  1.348699152E-06  0.00000E+00  9.000E+00
</event>
<event>
      5  10001  2.40292E+09  3.00895E+00 -1.00000E+00  2.96337E-01
      21    -1     0     0   511   513  0.000000000E+00  0.000000000E+00  8.404921720E+01  8.404921720E+01  0.000000000E+00  0.00000E+00  9.000E+00
      21    -1     0     0   514   517  0.000000000E+00  0.000000000E+00 -5.129057429E+00  5.129057429E+00  0.000000000E+00  0.00000E+00  9.000E+00
      21     1     1     2   511   517 -1.237523673E+01  2.936075612E+00  6.126188441E+01  6.256824678E+01  0.000000000E+00  0.00000E+00  9.000E+00
      21     1     1     2   512   513  9.424072821E+00 -3.522927585E+00  2.026751013E+01  2.262733157E+01  2.384185791E-07  0.00000E+00  9.000E+00
      21     1     1     2   514   512  2.951163905E+00  5.868519736E-01 -2.609234759E+00  3.982696281E+00  1.763129170E-07  0.00000E+00  9.000E+00
</event>
<event>
      5  10001  2.40292E+09  2.48511E+00 -1.00000E+00  3.23944E-01
      21    -1     0     0   511   513  0.000000000E+00  0.000000000E+00  1.005600853E+02  1.005600853E+02  0.000000000E+00  0.00000E+00  9.000E+00
      21    -1     0     0   514   515  0.000000000E+00  0.000000000E+00 -1.743607536E+01  1.743607536E+01  0.000000000E+00  0.00000E+00  9.000E+00
      21     1     1     2   512   513 -7.719623739E+00  8.752801220E+00  5.954195833E+00  1.310177728E+01  0.000000000E+00  0.00000E+00  9.000E+00
      21     1     1     2   514   512  5.775309825E+00 -7.205096220E+00 -1.230535363E+01  1.538471134E+01  2.384185791E-07  0.00000E+00  9.000E+00
      21     1     1     2   511   515  1.944313914E+00 -1.547704999E+00  8.947516773E+01  8.950967203E+01  1.348699152E-06  0.00000E+00  9.000E+00
</event>
<event>
      5  10001  2.40292E+09  4.06623E+00 -1.00000E+00  2.61694E-01
       2    -1     0     0   512     0  0.000000000E+00  0.000000000E+00  1.584362939E+02  1.584362939E+02  0.000000000E+00  0.00000E+00  9.000E+00
       2    -1     0     0   511     0  0.000000000E+00  0.000000000E+00 -4.762956431E+01  4.762956431E+01  0.000000000E+00  0.00000E+00  9.000E+00
       2     1     1     2   511     0 -1.059681340E+01 -3.895886309E+00  1.568279623E+02  1.572341854E+02  3.300000131E-01  0.00000E+00  9.000E+00
       2     1     1     2   513     0  6.483784215E+00  1.719915423E+00 -4.241829491E+01  4.294669033E+01  3.300000131E-01  0.00000E+00  9.000E+00
      21     1     1     2   512   513  4.113029183E+00  2.175970886E+00 -3.602937809E+00  5.884982516E+00  1.519626234E-07  0.00000E+00  9.000E+00
</event>
<event>
      5  10001  2.40292E+09  5.92467E+00 -1.00000E+00  2.26248E-01
      21    -1     0     0   515   511  0.000000000E+00  0.000000000E+00  4.949602020E+01  4.949602020E+01  0.000000000E+00  0.00000E+00  9.000E+00
       3    -1     0     0   511     0  0.000000000E+00  0.000000000E+00 -2.159862703E+01  2.159862703E+01  0.000000000E+00  0.00000E+00  9.000E+00
      21     1     1     2   513   514  2.397839358E+00 -1.246302764E+01  4.069234291E+01  4.262561980E+01  4.768371582E-07  0.00000E+00  9.000E+00
       3     1     1     2   514     0 -3.728704776E+00  6.690162938E+00 -1.863278341E+01  2.015172789E+01  5.000000000E-01  0.00000E+00  9.000E+00
      21     1     1     2   515   513  1.330865418E+00  5.772864703E+00  5.837833671E+00  8.317299538E+00  1.192092896E-07  0.00000E+00  9.000E+00
</event>
<event>
      5  10001  2.40292E+09  6.06359E+00 -1.00000E+00  2.24685E-01
      21    -1     0     0   514   513  0.000000000E+00  0.000000000E+00  1.441051757E+02  1.441051757E+02  0.000000000E+00  0.00000E+00  9.000E+00
      21    -1     0     0   511   512  0.000000000E+00  0.000000000E+00 -1.099350999E+01  1.099350999E+01  0.000000000E+00  0.00000E+00  9.000E+00
      21     1     1     2   516   513 -8.508352862E+00  1.111360304E+01  8.646259720E+01  8.758815534E+01  1.651812370E-06  0.00000E+00  9.000E+00
      21     1     1     2   511   516  8.227778457E+00 -5.056504216E+00 -7.991162310E+00  1.253488126E+01  2.665600750E-07  0.00000E+00  9.000E+00
      21     1     1     2   514   512  2.805744051E-01 -6.057098821E+00  5.464023080E+01  5.497564906E+01  0.000000000E+00  0.00000E+00  9.000E+00
</event>
<event>
      5  10001  2.40292E+09  6.96913E+00 -1.00000E+00  2.15754E-01
      21    -1     0     0   515   511  0.000000000E+00  0.000000000E+00  5.592696941E+00  5.592696941E+00  0.000000000E+00  0.00000E+00  9.000E+00
       2    -1     0     0   516     0  0.000000000E+00  0.000000000E+00 -5.382179081E+02  5.382179081E+02  0.000000000E+00  0.00000E+00  9.000E+00
      21     1     1     2   513   511  1.352251090E+01  7.845000992E+00 -6.042465861E+00  1.676048136E+01  1.032382731E-06  0.00000E+00  9.000E+00
       2     1     1     2   515     0 -8.605404739E+00 -2.906402058E+00 -4.625438253E+02  4.626331153E+02  3.300000131E-01  0.00000E+00  9.000E+00
      21     1     1     2   516   513 -4.917106163E+00 -4.938598934E+00 -6.403892003E+01  6.441700840E+01  0.000000000E+00  0.00000E+00  9.000E+00
</event>
<event>
      5  10001  2.40292E+09  6.87323E+00 -1.00000E+00  2.16609E-01
      21    -1     0     0   512   514  0.000000000E+00  0.000000000E+00  4.370490809E+00  4.370490809E+00  0.000000000E+00  0.00000E+00  9.000E+00
      21    -1     0     0   511   513  0.000000000E+00  0.000000000E+00 -6.845143547E+01  6.845143547E+01  0.000000000E+00  0.00000E+00  9.000E+00
      21     1     1     2   512   513 -1.281506291E+01 -5.034321474E-01 -5.215771060E+01  5.371132149E+01  0.000000000E+00  0.00000E+00  9.000E+00
      21     1     1     2   511   515  6.946468922E+00  4.068404999E+00 -5.963482290E+00  1.001840660E+01  1.884864366E-07  0.00000E+00  9.000E+00
      21     1     1     2   515   514  5.868593984E+00 -3.564972852E+00 -5.959751771E+00  9.092198192E+00  1.192092896E-07  0.00000E+00  9.000E+00
</event>
<event>
      5  10001  2.40292E+09  3.94906E+00 -1.00000E+00  2.64679E-01
      21    -1     0     0   516   511  0.000000000E+00  0.000000000E+00  1.203046831E+03  1.203046831E+03  0.000000000E+00  0.00000E+00  9.000E+00
      21    -1     0     0   517   514  0.000000000E+00  0.000000000E+00 -2.429373493E-01  2.429373493E-01  0.000000000E+00  0.00000E+00  9.000E+00
      21     1     1     2   516   514  4.438494759E+00  1.099617544E+01  1.690706803E+02  1.694860202E+02  1.907348633E-06  0.00000E+00  9.000E+00
      21     1     1     2   517   512 -2.027006672E+00 -2.682133770E+00  2.460429986E+02  2.460659663E+02  2.697398305E-06  0.00000E+00  9.000E+00
      21     1     1     2   512   511 -2.411488087E+00 -8.314041670E+00  7.876902142E+02  7.877377814E+02  1.525878906E-05  0.00000E+00  9.000E+00
</event>
<event>
      5  10001  2.40292E+09  8.37255E+00 -1.00000E+00  2.05055E-01
       2    -1     0     0   514     0  0.000000000E+00  0.000000000E+00  9.123277144E+00  9.123277144E+00  0.000000000E+00  0.00000E+00  9.000E+00
      21    -1     0     0   512   513  0.000000000E+00  0.000000000E+00 -1.180690581E+01  1.180690581E+01  0.000000000E+00  0.00000E+00  9.000E+00
      21     1     1     2   514   513  8.101301830E+00 -4.415683849E+00 -1.192870272E-01  9.227328139E+00  6.459109815E-08  0.00000E+00  9.000E+00
       2     1     1     2   515     0 -2.341748884E+00  2.853499680E+00  1.980071427E+00  4.201884235E+00  3.300000131E-01  0.00000E+00  9.000E+00
      21     1     1     2   512   515 -5.759552946E+00  1.562184169E+00 -4.544413065E+00  7.500970579E+00  1.460009660E-07  0.00000E+00  9.000E+00
</event>
<event>
      5  10001  2.40292E+09  4.97816E+00 -1.00000E+00  2.42831E-01
      21    -1     0     0   511   513  0.000000000E+00  0.000000000E+00  1.802396085E+01  1.802396085E+01  0.000000000E+00  0.00000E+00  9.000E+00
      21    -1     0     0   512   514  0.000000000E+00  0.000000000E+00 -1.985097475E+01  1.985097475E+01  0.000000000E+00  0.00000E+00  9.000E+00
      21     1     1     2   511   516  1.183467203E+01  3.580113379E+00 -5.645893751E-01  1.237721435E+01  2.819432010E-07  0.00000E+00  9.000E+00
      21     1     1     2   512   513 -1.221714304E+01  1.383328581E+00  8.218685477E+00  1.478915052E+01  3.576278687E-07  0.00000E+00  9.000E+00
      21     1     1     2   516   514  3.824710080E-01 -4.963441960E+00 -9.481110005E+00  1.070857073E+01  1.192092896E-07  0.00000E+00  9.000E+00
</event>
<event>
      5  10001  2.40292E+09  2.66883E+00 -1.00000E+00  3.13029E-01
      21    -1     0     0   515   512  0.000000000E+00  0.000000000E+00  1.452330749E-01  1.452330749E-01  0.000000000E+00  0.00000E+00  9.000E+00
      21    -1     0     0   516   517  0.000000000E+00  0.000000000E+00 -1.270220455E+03  1.270220455E+03  0.000000000E+00  0.00000E+00  9.000E+00
      21     1     1     2   515   517 -1.005517147E+01  4.671944687E+00 -9.944146759E+02  9.944764860E+02  1.868812365E-05  0.00000E+00  9.000E+00
      21     1     1     2   516   511  3.368636465E+00 -6.634297505E-01 -8.283298603E+01  8.290410982E+01  0.000000000E+00  0.00000E+00  9.000E+00
      21     1     1     2   511   512  6.686535009E+00 -4.008514937E+00 -1.928275599E+02  1.929850922E+02  0.000000000E+00  0.00000E+00  9.000E+00
</event>
<event>
      5  10001  2.40292E+09  7.17819E+00 -1.00000E+00  2.13952E-01
      21    -1     0     0   514   512  0.000000000E+00  0.000000000E+00  2.991395497E+01  2.991395497E+01  0.000000000E+00  0.00000E+00  9.000E+00
       2    -1     0     0   513     0  0.000000000E+00  0.000000000E+00 -5.108970955E+02  5.108970955E+02  0.000000000E+00  0.00000E+00  9.000E+00
      21     1     1     2   513   512  4.229482421E+00 -7.913050229E+00  2.268601003E+01  2.439590000E+01  2.185142372E-06  0.00000E+00  9.000E+00
       2     1     1     2   511     0 -1.140764273E+01  7.926563193E+00 -5.078952717E+02  5.080853084E+02  3.300000131E-01  0.00000E+00  9.000E+00
      21     1     1     2   514   511  7.178160311E+00 -1.351296460E-02  4.226121166E+00  8.329842025E+00  2.308477966E-07  0.00000E+00  9.000E+00
</event>
<event>
      5  10001  2.40292E+09  2.95073E+00 -1.00000E+00  2.98926E-01
      21    -1     0     0   515   513  0.000000000E+00  0.000000000E+00  1.137163360E+02  1.137163360E+02  0.000000000E+00  0.00000E+00  9.000E+00
      21    -1     0     0   516   515  0.000000000E+00  0.000000000E+00 -1.428375416E+00  1.428375416E+00  0.000000000E+00  0.00000E+00  9.000E+00
      21     1     1     2   511   513  4.233130528E+00  9.362658142E+00  8.631733666E+01  8.692675865E+01  1.348699152E-06  0.00000E+00  9.000E+00
      21     1     1     2   516   512 -1.621004898E+00 -7.435587059E+00  2.036253315E+01  2.173817767E+01  0.000000000E+00  0.00000E+00  9.000E+00
      21     1     1     2   512   511 -2.612125630E+00 -1.927071083E+00  5.608090780E+00  6.479775109E+00  1.192092896E-07  0.00000E+00  9.000E+00
</event>
<event>
      5  10001  2.40292E+09  3.79805E+00 -1.00000E+00  2.68774E-01
      21    -1     0     0   514   516  0.000000000E+00  0.000000000E+00  1.949191555E+01  1.949191555E+01  0.000000000E+00  0.00000E+00  9.000E+00
      21    -1     0     0   515   511  0.000000000E+00  0.000000000E+00 -3.620274242E+01  3.620274242E+01  0.000000000E+00  0.00000E+00  9.000E+00
      21     1     1     2   514   511 -2.160341198E+00  8.602673608E+00  1.640574232E+01  1.864997180E+01  6.307962682E-07  0.00000E+00  9.000E+00
      21     1     1     2   513   516  8.052070385E-02 -1.178065340E+01 -2.964109546E+01  3.189647031E+01  4.768371582E-07  0.00000E+00  9.000E+00
      21     1     1     2   515   513  2.079820494E+00  3.177979788E+00 -3.475473728E+00  5.148215852E+00  5.960464478E-08  0.00000E+00  9.000E+00
</event>
<event>
      5  10001  2.40292E+09  4.84689E+00 -1.00000E+00  2.45157E-01
      21    -1     0     0   512   511  0.000000000E+00  0.000000000E+00  1.297733009E+01  1.297733009E+01  0.000000000E+00  0.00000E+00  9.000E+00
      21    -1     0     0   514   517  0.000000000E+00  0.000000000E+00 -4.077726027E+01  4.077726027E+01  0.000000000E+00  0.00000E+00  9.000E+00
      21     1     1     2   512   517 -8.932445126E+00 -6.784638864E-01  8.792950574E+00  1.255248457E+01  2.064765462E-07  0.00000E+00  9.000E+00
      21     1     1     2   515   511  1.376927751E+01  9.904710905E-01 -2.995530128E+01  3.298323985E+01  6.743495762E-07  0.00000E+00  9.000E+00
      21     1     1     2   514   515 -4.836832383E+00 -3.120072041E-01 -6.637579472E+00  8.218865934E+00  8.429369702E-08  0.00000E+00  9.000E+00
</event>
<event>
      5  10001  2.40292E+09  5.53508E+00 -1.00000E+00  2.30970E-01
      21    -1     0     0   513   515  0.000000000E+00  0.000000000E+00  4.084342900E+02  4.084342900E+02  0.000000000E+00  0.00000E+00  9.000E+00
      21    -1     0     0   514   516  0.000000000E+00  0.000000000E+00 -1.047061972E+00  1.047061972E+00  0.000000000E+00  0.00000E+00  9.000E+00
      21     1     1     2   513   516 -5.229718613E+00  8.216469967E+00  2.456212318E+01  2.642268402E+01  1.066240300E-06  0.00000E+00  9.000E+00
      21     1     1     2   511   515  2.340035206E+00 -3.506666258E+00  3.083659971E+02  3.083948129E+02  5.394796609E-06  0.00000E+00  9.000E+00
      21     1     1     2   514   511  2.889683407E+00 -4.709803709E+00  7.445910777E+01  7.466385505E+01  1.651812370E-06  0.00000E+00  9.000E+00
</event>
<event>
      5  10001  2.40292E+09  1.86686E+01 -1.00000E+00  1.68833E-01
      21    -1     0     0   511   514  0.000000000E+00  0.000000000E+00  1.207366672E+01  1.207366672E+01  0.000000000E+00  0.00000E+00  9.000E+00
       3    -1     0     0   514     0  0.000000000E+00  0.000000000E+00 -1.275929458E+02  1.275929458E+02  0.000000000E+00  0.00000E+00  9.000E+00
      21     1     1     2   511   513  1.328707427E+01 -1.074249987E+01 -8.764322957E+00  1.920315086E+01  6.194296387E-07  0.00000E+00  9.000E+00
       3     1     1     2   512     0 -3.323496077E+01  7.334341101E+00 -7.980906196E+01  8.676457542E+01  5.000000000E-01  0.00000E+00  9.000E+00
      21     1     1     2   513   512  1.994788650E+01  3.408158767E+00 -2.694589418E+01  3.369888626E+01  4.768371582E-07  0.00000E+00  9.000E+00
</event>
<event>
      5  10001  2.40292E+09  6.67587E+00 -1.00000E+00  2.18432E-01
      21    -1     0     0   515   512  0.000000000E+00  0.000000000E+00  2.022096103E+01  2.022096103E+01  0.000000000E+00  0.00000E+00  9.000E+00
      21    -1     0     0   513   516  0.000000000E+00  0.000000000E+00 -2.418384815E+02  2.418384815E+02  0.000000000E+00  0.00000E+00  9.000E+00
      21     1     1     2   515   516  6.001164088E+00 -8.661561750E+00 -2.372290179E+02  2.374629309E+02  0.000000000E+00  0.00000E+00  9.000E+00
      21     1     1     2   513   511 -1.056494244E+01  6.216116303E+00  1.501711500E+01  1.938483566E+01  1.168007728E-06  0.00000E+00  9.000E+00
      21     1     1     2   511   512  4.563778352E+00  2.445445447E+00  5.943823969E-01  5.211675998E+00  2.392320984E-07  0.00000E+00  9.000E+00
</event>
<event>
      5  10001  2.40292E+09  4.50714E+00 -1.00000E+00  2.51726E-01
      21    -1     0     0   513   512  0.000000000E+00  0.000000000E+00  4.960568033E+01  4.960568033E+01  0.000000000E+00  0.00000E+00  9.000E+00
      -1    -1     0     0     0   514  0.000000000E+00  0.000000000E+00 -1.721448486E+01  1.721448486E+01  0.000000000E+00  0.00000E+00  9.000E+00
      -1     1     1     2     0   512 -1.310590839E+01  2.652650470E-01 -1.113796060E+01  1.720460016E+01  3.300000131E-01  0.00000E+00  9.000E+00
      21     1     1     2   511   514  9.438955852E+00  2.355106421E+00  5.216396662E+00  1.103862346E+01  3.097148194E-07  0.00000E+00  9.000E+00
      21     1     1     2   513   511  3.666952541E+00 -2.620371468E+00  3.831275941E+01  3.857694157E+01  6.743495762E-07  0.00000E+00  9.000E+00
</event>
<event>
      5  10001  2.40292E+09  6.70708E+00 -1.00000E+00  2.18138E-01
      21    -1     0     0   515   511  0.000000000E+00  0.000000000E+00  2.002666354E+01  2.002666354E+01  0.000000000E+00  0.00000E+00  9.000E+00
      21    -1     0     0   514   516  0.000000000E+00  0.000000000E+00 -4.563307057E+01  4.563307057E+01  0.000000000E+00  0.00000E+00  9.000E+00
      21     1     1     2   515   516  1.119172198E+01  9.445736811E+00  1.231825996E+01  1.913677385E+01  3.769728732E-07  0.00000E+00  9.000E+00
      21     1     1     2   512   511 -1.711993871E+01 -6.308673522E+00 -1.854525370E+01  2.601572789E+01  3.371747881E-07  0.00000E+00  9.000E+00
      21     1     1     2   514   512  5.928216724E+00 -3.137063290E+00 -1.937941330E+01  2.050723237E+01  3.371747881E-07  0.00000E+00  9.000E+00
</event>
<event>
      5  10001  2.40292E+09  1.15712E+01 -1.00000E+00  1.88651E-01
      21    -1     0     0   513   512  0.000000000E+00  0.000000000E+00  1.193222039E+01  1.193222039E+01  0.000000000E+00  0.00000E+00  9.000E+00
      21    -1     0     0   511   517  0.000000000E+00  0.000000000E+00 -1.792272467E+02  1.792272467E+02  0.000000000E+00  0.00000E+00  9.000E+00
      21     1     1     2   513   517  6.973200264E+00  1.476103440E+01  4.068992799E+00  1.682469497E+01  4.730972012E-07  0.00000E+00  9.000E+00
      21     1     1     2   514   512 -1.765943433E+01 -1.032280040E+01 -1.064491919E+02  1.083967079E+02  1.348699152E-06  0.00000E+00  9.000E+00
      21     1     1     2   511   514  1.068623407E+01 -4.438233998E+00 -6.491482716E+01  6.593806416E+01  1.348699152E-06  0.00000E+00  9.000E+00
</event>
<event>
      5  10001  2.40292E+09  4.30785E+00 -1.00000E+00  2.56005E-01
      21    -1     0     0   515   514  0.000000000E+00  0.000000000E+00  7.614461726E+01  7.614461726E+01  0.000000000E+00  0.00000E+00  9.000E+00
      21    -1     0     0   512   516  0.000000000E+00  0.000000000E+00 -1.008559091E+01  1.008559091E+01  0.000000000E+00  0.00000E+00  9.000E+00
      21     1     1     2   515   516 -9.891158093E+00 -8.954234091E+00 -1.626726009E+00  1.344096552E+01  4.960094982E-07  0.00000E+00  9.000E+00
      21     1     1     2   511   514  7.806828671E+00  5.184200286E+00  6.783455288E+01  6.847882206E+01  0.000000000E+00  0.00000E+00  9.000E+00
      21     1     1     2   512   511  2.084329422E+00  3.770033805E+00 -1.488005196E-01  4.310420586E+00  9.537761744E-08  0.00000E+00  9.000E+00
</event>
<event>
      5  10001  2.40292E+09  6.07527E+00 -1.00000E+00  2.24556E-01
      21    -1     0     0   513   511  0.000000000E+00  0.000000000E+00  3.913983870E+00  3.913983870E+00  0.000000000E+00  0.00000E+00  9.000E+00
      21    -1     0     0   512   514  0.000000000E+00  0.000000000E+00 -8.000225282E+02  8.000225282E+02  0.000000000E+00  0.00000E+00  9.000E+00
      21     1     1     2   512   517  1.288742913E+01  5.649504122E-01 -4.993500623E+02  4.995166561E+02  5.394796609E-06  0.00000E+00  9.000E+00
      21     1     1     2   517   511 -8.630869571E+00  3.769861485E+00 -2.037341314E+00  9.636105271E+00  1.240292313E-06  0.00000E+00  9.000E+00
      21     1     1     2   513   514 -4.256559561E+00 -4.334811897E+00 -2.947211407E+02  2.947837507E+02  3.814697266E-06  0.00000E+00  9.000E+00
</event>
<event>
      5  10001  2.40292E+09  1.77490E+01 -1.00000E+00  1.70721E-01
      21    -1     0     0   515   514  0.000000000E+00  0.000000000E+00  1.793762118E+01  1.793762118E+01  0.000000000E+00  0.00000E+00  9.000E+00
      21    -1     0     0   512   516  0.000000000E+00  0.000000000E+00 -3.260034289E+01  3.260034289E+01  0.000000000E+00  0.00000E+00  9.000E+00
      21     1     1     2   515   516  8.479377537E+00  5.766443940E-01 -2.227527006E+01  2.384156074E+01  2.384185791E-07  0.00000E+00  9.000E+00
      -4     1     1     2     0   514 -1.675864015E+01  1.439335621E+00  4.249143688E+00  1.741346975E+01  1.500000000E+00  0.00000E+00  9.000E+00
       4     1     1     2   512     0  8.279262613E+00 -2.015980015E+00  3.363404667E+00  9.282933577E+00  1.500000000E+00  0.00000E+00  9.000E+00
</event>
<event>
      5  10001  2.40292E+09  4.73319E+00 -1.00000E+00  2.47263E-01
      21    -1     0     0   511   516  0.000000000E+00  0.000000000E+00  1.387663457E+01  1.387663457E+01  0.000000000E+00  0.00000E+00  9.000E+00
      21    -1     0     0   512   514  0.000000000E+00  0.000000000E+00 -2.334358205E+01  2.334358205E+01  0.000000000E+00  0.00000E+00  9.000E+00
      21     1     1     2   512   513 -1.418786370E+01  4.790632067E+00 -7.455876136E+00  1.672829103E+01  2.528810911E-07  0.00000E+00  9.000E+00
      21     1     1     2   513   516  9.469251233E+00 -4.419444780E+00  5.350567496E+00  1.173996523E+01  4.214684851E-07  0.00000E+00  9.000E+00
      21     1     1     2   511   514  4.718612463E+00 -3.711872866E-01 -7.361638841E+00  8.751960352E+00  1.460009660E-07  0.00000E+00  9.000E+00
</event>
<event>
      5  10001  2.40292E+09  3.17375E+00 -1.00000E+00  2.89508E-01
       2    -1     0     0   512     0  0.000000000E+00  0.000000000E+00  2.962366466E+02  2.962366466E+02  0.000000000E+00  0.00000E+00  9.000E+00
      21    -1     0     0   511   514  0.000000000E+00  0.000000000E+00 -6.386174603E+01  6.386174603E+01  0.000000000E+00  0.00000E+00  9.000E+00
      21     1     1     2   513   514  6.656622161E+00 -7.749089542E+00 -6.309196413E+01  6.391365226E+01  2.861022949E-06  0.00000E+00  9.000E+00
       2     1     1     2   511     0 -7.893085379E+00  1.067206743E+01  2.832923706E+02  2.836033674E+02  3.300000131E-01  0.00000E+00  9.000E+00
      21     1     1     2   512   513  1.236463218E+00 -2.922977890E+00  1.217449406E+01  1.258137300E+01  1.685873940E-07  0.00000E+00  9.000E+00
</event>
<event>
      5  10001  2.40292E+09  3.32413E+00 -1.00000E+00  2.83844E-01
      21    -1     0     0   515   513  0.000000000E+00  0.000000000E+00  1.401819411E+01  1.401819411E+01  0.000000000E+00  0.00000E+00  9.000E+00
      21    -1     0     0   516   515  0.000000000E+00  0.000000000E+00 -5.626738910E+01  5.626738910E+01  0.000000000E+00  0.00000E+00  9.000E+00
      21     1     1     2   511   513  9.448275248E+00 -1.026310323E+01  9.127122344E+00  1.667049955E+01  5.057621821E-07  0.00000E+00  9.000E+00
      21     1     1     2   516   514 -5.507440345E+00  7.253911126E+00 -4.233282737E+01  4.330149419E+01  4.768371582E-07  0.00000E+00  9.000E+00
      21     1     1     2   514   511 -3.940834903E+00  3.009192106E+00 -9.043489966E+00  1.031358946E+01  0.000000000E+00  0.00000E+00  9.000E+00
</event>
<event>
      5  10001  2.40292E+09  8.42795E+00 -1.00000E+00  2.04691E-01
      -3    -1     0     0     0   516  0.000000000E+00  0.000000000E+00  4.959101447E+00  4.959101447E+00  0.000000000E+00  0.00000E+00  9.000E+00
      21    -1     0     0   513   511  0.000000000E+00  0.000000000E+00 -8.042632063E+01  8.042632063E+01  0.000000000E+00  0.00000E+00  9.000E+00
      21     1     1     2   512   511  4.415907922E+00  1.575369979E+01 -4.540747995E+01  4.826508609E+01  6.743495762E-07  0.00000E+00  9.000E+00
      21     1     1     2   513   516 -4.406739566E+00 -7.327775808E+00 -2.669950932E+01  2.803532503E+01  3.371747881E-07  0.00000E+00  9.000E+00
      -3     1     1     2     0   512 -9.168356080E-03 -8.425923980E+00 -3.360229915E+00  9.085010955E+00  5.000000000E-01  0.00000E+00  9.000E+00
</event>
<event>
      5  10001  2.40292E+09  5.90972E+00 -1.00000E+00  2.26420E-01
      21    -1     0     0   514   511  0.000000000E+00  0.000000000E+00  1.165916068E+01  1.165916068E+01  0.000000000E+00  0.00000E+00  9.000E+00
      21    -1     0     0   515   514  0.000000000E+00  0.000000000E+00 -6.181139702E+01  6.181139702E+01  0.000000000E+00  0.00000E+00  9.000E+00
      21     1     1     2   515   512 -9.678665456E+00 -7.451669834E+00 -5.498247336E+01  5.632296446E+01  1.348699152E-06  0.00000E+00  9.000E+00
      21     1     1     2   512   513  3.983554328E+00  6.025644107E+00  7.746923763E+00  1.059206872E+01  2.665600750E-07  0.00000E+00  9.000E+00
      21     1     1     2   513   511  5.695111129E+00  1.426025727E+00 -2.916686749E+00  6.555524520E+00  1.332800375E-07  0.00000E+00  9.000E+00
</event>
<event>
      5  10001  2.40292E+09  4.78397E+00 -1.00000E+00  2.46311E-01
      21    -1     0     0   516   512  0.000000000E+00  0.000000000E+00  4.955909291E+00  4.955909291E+00  0.000000000E+00  0.00000E+00  9.000E+00
      21    -1     0     0   515   511  0.000000000E+00  0.000000000E+00 -1.138330073E+02  1.138330073E+02  0.000000000E+00  0.00000E+00  9.000E+00
      21     1     1     2   516   511 -6.123392164E+00  7.926115793E+00 -1.060188136E+02  1.064908826E+02  1.907348633E-06  0.00000E+00  9.000E+00
      21     1     1     2   515   514  3.450267857E+00 -2.472449553E+00  1.833092871E+00  4.623590007E+00  2.819432010E-07  0.00000E+00  9.000E+00
      21     1     1     2   514   512  2.673124307E+00 -5.453666240E+00 -4.691377210E+00  7.674443898E+00  5.960464478E-08  0.00000E+00  9.000E+00
</event>
<event>
      5  10001  2.40292E+09  1.00273E+01 -1.00000E+00  1.95562E-01
       4    -1     0     0   511     0  0.000000000E+00  0.000000000E+00  7.553316709E+01  7.553316709E+01  0.000000000E+00  0.00000E+00  9.000E+00
      21    -1     0     0   513   514  0.000000000E+00  0.000000000E+00 -1.896864959E+00  1.896864959E+00  0.000000000E+00  0.00000E+00  9.000E+00
       4     1     1     2   511     0 -1.588903170E+00  3.957549944E+00  1.706572085E+01  1.765433780E+01  1.500000000E+00  0.00000E+00  9.000E+00
       4     1     1     2   513     0 -4.857436444E+00 -9.258951634E+00  2.636149393E+01  2.839896541E+01  1.500000000E+00  0.00000E+00  9.000E+00
      -4     1     1     2     0   514  6.446339614E+00  5.301401690E+00  3.020908734E+01  3.137672884E+01  1.500000000E+00  0.00000E+00  9.000E+00
</event>
<event>
      5  10001  2.40292E+09  7.83277E+00 -1.00000E+00  2.08811E-01
      21    -1     0     0   513   515  0.000000000E+00  0.000000000E+00  2.093111373E+00  2.093111373E+00  0.000000000E+00  0.00000E+00  9.000E+00
       3    -1     0     0   515     0  0.000000000E+00  0.000000000E+00 -3.362770653E+02  3.362770653E+02  0.000000000E+00  0.00000E+00  9.000E+00
      21     1     1     2   513   511 -7.412867537E+00 -4.716852860E+00 -2.030346494E+01  2.212306476E+01  4.129530925E-07  0.00000E+00  9.000E+00
       3     1     1     2   512     0  8.666869400E+00  6.874066663E+00 -3.135322310E+02  3.137277120E+02  5.000000000E-01  0.00000E+00  9.000E+00
      21     1     1     2   511   512 -1.254001863E+00 -2.157213803E+00 -3.482579710E-01  2.519399865E+00  1.431694541E-07  0.00000E+00  9.000E+00
</event>
<event>
      5  10001  2.40292E+09  6.12915E+00 -1.00000E+00  2.23968E-01
      21    -1     0     0   514   516  0.000000000E+00  0.000000000E+00  2.122015894E+01  2.122015894E+01  0.000000000E+00  0.00000E+00  9.000E+00
      21    -1     0     0   515   514  0.000000000E+00  0.000000000E+00 -9.281328192E+01  9.281328192E+01  0.000000000E+00  0.00000E+00  9.000E+00
      21     1     1     2   512   516 -8.848516013E+00  4.464774407E+00  1.933597332E+01  2.172809955E+01  4.768371582E-07  0.00000E+00  9.000E+00
      21     1     1     2   513   512  3.248348344E+00 -1.408055290E+00 -7.584322764E+01  7.592581620E+01  9.536743164E-07  0.00000E+00  9.000E+00
      21     1     1     2   515   513  5.600167670E+00 -3.056719117E+00 -1.508586865E+01  1.637952511E+01  1.685873940E-07  0.00000E+00  9.000E+00
</event>
<event>
      5  10001  2.40292E+09  1.08605E+01 -1.00000E+00  1.91646E-01
      21    -1     0     0   512   513  0.000000000E+00  0.000000000E+00  1.359086180E+02  1.359086180E+02  0.000000000E+00  0.00000E+00  9.000E+00
      21    -1     0     0   515   517  0.000000000E+00  0.000000000E+00 -1.855812346E+02  1.855812346E+02  0.000000000E+00  0.00000E+00  9.000E+00
      21     1     1     2   511   517 -2.653744047E-01  9.972210033E+00 -1.824712624E+02  1.827437468E+02  2.697398305E-06  0.00000E+00  9.000E+00
      21     1     1     2   515   513 -1.180730756E+00 -2.073600906E+01  3.781323774E+01  4.314182593E+01  1.430511475E-06  0.00000E+00  9.000E+00
      21     1     1     2   512   511  1.446105161E+00  1.076379902E+01  9.498540800E+01  9.560427984E+01  0.000000000E+00  0.00000E+00  9.000E+00
</event>
<event>
      5  10001  2.40292E+09  2.91176E+00 -1.00000E+00  3.00715E-01
       1    -1     0     0   514     0  0.000000000E+00  0.000000000E+00  7.621744096E+02  7.621744096E+02  0.000000000E+00  0.00000E+00  9.000E+00
      -4    -1     0     0     0   511  0.000000000E+00  0.000000000E+00 -4.252350356E+00  4.252350356E+00  0.000000000E+00  0.00000E+00  9.000E+00
      -4     1     1     2     0   513  1.876549139E+00  9.072209497E+00  1.194435532E+01  1.519026154E+01  1.500000000E+00  0.00000E+00  9.000E+00
      21     1     1     2   514   511 -4.205671119E+00 -1.081749800E+01  1.019541511E+01  1.544837926E+01  0.000000000E+00  0.00000E+00  9.000E+00
       1     1     1     2   513     0  2.329121981E+00  1.745288507E+00  7.357822889E+02  7.357881192E+02  3.300000131E-01  0.00000E+00  9.000E+00
</event>
<event>
      5  10001  2.40292E+09  9.68466E+00 -1.00000E+00  1.97320E-01
      21    -1     0     0   512   511  0.000000000E+00  0.000000000E+00  3.518048178E+00  3.518048178E+00  0.000000000E+00  0.00000E+00  9.000E+00
      21    -1     0     0   515   512  0.000000000E+00  0.000000000E+00 -2.280250179E+02  2.280250179E+02  0.000000000E+00  0.00000E+00  9.000E+00
      21     1     1     2   516   511 -4.192321545E+00  1.019926778E+01 -6.058449219E+00  1.258194859E+01  3.862822472E-07  0.00000E+00  9.000E+00
      -2     1     1     2     0   516  3.813450254E+00 -8.285275319E-01 -1.206140268E+02  1.206775921E+02  3.300000131E-01  0.00000E+00  9.000E+00
       2     1     1     2   515     0  3.788712911E-01 -9.370740253E+00 -9.783449368E+01  9.828352542E+01  3.300000131E-01  0.00000E+00  9.000E+00
</event>
<event>
      5  10001  2.40292E+09  5.10565E+00 -1.00000E+00  2.36853E-01
      21    -1     0     0   512   515  0.000000000E+00  0.000000000E+00  4.042450714E+02  4.042450714E+02  0.000000000E+00  0.00000E+00  9.000E+00
      21    -1     0     0   511   514  0.000000000E+00  0.000000000E+00 -1.706475693E+00  1.706475693E+00  0.000000000E+00  0.00000E+00  9.000E+00
      21     1     1     2   513   514  3.855647569E+00 -1.213063551E+01  7.165227652E+01  7.277408239E+01  1.651812370E-06  0.00000E+00  9.000E+00
      21     1     1     2   511   515 -8.733537311E+00  1.062269539E+01  4.097401938E+01  4.322021049E+01  1.168007728E-06  0.00000E+00  9.000E+00
      21     1     1     2   512   513  4.877889743E+00  1.507940119E+00  2.899122998E+02  2.899572542E+02  3.814697266E-06  0.00000E+00  9.000E+00
</event>
<event>
      5  10001  2.40292E+09  3.93283E+00 -1.00000E+00  2.65106E-01
      21    -1     0     0   516   511  0.000000000E+00  0.000000000E+00  1.044108169E+02  1.044108169E+02  0.000000000E+00  0.00000E+00  9.000E+00
      21    -1     0     0   517   514  0.000000000E+00  0.000000000E+00 -3.296607200E+01  3.296607200E+01  0.000000000E+00  0.00000E+00  9.000E+00
      21     1     1     2   516   513  8.699389621E+00 -8.922404471E+00 -2.153738159E+01  2.488267444E+01  1.143415337E-06  0.00000E+00  9.000E+00
      21     1     1     2   517   511 -5.800973860E+00  6.264149233E+00  1.021563841E+02  1.025125245E+02  1.348699152E-06  0.00000E+00  9.000E+00
      21     1     1     2   513   514 -2.898415762E+00  2.658255238E+00 -9.174257538E+00  9.981690048E+00  2.665600750E-07  0.00000E+00  9.000E+00
</event>
<event>
      5  10001  2.40292E+09  2.75028E+00 -1.00000E+00  3.08660E-01
      21    -1     0     0   514   511  0.000000000E+00  0.000000000E+00  1.702906584E+01  1.702906584E+01  0.000000000E+00  0.00000E+00  9.000E+00
      -1    -1     0     0     0   512  0.000000000E+00  0.000000000E+00 -1.608927839E+01  1.608927839E+01  0.000000000E+00  0.00000E+00  9.000E+00
      -1     1     1     2     0   511 -1.574614078E+01  3.004278613E+00 -3.175479381E+00  1.634500562E+01  3.300000131E-01  0.00000E+00  9.000E+00
      21     1     1     2   515   512  7.935951609E+00 -2.244459128E-01  2.534133167E+00  8.333758745E+00  1.154238983E-07  0.00000E+00  9.000E+00
      21     1     1     2   514   515  7.810189170E+00 -2.779832700E+00  1.581133663E+00  8.439579869E+00  2.327635788E-07  0.00000E+00  9.000E+00
</event>
<event>
      5  10001  2.40292E+09  4.69832E+00 -1.00000E+00  2.47926E-01
       1    -1     0     0   514     0  0.000000000E+00  0.000000000E+00  1.250562255E+01  1.250562255E+01  0.000000000E+00  0.00000E+00  9.000E+00
      21    -1     0     0   511   512  0.000000000E+00  0.000000000E+00 -2.394754667E+01  2.394754667E+01  0.000000000E+00  0.00000E+00  9.000E+00
      21     1     1     2   514   512 -6.988596521E+00 -1.139619018E+01 -1.229663022E-01  1.336894732E+01  3.003742711E-07  0.00000E+00  9.000E+00
       1     1     1     2   513     0  5.591252730E+00  6.911236456E+00  1.864227104E+00  9.089089016E+00  3.300000131E-01  0.00000E+00  9.000E+00
      21     1     1     2   511   513  1.397343791E+00  4.484953720E+00 -1.318318493E+01  1.399513288E+01  1.685873940E-07  0.00000E+00  9.000E+00
</event>
<event>
      5  10001  2.40292E+09  3.19527E+00 -1.00000E+00  2.88666E-01
       1    -1     0     0   512     0  0.000000000E+00  0.000000000E+00  4.380034619E+02  4.380034619E+02  0.000000000E+00  0.00000E+00  9.000E+00
       1    -1     0     0   511     0  0.000000000E+00  0.000000000E+00 -1.599006924E+00  1.599006924E+00  0.000000000E+00  0.00000E+00  9.000E+00
       1     1     1     2   511     0  9.871747028E+00  2.180071150E+00  4.207925463E+02  4.209141005E+02  3.300000131E-01  0.00000E+00  9.000E+00
      21     1     1     2   512   514 -2.326309443E+00 -1.269553996E+00  4.485728084E+00  5.210109348E+00  5.960464478E-08  0.00000E+00  9.000E+00
       1     1     1     2   514     0 -7.545437584E+00 -9.105171541E-01  1.112618061E+01  1.347825897E+01  3.300000131E-01  0.00000E+00  9.000E+00
</event>
<event>
      5  10001  2.40292E+09  1.08485E+01 -1.00000E+00  1.91699E-01
       2    -1     0     0   513     0  0.000000000E+00  0.000000000E+00  2.414444596E+02  2.414444596E+02  0.000000000E+00  0.00000E+00  9.000E+00
      21    -1     0     0   511   515  0.000000000E+00  0.000000000E+00 -5.289240386E+01  5.289240386E+01  0.000000000E+00  0.00000E+00  9.000E+00
      21     1     1     2   513   515  2.897034323E+00  1.589766040E+01 -9.397864757E+00  1.869353568E+01  1.192092896E-07  0.00000E+00  9.000E+00
      21     1     1     2   511   516 -2.819201113E+00 -5.049470001E+00 -3.850629446E+01  3.893815296E+01  4.768371582E-07  0.00000E+00  9.000E+00
       2     1     1     2   516     0 -7.783320979E-02 -1.084819040E+01  2.364562149E+02  2.367051748E+02  3.300000131E-01  0.00000E+00  9.000E+00
</event>
<event>
      5  10001  2.40292E+09  6.64798E+00 -1.00000E+00  2.18697E-01
      21    -1     0     0   512   516  0.000000000E+00  0.000000000E+00  4.990939556E+00  4.990939556E+00  0.000000000E+00  0.00000E+00  9.000E+00
      21    -1     0     0   514   512  0.000000000E+00  0.000000000E+00 -4.220085055E+01  4.220085055E+01  0.000000000E+00  0.00000E+00  9.000E+00
      21     1     1     2   511   516  2.660121063E+00 -1.192270128E+01 -8.585243883E+00  1.493095652E+01  1.192092896E-07  0.00000E+00  9.000E+00
      21     1     1     2   513   511 -1.242627544E+00  6.474390778E+00 -2.425310874E+01  2.513314828E+01  3.371747881E-07  0.00000E+00  9.000E+00
      21     1     1     2   514   513 -1.417493519E+00  5.448310506E+00 -4.371558379E+00  7.127685312E+00  1.788139343E-07  0.00000E+00  9.000E+00
</event>
<event>
      5  10001  2.40292E+09  1.97124E+01 -1.00000E+00  1.66848E-01
      21    -1     0     0   515   513  0.000000000E+00  0.000000000E+00  4.972703288E+01  4.972703288E+01  0.000000000E+00  0.00000E+00  9.000E+00
      21    -1     0     0   514   517  0.000000000E+00  0.000000000E+00 -4.946474948E+00  4.946474948E+00  0.000000000E+00  0.00000E+00  9.000E+00
      21     1     1     2   515   517  5.808348782E-01 -6.115843460E+00  2.844116448E+00  6.769779077E+00  2.190014490E-07  0.00000E+00  9.000E+00
      21     1     1     2   511   513  5.129201677E+00  1.699615388E+00  4.009033753E+01  4.045284372E+01  6.743495762E-07  0.00000E+00  9.000E+00
      21     1     1     2   514   511 -5.710036555E+00  4.416228072E+00  1.846103956E+00  7.450885025E+00  7.884953353E-08  0.00000E+00  9.000E+00
</event>
<event>
      5  10001  2.40292E+09  7.04024E+00 -1.00000E+00  2.15131E-01
      -1    -1     0     0     0   513  0.000000000E+00  0.000000000E+00  1.232249838E+02  1.232249838E+02  0.000000000E+00  0.00000E+00  9.000E+00
       2    -1     0     0   513     0  0.000000000E+00  0.000000000E+00 -2.768123504E+02  2.768123504E+02  0.000000000E+00  0.00000E+00  9.000E+00
      21     1     1     2   511   512  8.807523521E+00 -6.459806648E+00 -1.008785177E+01  1.486829936E+01  1.685873940E-07  0.00000E+00  9.000E+00
       2     1     1     2   512     0 -1.048817422E+01 -3.768715802E-01 -2.641270996E+02  2.643357287E+02  3.300000131E-01  0.00000E+00  9.000E+00
      -1     1     1     2     0   511  1.680650696E+00  6.836678228E+00  1.206275848E+02  1.208333062E+02  3.300000131E-01  0.00000E+00  9.000E+00
</event>
<event>
      5  10001  2.40292E+09  6.76895E+00 -1.00000E+00  2.17562E-01
      21    -1     0     0   512   511  0.000000000E+00  0.000000000E+00  2.382048540E+02  2.382048540E+02  0.000000000E+00  0.00000E+00  9.000E+00
      21    -1     0     0   513   514  0.000000000E+00  0.000000000E+00 -1.732470384E+00  1.732470384E+00  0.000000000E+00  0.00000E+00  9.000E+00
      21     1     1     2   515   511  1.068507985E+01  1.407984351E+01  9.137863082E+01  9.307237557E+01  1.348699152E-06  0.00000E+00  9.000E+00
      21     1     1     2   513   515 -4.022789513E+00 -1.527672896E+01  9.281516297E+01  9.414996421E+01  1.348699152E-06  0.00000E+00  9.000E+00
      21     1     1     2   512   514 -6.662290336E+00  1.196885443E+00  5.227858981E+01  5.271498459E+01  1.348699152E-06  0.00000E+00  9.000E+00
</event>
<event>
      5  10001  2.40292E+09  1.00850E+01 -1.00000E+00  1.95275E-01
      21    -1     0     0   516   511  0.000000000E+00  0.000000000E+00  2.896575955E+00  2.896575955E+00  0.000000000E+00  0.00000E+00  9.000E+00
      21    -1     0     0   517   516  0.000000000E+00  0.000000000E+00 -8.483343109E+01  8.483343109E+01  0.000000000E+00  0.00000E+00  9.000E+00
      21     1     1     2   517   514 -1.040926385E+01 -2.518869308E-01 -6.390702822E+01  6.474970638E+01  9.536743164E-07  0.00000E+00  9.000E+00
      21     1     1     2   513   511  2.019775878E+00  2.487895807E+00 -2.750740949E-01  3.216331124E+00  1.712823500E-07  0.00000E+00  9.000E+00
      21     1     1     2   514   513  8.389487973E+00 -2.236008876E+00 -1.775475282E+01  1.976396953E+01  2.384185791E-07  0.00000E+00  9.000E+00
</event>
<event>
      5  10001  2.40292E+09  1.86341E+01 -1.00000E+00  1.68901E-01
      21    -1     0     0   512   513  0.000000000E+00  0.000000000E+00  7.207907797E+00  7.207907797E+00  0.000000000E+00  0.00000E+00  9.000E+00
      21    -1     0     0   514   515  0.000000000E+00  0.000000000E+00 -2.228730841E+01  2.228730841E+01  0.000000000E+00  0.00000E+00  9.000E+00
      21     1     1     2   512   515  7.964962638E+00  3.265045630E+00 -1.192144133E+01  1.470448626E+01  1.685873940E-07  0.00000E+00  9.000E+00
      21     1     1     2   514   511 -1.713803495E+00  3.894722023E+00 -3.136223899E+00  5.286008172E+00  1.264405455E-07  0.00000E+00  9.000E+00
      21     1     1     2   511   513 -6.251159144E+00 -7.159767653E+00 -2.173537962E-02  9.504721769E+00  2.702898040E-07  0.00000E+00  9.000E+00
</event>
<event>
      5  10001  2.40292E+09  4.54758E+00 -1.00000E+00  2.50899E-01
       2    -1     0     0   514     0  0.000000000E+00  0.000000000E+00  1.073070027E+03  1.073070027E+03  0.000000000E+00  0.00000E+00  9.000E+00
      21    -1     0     0   511   512  0.000000000E+00  0.000000000E+00 -4.820831375E+00  4.820831375E+00  0.000000000E+00  0.00000E+00  9.000E+00
      21     1     1     2   514   516 -9.463057038E+00  6.314404612E+00  2.499177282E+02  2.501765217E+02  8.529922400E-06  0.00000E+00  9.000E+00
       2     1     1     2   511     0  1.385619846E+01 -7.489366752E+00  8.218273649E+02  8.219783522E+02  3.300000131E-01  0.00000E+00  9.000E+00
      21     1     1     2   516   512 -4.393141421E+00  1.174962141E+00 -3.495896994E+00  5.735984952E+00  1.788139343E-07  0.00000E+00  9.000E+00
</event>
<event>
      5  10001  2.40292E+09  1.51475E+01 -1.00000E+00  1.76937E-01
      21    -1     0     0   514   512  0.000000000E+00  0.000000000E+00  4.278941895E+02  4.278941895E+02  0.000000000E+00  0.00000E+00  9.000E+00
      21    -1     0     0   515   513  0.000000000E+00  0.000000000E+00 -4.877514290E+01  4.877514290E+01  0.000000000E+00  0.00000E+00  9.000E+00
      21     1     1     2   511   512 -6.778595736E+00  8.857651438E+00  1.831329105E+01  2.144257397E+01  0.000000000E+00  0.00000E+00  9.000E+00
      21     1     1     2   515   511  1.480646271E+01  3.987540156E+00 -4.582062889E+01  4.831833862E+01  9.536743164E-07  0.00000E+00  9.000E+00
      21     1     1     2   514   513 -8.027866975E+00 -1.284519159E+01  4.066263844E+02  4.069084198E+02  0.000000000E+00  0.00000E+00  9.000E+00
</event>
<event>
      5  10001  2.40292E+09  3.06085E+00 -1.00000E+00  2.94110E-01
      21    -1     0     0   516   513  0.000000000E+00  0.000000000E+00  2.769569886E+00  2.769569886E+00  0.000000000E+00  0.00000E+00  9.000E+00
       2    -1     0     0   512     0  0.000000000E+00  0.000000000E+00 -6.712786531E+02  6.712786531E+02  0.000000000E+00  0.00000E+00  9.000E+00
      21     1     1     2   516   517 -5.628462281E+00  1.117049781E+01 -1.289550886E+01  1.796534880E+01  2.384185791E-07  0.00000E+00  9.000E+00
      21     1     1     2   512   513  5.379011985E+00 -8.119881705E+00 -1.027219331E+02  1.031826623E+02  0.000000000E+00  0.00000E+00  9.000E+00
       2     1     1     2   517     0  2.494502961E-01 -3.050616105E+00 -5.528916412E+02  5.529002119E+02  3.300000131E-01  0.00000E+00  9.000E+00
</event>
<event>
      5  10001  2.40292E+09  7.57510E+00 -1.00000E+00  2.10750E-01
      21    -1     0     0   512   513  0.000000000E+00  0.000000000E+00  3.505290239E+00  3.505290239E+00  0.000000000E+00  0.00000E+00  9.000E+00
       2    -1     0     0   513     0  0.000000000E+00  0.000000000E+00 -4.167482347E+02  4.167482347E+02  0.000000000E+00  0.00000E+00  9.000E+00
      21     1     1     2   514   511  5.164827391E+00 -1.126321816E+00  3.509875707E-01  5.297851932E+00  1.736960296E-07  0.00000E+00  9.000E+00
       2     1     1     2   511     0 -8.951712350E+00  7.405819775E+00 -3.915815316E+02  3.917539841E+02  3.300000131E-01  0.00000E+00  9.000E+00
      21     1     1     2   512   514  3.786884959E+00 -6.279497959E+00 -2.201240046E+01  2.320168887E+01  3.371747881E-07  0.00000E+00  9.000E+00
</event>
<event>
      5  10001  2.40292E+09  1.49543E+01 -1.00000E+00  1.77461E-01
      21    -1     0     0   515   513  0.000000000E+00  0.000000000E+00  4.276126144E+00  4.276126144E+00  0.000000000E+00  0.00000E+00  9.000E+00
      -4    -1     0     0     0   514  0.000000000E+00  0.000000000E+00 -3.297032208E+01  3.297032208E+01  0.000000000E+00  0.00000E+00  9.000E+00
      -4     1     1     2     0   513  8.041652176E+00 -2.101709983E+00 -9.634347559E+00  1.281233809E+01  1.500000000E+00  0.00000E+00  9.000E+00
      21     1     1     2   511   514 -2.915566267E+00 -1.853568322E+00  7.993093117E-01  3.546144041E+00  6.909384203E-08  0.00000E+00  9.000E+00
      21     1     1     2   515   511 -5.126085909E+00  3.955278305E+00 -1.985915768E+01  2.088796608E+01  3.371747881E-07  0.00000E+00  9.000E+00
</event>
<event>
      5  10001  2.40292E+09  6.72987E+00 -1.00000E+00  2.17925E-01
       1    -1     0     0   514     0  0.000000000E+00  0.000000000E+00  1.160779753E+03  1.160779753E+03  0.000000000E+00  0.00000E+00  9.000E+00
      21    -1     0     0   512   511  0.000000000E+00  0.000000000E+00 -3.970992532E+00  3.970992532E+00  0.000000000E+00  0.00000E+00  9.000E+00
      21     1     1     2   514   513 -1.347859018E-01  9.934165255E+00  4.270151337E+00  1.081387992E+01  1.373495891E-06  0.00000E+00  9.000E+00
       1     1     1     2   512     0 -5.381735232E+00 -8.483348552E+00  1.141200407E+03  1.141244675E+03  3.300000131E-01  0.00000E+00  9.000E+00
      21     1     1     2   513   511  5.516521133E+00 -1.450816703E+00  1.133820159E+01  1.269219011E+01  5.591411304E-07  0.00000E+00  9.000E+00
</event>
<event>
      5  10001  2.40292E+09  2.60943E+00 -1.00000E+00  3.16388E-01
      21    -1     0     0   515   512  0.000000000E+00  0.000000000E+00  4.989084261E+01  4.989084261E+01  0.000000000E+00  0.00000E+00  9.000E+00
      21    -1     0     0   516   515  0.000000000E+00  0.000000000E+00 -6.726211026E+00  6.726211026E+00  0.000000000E+00  0.00000E+00  9.000E+00
      21     1     1     2   511   512  4.190310200E+00 -1.049852760E+01  4.316118096E+01  4.461687263E+01  4.768371582E-07  0.00000E+00  9.000E+00
      21     1     1     2   514   511 -4.201253049E+00  8.408866710E+00  1.375837581E+00  9.500131345E+00  3.707365782E-07  0.00000E+00  9.000E+00
      21     1     1     2   516   514  1.094284904E-02  2.089660890E+00 -1.372386953E+00  2.500049665E+00  1.084820910E-07  0.00000E+00  9.000E+00
</event>
<event>
      5  10001  2.40292E+09  1.32352E+01 -1.00000E+00  1.82612E-01
       2    -1     0     0   515     0  0.000000000E+00  0.000000000E+00  1.953770086E+01  1.953770086E+01  0.000000000E+00  0.00000E+00  9.000E+00
      21    -1     0     0   513   514  0.000000000E+00  0.000000000E+00 -3.963867673E+01  3.963867673E+01  0.000000000E+00  0.00000E+00  9.000E+00
      21     1     1     2   515   514 -1.093064766E+01 -6.388896163E-01 -3.323662410E+01  3.499371972E+01  6.743495762E-07  0.00000E+00  9.000E+00
       2     1     1     2   511     0  1.428585778E+01  3.348359880E+00  6.022600950E+00  1.586435844E+01  3.300000131E-01  0.00000E+00  9.000E+00
      21     1     1     2   513   511 -3.355210119E+00 -2.709470264E+00  7.113047269E+00  8.318299435E+00  8.429369702E-08  0.00000E+00  9.000E+00
</event>
<event>
      5  10001  2.40292E+09  1.89850E+01 -1.00000E+00  1.68215E-01
      21    -1     0     0   512   511  0.000000000E+00  0.000000000E+00  8.601627230E+01  8.601627230E+01  0.000000000E+00  0.00000E+00  9.000E+00
      21    -1     0     0   513   516  0.000000000E+00  0.000000000E+00 -9.696997507E+00  9.696997507E+00  0.000000000E+00  0.00000E+00  9.000E+00
      21     1     1     2   512   516 -8.954012308E+00  1.159943732E+01  7.365154235E+01  7.509507955E+01  0.000000000E+00  0.00000E+00  9.000E+00
      21     1     1     2   513   514  8.591502866E+00 -5.537476379E+00  7.646752265E+00  1.276520217E+01  4.460403188E-07  0.00000E+00  9.000E+00
      21     1     1     2   514   511  3.625094426E-01 -6.061960943E+00 -4.979019820E+00  7.852988090E+00  6.556510925E-07  0.00000E+00  9.000E+00
</event>
<event>
      5  10001  2.40292E+09  1.87535E+01 -1.00000E+00  1.68666E-01
      21    -1     0     0   515   513  0.000000000E+00  0.000000000E+00  1.843716877E+02  1.843716877E+02  0.000000000E+00  0.00000E+00  9.000E+00
      21    -1     0     0   517   511  0.000000000E+00  0.000000000E+00 -2.889905512E+01  2.889905512E+01  0.000000000E+00  0.00000E+00  9.000E+00
      21     1     1     2   515   511  1.291823890E+01  5.529001819E+00  1.814326774E+02  1.819760072E+02  0.000000000E+00  0.00000E+00  9.000E+00
      21     1     1     2   512   513 -7.099587164E+00  4.853591060E-02 -4.587623019E+00  8.452974541E+00  1.332800375E-07  0.00000E+00  9.000E+00
      21     1     1     2   517   512 -5.818651739E+00 -5.577537730E+00 -2.137242182E+01  2.284176109E+01  1.011524364E-06  0.00000E+00  9.000E+00
</event>
<event>
      5  10001  2.40292E+09  1.69052E+01 -1.00000E+00  1.72582E-01
       1    -1     0     0   511     0  0.000000000E+00  0.000000000E+00  3.487412096E+02  3.487412096E+02  0.000000000E+00  0.00000E+00  9.000E+00
      21    -1     0     0   512   511  0.000000000E+00  0.000000000E+00 -6.713381998E+01  6.713381998E+01  0.000000000E+00  0.00000E+00  9.000E+00
      21     1     1     2   512   513 -6.780531014E+00  2.831922018E+00 -1.831435441E+01  1.973349844E+01  6.307962682E-07  0.00000E+00  9.000E+00
       1     1     1     2   514     0  7.124076314E+00 -7.481110063E+00  3.478417606E+02  3.479952855E+02  3.300000131E-01  0.00000E+00  9.000E+00
      21     1     1     2   513   514 -3.435452996E-01  4.649188045E+00 -4.792001657E+01  4.814624556E+01  1.907348633E-06  0.00000E+00  9.000E+00
</event>
<event>
      5  10001  2.40292E+09  1.32770E+01 -1.00000E+00  1.82475E-01
       2    -1     0     0   513     0  0.000000000E+00  0.000000000E+00  1.844722695E+02  1.844722695E+02  0.000000000E+00  0.00000E+00  9.000E+00
      21    -1     0     0   515   511  0.000000000E+00  0.000000000E+00 -1.796925540E+01  1.796925540E+01  0.000000000E+00  0.00000E+00  9.000E+00
      21     1     1     2   513   512  2.981260771E+00 -7.874296508E+00 -1.661562271E+01  1.862716777E+01  1.168007728E-06  0.00000E+00  9.000E+00
       2     1     1     2   515     0 -6.621990369E+00  8.612132512E+00  1.625508154E+02  1.629137688E+02  3.300000131E-01  0.00000E+00  9.000E+00
      21     1     1     2   512   511  3.640729599E+00 -7.378360041E-01  2.056782141E+01  2.090058831E+01  0.000000000E+00  0.00000E+00  9.000E+00
</event>
<event>
      5  10001  2.40292E+09  7.96298E+00 -1.00000E+00  2.07868E-01
      21    -1     0     0   514   513  0.000000000E+00  0.000000000E+00  9.618620739E+01  9.618620739E+01  0.000000000E+00  0.00000E+00  9.000E+00
      21    -1     0     0   516   514  0.000000000E+00  0.000000000E+00 -5.678448201E+00  5.678448201E+00  0.000000000E+00  0.00000E+00  9.000E+00
      21     1     1     2   516   511  1.770712794E+01  7.728099648E+00  4.920023022E+01  5.285762535E+01  0.000000000E+00  0.00000E+00  9.000E+00
      21     1     1     2   511   512 -1.549961427E+01 -7.721760647E-02  1.518813821E+01  2.170077297E+01  7.539457465E-07  0.00000E+00  9.000E+00
      21     1     1     2   512   513 -2.207513674E+00 -7.650882042E+00  2.611939076E+01  2.730625727E+01  0.000000000E+00  0.00000E+00  9.000E+00
</event>
<event>
      5  10001  2.40292E+09  8.88942E+00 -1.00000E+00  2.01797E-01
      21    -1     0     0   515   512  0.000000000E+00  0.000000000E+00  3.538150278E+01  3.538150278E+01  0.000000000E+00  0.00000E+00  9.000E+00
      21    -1     0     0   513   515  0.000000000E+00  0.000000000E+00 -1.251401055E+01  1.251401055E+01  0.000000000E+00  0.00000E+00  9.000E+00
      21     1     1     2   517   512  1.683214267E+01 -4.062854746E+00  1.570168408E+01  2.337457377E+01  3.371747881E-07  0.00000E+00  9.000E+00
      21     1     1     2   513   511 -1.406348769E+01  6.969489868E+00 -6.772186577E-01  1.571031827E+01  1.811272767E-07  0.00000E+00  9.000E+00
      21     1     1     2   511   517 -2.768654978E+00 -2.906635122E+00  7.843026801E+00  8.810621291E+00  1.460009660E-07  0.00000E+00  9.000E+00
</event>
<event>
      5  10001  2.40292E+09  1.65586E+01 -1.00000E+00  1.73387E-01
      21    -1     0     0   514   513  0.000000000E+00  0.000000000E+00  4.410631373E+01  4.410631373E+01  0.000000000E+00  0.00000E+00  9.000E+00
      21    -1     0     0   512   516  0.000000000E+00  0.000000000E+00 -2.589255543E+00  2.589255543E+00  0.000000000E+00  0.00000E+00  9.000E+00
      21     1     1     2   514   516 -5.788169379E+00  1.813976886E+00  1.195993155E+01  1.341019685E+01  1.685873940E-07  0.00000E+00  9.000E+00
      21     1     1     2   512   515  1.740735434E+00  5.820124958E+00  1.691232376E+01  1.797027293E+01  3.371747881E-07  0.00000E+00  9.000E+00
      21     1     1     2   515   513  4.047433945E+00 -7.634101844E+00  1.264480287E+01  1.531509948E+01  1.685873940E-07  0.00000E+00  9.000E+00
</event>
<event>
      5  10001  2.40292E+09  7.41512E+00 -1.00000E+00  2.12008E-01
       1    -1     0     0   512     0  0.000000000E+00  0.000000000E+00  1.657923734E+00  1.657923734E+00  0.000000000E+00  0.00000E+00  9.000E+00
       1    -1     0     0   511     0  0.000000000E+00  0.000000000E+00 -6.480393959E+02  6.480393959E+02  0.000000000E+00  0.00000E+00  9.000E+00
       1     1     1     2   511     0  9.322573666E-01  1.400860368E+01 -4.128577618E+01  4.360887863E+01  3.300000131E-01  0.00000E+00  9.000E+00
       1     1     1     2   514     0  5.663062658E+00 -1.062052891E+01 -5.738026055E+02  5.739289197E+02  3.300000131E-01  0.00000E+00  9.000E+00
      21     1     1     2   512   514 -6.595320025E+00 -3.388074767E+00 -3.129309045E+01  3.215952125E+01  5.840038640E-07  0.00000E+00  9.000E+00
</event>
<event>
      5  10001  2.40292E+09  1.10147E+01 -1.00000E+00  1.90972E-01
      21    -1     0     0   513   514  0.000000000E+00  0.000000000E+00  6.787863250E+00  6.787863250E+00  0.000000000E+00  0.00000E+00  9.000E+00
      21    -1     0     0   511   515  0.000000000E+00  0.000000000E+00 -2.189218714E+01  2.189218714E+01  0.000000000E+00  0.00000E+00  9.000E+00
      21     1     1     2   513   515 -8.631052503E+00  5.523354355E+00 -2.784010626E+00  1.061853219E+01  1.632340424E-07  0.00000E+00  9.000E+00
      21     1     1     2   511   516  3.060701881E+00 -2.779242830E+00  1.432546425E-01  4.136738885E+00  1.124704565E-07  0.00000E+00  9.000E+00
      21     1     1     2   516   514  5.570350621E+00 -2.744111525E+00 -1.246356791E+01  1.392477932E+01  0.000000000E+00  0.00000E+00  9.000E+00
</event>
<event>
      5  10001  2.40292E+09  6.30575E+00 -1.00000E+00  2.22095E-01
      21    -1     0     0   512   514  0.000000000E+00  0.000000000E+00  6.781796935E+01  6.781796935E+01  0.000000000E+00  0.00000E+00  9.000E+00
      -2    -1     0     0     0   512  0.000000000E+00  0.000000000E+00 -4.344624396E+01  4.344624396E+01  0.000000000E+00  0.00000E+00  9.000E+00
      -2     1     1     2     0   513  1.004304977E+01  1.461399792E+00 -4.135917474E+01  4.258742506E+01  3.300000131E-01  0.00000E+00  9.000E+00
      21     1     1     2   513   511 -4.747079479E+00 -3.698394804E+00  6.081661337E+01  6.111361018E+01  1.507891493E-06  0.00000E+00  9.000E+00
      21     1     1     2   511   514 -5.295970295E+00  2.236995013E+00  4.914286766E+00  7.563178067E+00  0.000000000E+00  0.00000E+00  9.000E+00
</event>
<event>
      5  10001  2.40292E+09  1.04894E+01 -1.00000E+00  1.93332E-01
      21    -1     0     0   515   513  0.000000000E+00  0.000000000E+00  4.521126480E+01  4.521126480E+01  0.000000000E+00  0.00000E+00  9.000E+00
       2    -1     0     0   516     0  0.000000000E+00  0.000000000E+00 -9.658922282E+02  9.658922282E+02  0.000000000E+00  0.00000E+00  9.000E+00
      21     1     1     2   515   514  2.434046134E+00  1.493830536E+01  7.038841799E-01  1.515166659E+01  2.796698269E-07  0.00000E+00  9.000E+00
      21     1     1     2   516   513  8.031321620E+00 -1.422866151E+01  3.546328389E+01  3.904614500E+01  4.768371582E-07  0.00000E+00  9.000E+00
       2     1     1     2   514     0 -1.046536775E+01 -7.096438477E-01 -9.568481315E+02  9.569056814E+02  3.300000131E-01  0.00000E+00  9.000E+00
</event>
<event>
      5  10001  2.40292E+09  8.09037E+00 -1.00000E+00  2.06969E-01
      21    -1     0     0   511   516  0.000000000E+00  0.000000000E+00  7.478481847E+00  7.478481847E+00  0.000000000E+00  0.00000E+00  9.000E+00
      21    -1     0     0   514   512  0.000000000E+00  0.000000000E+00 -1.127816847E+02  1.127816847E+02  0.000000000E+00  0.00000E+00  9.000E+00
      21     1     1     2   511   512 -4.151130585E+00  1.400127673E+01 -1.028014370E+02  1.038335354E+02  1.907348633E-06  0.00000E+00  9.000E+00
      21     1     1     2   513   516 -1.052410114E+00 -4.472215101E+00  1.533807375E+00  4.843639130E+00  2.010276551E-07  0.00000E+00  9.000E+00
      21     1     1     2   514   513  5.203540699E+00 -9.529061630E+00 -4.035573214E+00  1.158299195E+01  3.953724850E-07  0.00000E+00  9.000E+00
</event>
<event>
      5  10001  2.40292E+09  7.33414E+00 -1.00000E+00  2.12661E-01
      21    -1     0     0   515   512  0.000000000E+00  0.000000000E+00  1.022657169E+03  1.022657169E+03  0.000000000E+00  0.00000E+00  9.000E+00
      21    -1     0     0   511   517  0.000000000E+00  0.000000000E+00 -1.249842051E+01  1.249842051E+01  0.000000000E+00  0.00000E+00  9.000E+00
      21     1     1     2   515   517 -8.305566183E+00 -8.600498781E+00  1.008256570E+03  1.008327458E+03  1.525878906E-05  0.00000E+00  9.000E+00
      21     1     1     2   514   512  1.557377353E+01  7.619285296E+00  6.097720709E+00  1.837874120E+01  1.092571186E-06  0.00000E+00  9.000E+00
      21     1     1     2   511   514 -7.268207342E+00  9.812134849E-01 -4.195542579E+00  8.449390239E+00  6.222907608E-07  0.00000E+00  9.000E+00
</event>
<event>
      5  10001  2.40292E+09  5.04936E+00 -1.00000E+00  2.37686E-01
      -2    -1     0     0     0   513  0.000000000E+00  0.000000000E+00  6.711713719E+00  6.711713719E+00  0.000000000E+00  0.00000E+00  9.000E+00
      21    -1     0     0   512   514  0.000000000E+00  0.000000000E+00 -1.107922831E+02  1.107922831E+02  0.000000000E+00  0.00000E+00  9.000E+00
      -2     1     1     2     0   514  8.692653098E+00  7.190235840E+00  3.601951185E-01  1.129160528E+01  3.300000131E-01  0.00000E+00  9.000E+00
      -1     1     1     2     0   513 -9.807067934E+00 -9.674818872E+00 -1.003211067E+02  1.012630932E+02  3.300000131E-01  0.00000E+00  9.000E+00
       1     1     1     2   512     0  1.114414835E+00  2.484583032E+00 -4.119657774E+00  4.949298279E+00  3.300000131E-01  0.00000E+00  9.000E+00
</event>
<event>
      5  10001  2.40292E+09  8.39272E+00 -1.00000E+00  2.04922E-01
      21    -1     0     0   511   514  0.000000000E+00  0.000000000E+00  2.347149650E+02  2.347149650E+02  0.000000000E+00  0.00000E+00  9.000E+00
      21    -1     0     0   512   513  0.000000000E+00  0.000000000E+00 -6.830747071E+00  6.830747071E+00  0.000000000E+00  0.00000E+00  9.000E+00
      21     1     1     2   512   515 -1.966563350E+01 -1.968387611E+00  1.147246833E+01  2.285233512E+01  4.768371582E-07  0.00000E+00  9.000E+00
      21     1     1     2   515   514  1.534013402E+01  9.160596184E+00  1.929536356E+02  1.937791055E+02  4.672030912E-06  0.00000E+00  9.000E+00
      21     1     1     2   511   513  4.325499482E+00 -7.192208573E+00  2.345811399E+01  2.491427145E+01  3.371747881E-07  0.00000E+00  9.000E+00
</event>
<event>
      5  10001  2.40292E+09  6.46807E+00 -1.00000E+00  2.20447E-01
      -3    -1     0     0     0   516  0.000000000E+00  0.000000000E+00  5.318399731E+01  5.318399731E+01  0.000000000E+00  0.00000E+00  9.000E+00
      21    -1     0     0   511   513  0.000000000E+00  0.000000000E+00 -5.292674553E+00  5.292674553E+00  0.000000000E+00  0.00000E+00  9.000E+00
      -3     1     1     2     0   512  5.536769497E+00 -3.534151423E+00  2.961935504E+01  3.034307558E+01  5.000000000E-01  0.00000E+00  9.000E+00
      21     1     1     2   511   516 -9.876612779E+00 -3.518965671E-01  1.032716652E+00  9.936690337E+00  1.192092896E-07  0.00000E+00  9.000E+00
      21     1     1     2   512   513  4.339843282E+00  3.886047990E+00  1.723925107E+01  1.819690595E+01  2.384185791E-07  0.00000E+00  9.000E+00
</event>
<event>
      5  10001  2.40292E+09  2.74870E+00 -1.00000E+00  3.08742E-01
      21    -1     0     0   514   516  0.000000000E+00  0.000000000E+00  1.912376729E+01  1.912376729E+01  0.000000000E+00  0.00000E+00  9.000E+00
      21    -1     0     0   512   515  0.000000000E+00  0.000000000E+00 -3.796880393E+02  3.796880393E+02  0.000000000E+00  0.00000E+00  9.000E+00
      21     1     1     2   514   515 -2.133951713E+00  9.683282388E+00 -3.676150335E+00  1.057514960E+01  4.519745972E-07  0.00000E+00  9.000E+00
      21     1     1     2   512   511  4.855884888E+00 -9.300585795E+00 -3.723674213E+02  3.725152036E+02  7.629394531E-06  0.00000E+00  9.000E+00
      21     1     1     2   511   516 -2.721933175E+00 -3.826965934E-01  1.547929964E+01  1.572145331E+01  2.920019320E-07  0.00000E+00  9.000E+00
</event>
<event>
      5  10001  2.40292E+09  1.41313E+01 -1.00000E+00  1.79811E-01
      21    -1     0     0   513   512  0.000000000E+00  0.000000000E+00  1.277267177E+01  1.277267177E+01  0.000000000E+00  0.00000E+00  9.000E+00
      21    -1     0     0   516   513  0.000000000E+00  0.000000000E+00 -1.800049543E+02  1.800049543E+02  0.000000000E+00  0.00000E+00  9.000E+00
      21     1     1     2   516   517 -9.354470211E+00 -7.036516875E+00 -1.757120299E+02  1.761014939E+02  3.814697266E-06  0.00000E+00  9.000E+00
      21     1     1     2   517   514  1.381902314E+00 -1.657858590E+00  2.931061912E+00  3.639955087E+00  4.636153336E-07  0.00000E+00  9.000E+00
      21     1     1     2   514   512  7.972567897E+00  8.694375465E+00  5.548685476E+00  1.303617713E+01  1.221531721E-06  0.00000E+00  9.000E+00
</event>
<event>
      5  10001  2.40292E+09  4.25249E+00 -1.00000E+00  2.57257E-01
      -1    -1     0     0     0   511  0.000000000E+00  0.000000000E+00  1.651814875E+00  1.651814875E+00  0.000000000E+00  0.00000E+00  9.000E+00
       1    -1     0     0   511     0  0.000000000E+00  0.000000000E+00 -4.191842517E+02  4.191842517E+02  0.000000000E+00  0.00000E+00  9.000E+00
      -1     1     1     2     0   513 -2.916393356E+00  3.703347604E+00 -3.274524210E+00  5.749047094E+00  3.300000131E-01  0.00000E+00  9.000E+00
       1     1     1     2   512     0  6.828477868E+00 -7.130014664E+00 -3.954494275E+02  3.955727794E+02  3.300000131E-01  0.00000E+00  9.000E+00
      21     1     1     2   513   512 -3.912084512E+00  3.426667060E+00 -1.880848517E+01  1.951424010E+01  0.000000000E+00  0.00000E+00  9.000E+00
</event>
<event>
      5  10001  2.40292E+09  3.17481E+00 -1.00000E+00  2.89466E-01
      21    -1     0     0   515   511  0.000000000E+00  0.000000000E+00  9.680457034E-01  9.680457034E-01  0.000000000E+00  0.00000E+00  9.000E+00
       2    -1     0     0   511     0  0.000000000E+00  0.000000000E+00 -2.102891022E+02  2.102891022E+02  0.000000000E+00  0.00000E+00  9.000E+00
      21     1     1     2   512   514 -7.350054846E+00  5.840773311E+00 -7.403912648E+01  7.463196493E+01  2.336015456E-06  0.00000E+00  9.000E+00
       2     1     1     2   514     0  1.006532513E+01 -4.196518406E+00 -1.300412555E+02  1.304981171E+02  3.300000131E-01  0.00000E+00  9.000E+00
      21     1     1     2   515   512 -2.715270281E+00 -1.644254904E+00 -5.240674590E+00  6.127065941E+00  2.064765462E-07  0.00000E+00  9.000E+00
</event>
<event>
      5  10001  2.40292E+09  1.21979E+01 -1.00000E+00  1.86232E-01
      21    -1     0     0   513   514  0.000000000E+00  0.000000000E+00  2.186742685E+01  2.186742685E+01  0.000000000E+00  0.00000E+00  9.000E+00
      21    -1     0     0   511   513  0.000000000E+00  0.000000000E+00 -3.061403914E+02  3.061403914E+02  0.000000000E+00  0.00000E+00  9.000E+00
      21     1     1     2   516   512  1.696812133E+01 -1.181349303E+01  1.386827137E+01  2.489587736E+01  7.348554138E-07  0.00000E+00  9.000E+00
      21     1     1     2   511   516 -2.186047769E+01  6.396820547E-01 -2.821659594E+02  2.830122229E+02  0.000000000E+00  0.00000E+00  9.000E+00
      21     1     1     2   512   514  4.892356359E+00  1.117381097E+01 -1.597527654E+01  2.009971798E+01  2.920019320E-07  0.00000E+00  9.000E+00
</event>
<event>
      5  10001  2.40292E+09  5.59091E+00 -1.00000E+00  2.30261E-01
      -3    -1     0     0     0   514  0.000000000E+00  0.000000000E+00  2.329752689E+01  2.329752689E+01  0.000000000E+00  0.00000E+00  9.000E+00
      21    -1     0     0   514   513  0.000000000E+00  0.000000000E+00 -1.558151698E+01  1.558151698E+01  0.000000000E+00  0.00000E+00  9.000E+00
      -3     1     1     2     0   515  5.551035315E+00 -8.298157878E+00  1.957959240E+01  2.198371797E+01  5.000000000E-01  0.00000E+00  9.000E+00
      21     1     1     2   511   513 -1.822055468E+00  7.764636176E+00 -6.239421794E+00  1.012619600E+01  2.064765462E-07  0.00000E+00  9.000E+00
      21     1     1     2   515   511 -3.728979847E+00  5.335217021E-01 -5.624160693E+00  6.769129900E+00  1.788139343E-07  0.00000E+00  9.000E+00
</event>
<event>
      5  10001  2.40292E+09  9.97164E+00 -1.00000E+00  1.95841E-01
       2    -1     0     0   514     0  0.000000000E+00  0.000000000E+00  4.657176464E+02  4.657176464E+02  0.000000000E+00  0.00000E+00  9.000E+00
      21    -1     0     0   512   511  0.000000000E+00  0.000000000E+00 -6.822745279E+00  6.822745279E+00  0.000000000E+00  0.00000E+00  9.000E+00
      21     1     1     2   513   511  2.688746086E+00 -8.283658504E+00 -3.290123339E+00  9.309847760E+00  9.452552514E-07  0.00000E+00  9.000E+00
       2     1     1     2   512     0 -1.238397347E+01  1.061481159E+01  3.921515850E+02  3.924907790E+02  3.300000131E-01  0.00000E+00  9.000E+00
      21     1     1     2   514   513  9.695227382E+00 -2.331153085E+00  7.003343940E+01  7.073976493E+01  1.348699152E-06  0.00000E+00  9.000E+00
</event>
<event>
      5  10001  2.40292E+09  6.43405E+00 -1.00000E+00  2.20787E-01
      21    -1     0     0   515   511  0.000000000E+00  0.000000000E+00  1.246222949E+02  1.246222949E+02  0.000000000E+00  0.00000E+00  9.000E+00
      21    -1     0     0   516   513  0.000000000E+00  0.000000000E+00 -9.189667483E+00  9.189667483E+00  0.000000000E+00  0.00000E+00  9.000E+00
      21     1     1     2   515   513  5.195935630E+00 -9.235323279E+00  1.201365557E+02  1.206029890E+02  1.907348633E-06  0.00000E+00  9.000E+00
      21     1     1     2   516   512 -5.423086793E+00  3.207619130E+00 -2.132864665E+00  6.651902173E+00  1.999200562E-07  0.00000E+00  9.000E+00
      21     1     1     2   512   511  2.271511627E-01  6.027704150E+00 -2.571063597E+00  6.557071220E+00  1.812804499E-07  0.00000E+00  9.000E+00
</event>
<event>
      5  10001  2.40292E+09  7.49384E+00 -1.00000E+00  2.11384E-01
      21    -1     0     0   514   511  0.000000000E+00  0.000000000E+00  4.159752351E-01  4.159752351E-01  0.000000000E+00  0.00000E+00  9.000E+00
       1    -1     0     0   511     0  0.000000000E+00  0.000000000E+00 -4.934601846E+02  4.934601846E+02  0.000000000E+00  0.00000E+00  9.000E+00
      21     1     1     2   513   512 -8.315343170E+00  2.677951990E+00 -7.086009953E+01  7.139656899E+01  1.651812370E-06  0.00000E+00  9.000E+00
       1     1     1     2   512     0  1.023927772E+01  2.031107545E+00 -3.178591875E+02  3.180307221E+02  3.300000131E-01  0.00000E+00  9.000E+00
      21     1     1     2   514   513 -1.923934545E+00 -4.709059535E+00 -1.043249223E+02  1.044488688E+02  1.907348633E-06  0.00000E+00  9.000E+00
</event>
<event>
      5  10001  2.40292E+09  5.90721E+00 -1.00000E+00  2.26449E-01
       2    -1     0     0   512     0  0.000000000E+00  0.000000000E+00  1.093889127E+03  1.093889127E+03  0.000000000E+00  0.00000E+00  9.000E+00
      21    -1     0     0   511   515  0.000000000E+00  0.000000000E+00 -5.092208686E+00  5.092208686E+00  0.000000000E+00  0.00000E+00  9.000E+00
      21     1     1     2   512   515 -2.078703273E+00 -8.879662138E+00  8.164433538E+02  8.164942862E+02  1.525878906E-05  0.00000E+00  9.000E+00
       2     1     1     2   514     0 -1.984674205E+00  1.316718588E+01  2.754812024E+02  2.758030375E+02  3.300000131E-01  0.00000E+00  9.000E+00
      21     1     1     2   511   514  4.063377477E+00 -4.287523741E+00 -3.127637959E+00  6.684011935E+00  4.558878702E-07  0.00000E+00  9.000E+00
</event>
<event>
      5  10001  2.40292E+09  7.92630E+00 -1.00000E+00  2.08131E-01
      21    -1     0     0   513   514  0.000000000E+00  0.000000000E+00  9.027431991E+00  9.027431991E+00  0.000000000E+00  0.00000E+00  9.000E+00
      21    -1     0     0   511   516  0.000000000E+00  0.000000000E+00 -4.926070248E+01  4.926070248E+01  0.000000000E+00  0.00000E+00  9.000E+00
      21     1     1     2   513   516 -1.845812407E+01 -5.380257011E+00 -1.512626946E+01  2.446331003E+01  1.685873940E-07  0.00000E+00  9.000E+00
      21     1     1     2   511   512  1.424024400E+01  6.358454514E+00 -1.104250851E+01  1.910893736E+01  4.616955931E-07  0.00000E+00  9.000E+00
      21     1     1     2   512   514  4.217880077E+00 -9.781975031E-01 -1.406449252E+01  1.471588708E+01  0.000000000E+00  0.00000E+00  9.000E+00
</event>
<event>
      5  10001  2.40292E+09  3.69941E+01 -1.00000E+00  1.46944E-01
      21    -1     0     0   512   511  0.000000000E+00  0.000000000E+00  1.428359575E+00  1.428359575E+00  0.000000000E+00  0.00000E+00  9.000E+00
       5    -1     0     0   514     0  0.000000000E+00  0.000000000E+00 -3.718705603E+02  3.718705603E+02  0.000000000E+00  0.00000E+00  9.000E+00
      21     1     1     2   514   511  3.099448871E+00  1.298773638E+00 -7.592855221E+01  7.600288440E+01  1.348699152E-06  0.00000E+00  9.000E+00
      21     1     1     2   512   513 -3.578972235E+00  7.558705280E+00 -1.213743056E+01  1.473975198E+01  5.057621821E-07  0.00000E+00  9.000E+00
       5     1     1     2   513     0  4.795233642E-01 -8.857478918E+00 -2.823762180E+02  2.825562835E+02  4.800000191E+00  0.00000E+00  9.000E+00
</event>
<event>
      5  10001  2.40292E+09  1.68223E+00 -1.00000E+00  4.01943E-01
      21    -1     0     0   515   514  0.000000000E+00  0.000000000E+00  4.075744049E+02  4.075744049E+02  0.000000000E+00  0.00000E+00  9.000E+00
      -2    -1     0     0     0   515  0.000000000E+00  0.000000000E+00 -2.728821463E-01  2.728821463E-01  0.000000000E+00  0.00000E+00  9.000E+00
      -2     1     1     2     0   511  6.621829679E+00 -4.255553500E+00  9.736970211E+01  9.768790177E+01  3.300000131E-01  0.00000E+00  9.000E+00
      21     1     1     2   513   514 -7.898118673E+00  5.855678638E+00  2.558918199E+02  2.560806372E+02  3.814697266E-06  0.00000E+00  9.000E+00
      21     1     1     2   511   513  1.276288993E+00 -1.600125138E+00  5.404000072E+01  5.407874806E+01  6.743495762E-07  0.00000E+00  9.000E+00
</event>
<event>
      5  10001  2.40292E+09  1.64267E+01 -1.00000E+00  1.73700E-01
       1    -1     0     0   511     0  0.000000000E+00  0.000000000E+00  3.485063065E+02  3.485063065E+02  0.000000000E+00  0.00000E+00  9.000E+00
      21    -1     0     0   512   513  0.000000000E+00  0.000000000E+00 -4.439641071E-01  4.439641071E-01  0.000000000E+00  0.00000E+00  9.000E+00
      21     1     1     2   511   513  3.546828177E+00 -6.713748005E+00  1.357524592E+02  1.359646446E+02  0.000000000E+00  0.00000E+00  9.000E+00
       1     1     1     2   514     0  2.230517220E+00  5.440375363E+00  1.824665325E+02  1.825615438E+02  3.300000131E-01  0.00000E+00  9.000E+00
      21     1     1     2   512   514 -5.777345397E+00  1.273372642E+00  2.984335071E+01  3.042408223E+01  3.371747881E-07  0.00000E+00  9.000E+00
</event>
<event>
      5  10001  2.40292E+09  1.92326E+01 -1.00000E+00  1.67741E-01
      21    -1     0     0   515   513  0.000000000E+00  0.000000000E+00  8.078510093E+00  8.078510093E+00  0.000000000E+00  0.00000E+00  9.000E+00
      21    -1     0     0   512   516  0.000000000E+00  0.000000000E+00 -1.904970432E+02  1.904970432E+02  0.000000000E+00  0.00000E+00  9.000E+00
      21     1     1     2   515   516  1.241418777E+01  3.432751296E-01  2.180880715E+00  1.260897047E+01  2.715120786E-07  0.00000E+00  9.000E+00
      21     1     1     2   511   513 -1.135179180E+01 -7.628776428E+00 -8.479190838E+01  8.588788701E+01  1.907348633E-06  0.00000E+00  9.000E+00
      21     1     1     2   512   511 -1.062395963E+00  7.285501298E+00 -9.980750545E+01  1.000786958E+02  1.907348633E-06  0.00000E+00  9.000E+00
</event>
<event>
      5  10001  2.40292E+09  8.68764E+00 -1.00000E+00  2.03033E-01
      21    -1     0     0   514   515  0.000000000E+00  0.000000000E+00  1.026418122E+02  1.026418122E+02  0.000000000E+00  0.00000E+00  9.000E+00
      -1    -1     0     0     0   514  0.000000000E+00  0.000000000E+00 -3.551052499E+00  3.551052499E+00  0.000000000E+00  0.00000E+00  9.000E+00
      -1     1     1     2     0   513  7.215511328E+00  2.628831207E+00  6.262971812E+00  9.915042772E+00  3.300000131E-01  0.00000E+00  9.000E+00
      21     1     1     2   513   512 -1.127065350E+01 -1.031075597E+01  4.153927486E+01  4.425890504E+01  0.000000000E+00  0.00000E+00  9.000E+00
      21     1     1     2   512   515  4.055142169E+00  7.681924763E+00  5.128851302E+01  5.201891688E+01  6.743495762E-07  0.00000E+00  9.000E+00
</event>
<event>
      5  10001  2.40292E+09  6.48368E+00 -1.00000E+00  2.20292E-01
      21    -1     0     0   511   513  0.000000000E+00  0.000000000E+00  1.054139282E+01  1.054139282E+01  0.000000000E+00  0.00000E+00  9.000E+00
      21    -1     0     0   516   515  0.000000000E+00  0.000000000E+00 -8.861637821E+01  8.861637821E+01  0.000000000E+00  0.00000E+00  9.000E+00
      21     1     1     2   511   515  1.024470802E+01  1.449648610E+01  1.224014155E+00  1.779326734E+01  4.924151791E-07  0.00000E+00  9.000E+00
      21     1     1     2   516   514 -3.673781292E+00 -2.516387217E+00 -2.338446989E+01  2.380466982E+01  3.371747881E-07  0.00000E+00  9.000E+00
      21     1     1     2   514   513 -6.570926731E+00 -1.198009889E+01 -5.591452966E+01  5.755983387E+01  0.000000000E+00  0.00000E+00  9.000E+00
</event>
<event>
      5  10001  2.40292E+09  6.86913E+00 -1.00000E+00  2.16647E-01
      21    -1     0     0   511   513  0.000000000E+00  0.000000000E+00  2.483738001E+00  2.483738001E+00  0.000000000E+00  0.00000E+00  9.000E+00
       1    -1     0     0   514     0  0.000000000E+00  0.000000000E+00 -3.774499277E+02  3.774499277E+02  0.000000000E+00  0.00000E+00  9.000E+00
      21     1     1     2   514   513  2.632913250E+00  1.047921824E+01 -3.720184819E+01  3.873917598E+01  1.348699152E-06  0.00000E+00  9.000E+00
       1     1     1     2   512     0  3.694824048E+00 -1.315161549E+01 -3.318470448E+02  3.321282685E+02  3.300000131E-01  0.00000E+00  9.000E+00
      21     1     1     2   511   512 -6.327737298E+00  2.672397242E+00 -5.917296720E+00  9.066221197E+00  5.057621821E-07  0.00000E+00  9.000E+00
</event>
<event>
      5  10001  2.40292E+09  6.90367E+00 -1.00000E+00  2.16336E-01
      21    -1     0     0   512   513  0.000000000E+00  0.000000000E+00  1.509128929E+00  1.509128929E+00  0.000000000E+00  0.00000E+00  9.000E+00
       1    -1     0     0   513     0  0.000000000E+00  0.000000000E+00 -4.839710180E+02  4.839710180E+02  0.000000000E+00  0.00000E+00  9.000E+00
      21     1     1     2   512   514 -1.794007831E+00 -7.142841099E+00 -1.328305495E+01  1.518809375E+01  6.743495762E-07  0.00000E+00  9.000E+00
       1     1     1     2   515     0  1.445899488E+00  1.605721080E+01 -4.200754557E+02  4.203848499E+02  3.300000131E-01  0.00000E+00  9.000E+00
      21     1     1     2   514   515  3.481083437E-01 -8.914369698E+00 -4.910337847E+01  4.990720333E+01  1.507891493E-06  0.00000E+00  9.000E+00
</event>
<event>
      5  10001  2.40292E+09  7.81975E+00 -1.00000E+00  2.08906E-01
      21    -1     0     0   511   514  0.000000000E+00  0.000000000E+00  8.059469592E+01  8.059469592E+01  0.000000000E+00  0.00000E+00  9.000E+00
      21    -1     0     0   513   516  0.000000000E+00  0.000000000E+00 -3.104930533E+01  3.104930533E+01  0.000000000E+00  0.00000E+00  9.000E+00
      21     1     1     2   511   516  9.260192219E+00 -7.757703428E+00  7.847738947E+01  7.940172404E+01  1.348699152E-06  0.00000E+00  9.000E+00
      21     1     1     2   513   512 -8.136563247E+00  3.509835050E+00 -1.312768864E+01  1.583852306E+01  0.000000000E+00  0.00000E+00  9.000E+00
      21     1     1     2   512   514 -1.123628972E+00  4.247868378E+00 -1.580431025E+01  1.640375415E+01  4.460403188E-07  0.00000E+00  9.000E+00
</event>
<event>
      5  10001  2.40292E+09  2.56631E+01 -1.00000E+00  1.57867E-01
       1    -1     0     0   513     0  0.000000000E+00  0.000000000E+00  1.589602624E+01  1.589602624E+01  0.000000000E+00  0.00000E+00  9.000E+00
      21    -1     0     0   512   515  0.000000000E+00  0.000000000E+00 -2.018808393E+01  2.018808393E+01  0.000000000E+00  0.00000E+00  9.000E+00
      21     1     1     2   513   515 -6.001387398E+00  7.569704642E-02 -9.602299392E+00  1.132371557E+01  1.192092896E-07  0.00000E+00  9.000E+00
       1     1     1     2   511     0  2.516595233E+00  1.129854194E+01 -3.520477415E-01  1.158547104E+01  3.300000131E-01  0.00000E+00  9.000E+00
      21     1     1     2   512   511  3.484792165E+00 -1.137423899E+01  5.662289443E+00  1.317492356E+01  1.884864366E-07  0.00000E+00  9.000E+00
</event>
<event>
      5  10001  2.40292E+09  4.68735E+00 -1.00000E+00  2.48137E-01
      21    -1     0     0   512   513  0.000000000E+00  0.000000000E+00  7.861312394E+01  7.861312394E+01  0.000000000E+00  0.00000E+00  9.000E+00
      -1    -1     0     0     0   514  0.000000000E+00  0.000000000E+00 -1.321790934E+01  1.321790934E+01  0.000000000E+00  0.00000E+00  9.000E+00
      -1     1     1     2     0   511 -1.490436289E-01 -9.102141554E+00 -1.034961727E+01  1.378748246E+01  3.300000131E-01  0.00000E+00  9.000E+00
      21     1     1     2   512   514  4.530376291E-01  1.377948955E+01  6.223134426E+01  6.374025246E+01  0.000000000E+00  0.00000E+00  9.000E+00
      21     1     1     2   511   513 -3.039940003E-01 -4.677347996E+00  1.351348761E+01  1.430329837E+01  1.685873940E-07  0.00000E+00  9.000E+00
</event>
<event>
      5  10001  2.40292E+09  8.52893E+00 -1.00000E+00  2.04037E-01
       2    -1     0     0   515     0  0.000000000E+00  0.000000000E+00  5.495479159E+02  5.495479159E+02  0.000000000E+00  0.00000E+00  9.000E+00
      21    -1     0     0   511   513  0.000000000E+00  0.000000000E+00 -3.138124463E+01  3.138124463E+01  0.000000000E+00  0.00000E+00  9.000E+00
      21     1     1     2   515   513 -1.000627515E+01 -2.533848628E+00 -3.032673431E+01  3.203524223E+01  1.581489940E-06  0.00000E+00  9.000E+00
      21     1     1     2   511   516  5.861187055E+00  9.987739289E+00  2.359844080E+02  2.362683840E+02  2.697398305E-06  0.00000E+00  9.000E+00
       2     1     1     2   516     0  4.145088093E+00 -7.453890661E+00  3.125089976E+02  3.126255343E+02  3.300000131E-01  0.00000E+00  9.000E+00
</event>
<event>
      5  10001  2.40292E+09  6.09860E+00 -1.00000E+00  2.24300E-01
      21    -1     0     0   512   511  0.000000000E+00  0.000000000E+00  6.135963859E+01  6.135963859E+01  0.000000000E+00  0.00000E+00  9.000E+00
      21    -1     0     0   517   514  0.000000000E+00  0.000000000E+00 -7.545958281E+00  7.545958281E+00  0.000000000E+00  0.00000E+00  9.000E+00
      21     1     1     2   512   514 -1.532382585E+01  6.273604719E+00  6.381086906E+00  1.774530994E+01  4.042583694E-07  0.00000E+00  9.000E+00
      21     1     1     2   513   511  8.892622815E+00 -6.556292795E+00  3.909851032E+01  4.062951175E+01  6.743495762E-07  0.00000E+00  9.000E+00
      21     1     1     2   517   513  6.431203035E+00  2.826880753E-01  8.334083076E+00  1.053077517E+01  0.000000000E+00  0.00000E+00  9.000E+00
</event>
<event>
      5  10001  2.40292E+09  7.13489E+00 -1.00000E+00  2.14318E-01
      21    -1     0     0   515   511  0.000000000E+00  0.000000000E+00  2.174970959E+00  2.174970959E+00  0.000000000E+00  0.00000E+00  9.000E+00
       2    -1     0     0   513     0  0.000000000E+00  0.000000000E+00 -3.133131077E+02  3.133131077E+02  0.000000000E+00  0.00000E+00  9.000E+00
      21     1     1     2   513   511 -1.035773147E+01 -2.999495783E-01 -1.097661038E+01  1.509498415E+01  2.920019320E-07  0.00000E+00  9.000E+00
      21     1     1     2   515   512  6.329277144E+00  7.388845397E-01 -1.075158690E+02  1.077045393E+02  1.907348633E-06  0.00000E+00  9.000E+00
       2     1     1     2   512     0  4.028454330E+00 -4.389349614E-01 -1.926456573E+02  1.926885552E+02  3.300000131E-01  0.00000E+00  9.000E+00
</event>
<event>
      5  10001  2.40292E+09  1.12378E+01 -1.00000E+00  1.90020E-01
      -3    -1     0     0     0   514  0.000000000E+00  0.000000000E+00  2.821456843E+02  2.821456843E+02  0.000000000E+00  0.00000E+00  9.000E+00
      -2    -1     0     0     0   516  0.000000000E+00  0.000000000E+00 -4.392690995E+01  4.392690995E+01  0.000000000E+00  0.00000E+00  9.000E+00
      -3     1     1     2     0   512 -1.470922749E+01 -8.878997709E+00  2.609274766E+02  2.614930133E+02  5.000000000E-01  0.00000E+00  9.000E+00
      21     1     1     2   512   516  1.058861298E+01 -1.576004337E+00  1.876783778E+01  2.160634743E+01  1.390207266E-06  0.00000E+00  9.000E+00
      -2     1     1     2     0   514  4.120614510E+00  1.045500205E+01 -4.147653998E+01  4.297323353E+01  3.300000131E-01  0.00000E+00  9.000E+00
</event>
<event>
      5  10001  2.40292E+09  7.08224E+00 -1.00000E+00  2.14768E-01
      21    -1     0     0   511   512  0.000000000E+00  0.000000000E+00  1.231728814E+01  1.231728814E+01  0.000000000E+00  0.00000E+00  9.000E+00
      21    -1     0     0   514   513  0.000000000E+00  0.000000000E+00 -2.125422030E+01  2.125422030E+01  0.000000000E+00  0.00000E+00  9.000E+00
      21     1     1     2   511   513  7.582360887E+00 -5.217943467E+00 -1.590009896E+01  1.837205153E+01  1.685873940E-07  0.00000E+00  9.000E+00
      -3     1     1     2     0   512 -3.886422426E+00  4.841426322E-01  8.151089432E+00  9.056982516E+00  5.000000000E-01  0.00000E+00  9.000E+00
       3     1     1     2   514     0 -3.695938461E+00  4.733800835E+00 -1.187922640E+00  6.142474392E+00  5.000000000E-01  0.00000E+00  9.000E+00
</event>
<event>
      5  10001  2.40292E+09  5.48684E+00 -1.00000E+00  2.31593E-01
      21    -1     0     0   515   511  0.000000000E+00  0.000000000E+00  2.450308060E+02  2.450308060E+02  0.000000000E+00  0.00000E+00  9.000E+00
      21    -1     0     0   514   516  0.000000000E+00  0.000000000E+00 -4.262274632E+00  4.262274632E+00  0.000000000E+00  0.00000E+00  9.000E+00
      21     1     1     2   515   516 -1.335504709E+01 -3.325246223E+00  1.134730969E+02  1.143046730E+02  1.348699152E-06  0.00000E+00  9.000E+00
      21     1     1     2   514   513  8.417985016E+00  9.313407970E-01  9.483916829E-01  8.522283390E+00  1.490116119E-07  0.00000E+00  9.000E+00
      21     1     1     2   513   511  4.937062074E+00  2.393905426E+00  1.263470428E+02  1.264661242E+02  2.336015456E-06  0.00000E+00  9.000E+00
</event>
<event>
      5  10001  2.40292E+09  8.54157E+00 -1.00000E+00  2.03956E-01
      21    -1     0     0   513   511  0.000000000E+00  0.000000000E+00  4.529157239E+01  4.529157239E+01  0.000000000E+00  0.00000E+00  9.000E+00
      -1    -1     0     0     0   512  0.000000000E+00  0.000000000E+00 -9.834083905E+00  9.834083905E+00  0.000000000E+00  0.00000E+00  9.000E+00
      -1     1     1     2     0   514  1.155501989E+00 -8.856677986E+00 -4.057596630E+00  9.815748582E+00  3.300000131E-01  0.00000E+00  9.000E+00
      21     1     1     2   513   512  4.979956274E+00  7.975732499E+00  3.769469866E+01  3.884974364E+01  4.768371582E-07  0.00000E+00  9.000E+00
      21     1     1     2   514   511 -6.135458263E+00  8.809454876E-01  1.820386450E+00  6.460164075E+00  8.688795410E-08  0.00000E+00  9.000E+00
</event>
<event>
      5  10001  2.40292E+09  6.86281E+00 -1.00000E+00  2.16704E-01
      21    -1     0     0   514   511  0.000000000E+00  0.000000000E+00  8.397115852E+00  8.397115852E+00  0.000000000E+00  0.00000E+00  9.000E+00
       1    -1     0     0   512     0  0.000000000E+00  0.000000000E+00 -3.265195596E+02  3.265195596E+02  0.000000000E+00  0.00000E+00  9.000E+00
      21     1     1     2   514   515 -1.528799931E+01 -9.452697291E+00 -3.345813740E+00  1.828307629E+01  6.570043470E-07  0.00000E+00  9.000E+00
       1     1     1     2   515     0  1.581498013E+01  1.629511833E+01 -1.495512421E+02  1.512657509E+02  3.300000131E-01  0.00000E+00  9.000E+00
      21     1     1     2   512   511 -5.269808224E-01 -6.842421042E+00 -1.652253879E+02  1.653678483E+02  2.697398305E-06  0.00000E+00  9.000E+00
</event>
<event>
      5  10001  2.40292E+09  1.00287E+01 -1.00000E+00  1.95555E-01
      21    -1     0     0   513   516  0.000000000E+00  0.000000000E+00  1.265402356E+01  1.265402356E+01  0.000000000E+00  0.00000E+00  9.000E+00
      21    -1     0     0   511   513  0.000000000E+00  0.000000000E+00 -7.600347342E+01  7.600347342E+01  0.000000000E+00  0.00000E+00  9.000E+00
      21     1     1     2   512   516  5.923920028E+00  2.697657913E+01 -1.349995092E+01  3.074210996E+01  6.743495762E-07  0.00000E+00  9.000E+00
      21     1     1     2   511   514 -7.930193921E+00 -1.357753718E+01 -2.330732356E+01  2.811527739E+01  0.000000000E+00  0.00000E+00  9.000E+00
      21     1     1     2   514   512  2.006273892E+00 -1.339904194E+01 -2.654217539E+01  2.980010963E+01  3.371747881E-07  0.00000E+00  9.000E+00
</event>
<event>
      5  10001  2.40292E+09  7.11252E+00 -1.00000E+00  2.14509E-01
      21    -1     0     0   513   511  0.000000000E+00  0.000000000E+00  2.868421295E+02  2.868421295E+02  0.000000000E+00  0.00000E+00  9.000E+00
      21    -1     0     0   516   512  0.000000000E+00  0.000000000E+00 -3.453653077E+00  3.453653077E+00  0.000000000E+00  0.00000E+00  9.000E+00
      21     1     1     2   515   512  7.241441647E+00  7.374022180E+00  3.426553375E+01  3.579024285E+01  9.536743164E-07  0.00000E+00  9.000E+00
      21     1     1     2   516   511 -1.366649033E+01 -4.323324622E+00  1.684310274E+01  2.211683078E+01  5.331201500E-07  0.00000E+00  9.000E+00
      21     1     1     2   513   515  6.425048684E+00 -3.050697558E+00  2.322798399E+02  2.323887089E+02  0.000000000E+00  0.00000E+00  9.000E+00
</event>
<event>
      5  10001  2.40292E+09  2.53328E+00 -1.00000E+00  3.20927E-01
      21    -1     0     0   514   512  0.000000000E+00  0.000000000E+00  1.783819463E+00  1.783819463E+00  0.000000000E+00  0.00000E+00  9.000E+00
      21    -1     0     0   517   515  0.000000000E+00  0.000000000E+00 -8.565660831E+01  8.565660831E+01  0.000000000E+00  0.00000E+00  9.000E+00
      21     1     1     2   514   515 -4.328624519E+00 -1.102377780E+01 -3.019754988E+01  3.243690315E+01  3.371747881E-07  0.00000E+00  9.000E+00
      -3     1     1     2     0   512  2.032088014E+00  3.096246480E+00 -1.771497183E+01  1.810487091E+01  5.000000000E-01  0.00000E+00  9.000E+00
       3     1     1     2   517     0  2.296536505E+00  7.927531320E+00 -3.596026715E+01  3.689865371E+01  5.000000000E-01  0.00000E+00  9.000E+00
</event>
<event>
      5  10001  2.40292E+09  1.53509E+01 -1.00000E+00  1.76396E-01
      21    -1     0     0   511   515  0.000000000E+00  0.000000000E+00  3.931976429E+01  3.931976429E+01  0.000000000E+00  0.00000E+00  9.000E+00
      21    -1     0     0   516   513  0.000000000E+00  0.000000000E+00 -5.750824026E+00  5.750824026E+00  0.000000000E+00  0.00000E+00  9.000E+00
      21     1     1     2   511   513 -8.965246202E+00  7.895976515E+00  1.144804645E+01  1.654629421E+01  2.920019320E-07  0.00000E+00  9.000E+00
      21     1     1     2   516   512  2.607169538E+00 -4.491224859E+00 -6.708205014E-02  5.193547317E+00  8.097687781E-08  0.00000E+00  9.000E+00
      21     1     1     2   512   515  6.358076664E+00 -3.404751656E+00  2.218797586E+01  2.333074679E+01  0.000000000E+00  0.00000E+00  9.000E+00
</event>
<event>
      5  10001  2.40292E+09  4.98807E+00 -1.00000E+00  2.42660E-01
      21    -1     0     0   512   514  0.000000000E+00  0.000000000E+00  5.467390089E-01  5.467390089E-01  0.000000000E+00  0.00000E+00  9.000E+00
       2    -1     0     0   515     0  0.000000000E+00  0.000000000E+00 -9.265371471E+02  9.265371471E+02  0.000000000E+00  0.00000E+00  9.000E+00
      21     1     1     2   515   511  7.242041556E+00 -7.147248973E+00 -7.635525908E+01  7.703022734E+01  2.132480600E-06  0.00000E+00  9.000E+00
       2     1     1     2   512     0 -6.848959845E+00  1.330921041E+01 -7.804344590E+02  7.805780532E+02  3.300000131E-01  0.00000E+00  9.000E+00
      21     1     1     2   511   514 -3.930817111E-01 -6.161961435E+00 -6.920068998E+01  6.947560562E+01  9.536743164E-07  0.00000E+00  9.000E+00
</event>
<event>
      5  10001  2.40292E+09  3.79139E+00 -1.00000E+00  2.68961E-01
      21    -1     0     0   513   515  0.000000000E+00  0.000000000E+00  1.622281844E+02  1.622281844E+02  0.000000000E+00  0.00000E+00  9.000E+00
      21    -1     0     0   512   514  0.000000000E+00  0.000000000E+00 -1.291139878E+01  1.291139878E+01  0.000000000E+00  0.00000E+00  9.000E+00
      21     1     1     2   513   514  8.568854842E+00 -2.568550941E+00  1.334211922E+02  1.337207435E+02  3.303624740E-06  0.00000E+00  9.000E+00
      21     1     1     2   511   515 -1.046173568E+01  5.853609567E+00  2.707701348E+01  2.961211437E+01  3.371747881E-07  0.00000E+00  9.000E+00
      21     1     1     2   512   511  1.892880837E+00 -3.285058626E+00 -1.118142004E+01  1.180672529E+01  3.769728732E-07  0.00000E+00  9.000E+00
</event>
<event>
      5  10001  2.40292E+09  2.00754E+01 -1.00000E+00  1.66193E-01
      21    -1     0     0   516   511  0.000000000E+00  0.000000000E+00  2.337304856E+01  2.337304856E+01  0.000000000E+00  0.00000E+00  9.000E+00
      21    -1     0     0   512   517  0.000000000E+00  0.000000000E+00 -9.781011091E+00  9.781011091E+00  0.000000000E+00  0.00000E+00  9.000E+00
      21     1     1     2   516   517  2.252222567E+00  6.323170759E+00 -2.564991314E+00  7.185692408E+00  1.908279728E-07  0.00000E+00  9.000E+00
      21     1     1     2   513   511 -6.190432246E+00 -6.757396602E+00 -1.716451407E-01  9.165878151E+00  1.654192495E-07  0.00000E+00  9.000E+00
      21     1     1     2   512   513  3.938209678E+00  4.342258426E-01  1.632867393E+01  1.680248909E+01  2.384185791E-07  0.00000E+00  9.000E+00
</event>
<event>
      5  10001  2.40292E+09  1.18159E+01 -1.00000E+00  1.87683E-01
      21    -1     0     0   514   511  0.000000000E+00  0.000000000E+00  6.047692462E+01  6.047692462E+01  0.000000000E+00  0.00000E+00  9.000E+00
      21    -1     0     0   515   514  0.000000000E+00  0.000000000E+00 -5.455507017E+01  5.455507017E+01  0.000000000E+00  0.00000E+00  9.000E+00
      21     1     1     2   513   511 -9.203437046E+00  1.417347241E+01  5.648961741E+01  5.896327204E+01  6.743495762E-07  0.00000E+00  9.000E+00
      21     1     1     2   512   513 -2.045305078E+00 -1.055675896E+01 -1.408663465E+01  1.772178626E+01  2.920019320E-07  0.00000E+00  9.000E+00
      21     1     1     2   515   512  1.124874212E+01 -3.616713447E+00 -3.648112831E+01  3.834693650E+01  4.768371582E-07  0.00000E+00  9.000E+00
</event>
<event>
      5  10001  2.40292E+09  2.81063E+00 -1.00000E+00  3.05586E-01
      21    -1     0     0   516   511  0.000000000E+00  0.000000000E+00  2.081638985E+01  2.081638985E+01  0.000000000E+00  0.00000E+00  9.000E+00
      21    -1     0     0   513   516  0.000000000E+00  0.000000000E+00 -2.768700546E+01  2.768700546E+01  0.000000000E+00  0.00000E+00  9.000E+00
      21     1     1     2   515   517  1.153521073E+01  1.495522644E-01 -1.461218167E+01  1.861717770E+01  2.384185791E-07  0.00000E+00  9.000E+00
      21     1     1     2   517   511 -8.809263979E+00 -8.342705902E-01  1.756535511E+01  1.966826986E+01  0.000000000E+00  0.00000E+00  9.000E+00
      21     1     1     2   513   515 -2.725946749E+00  6.847183259E-01 -9.823789047E+00  1.021794774E+01  1.192092896E-07  0.00000E+00  9.000E+00
</event>
<event>
      5  10001  2.40292E+09  1.98216E+01 -1.00000E+00  1.66649E-01
      21    -1     0     0   512   515  0.000000000E+00  0.000000000E+00  7.295035953E+00  7.295035953E+00  0.000000000E+00  0.00000E+00  9.000E+00
      21    -1     0     0   513   514  0.000000000E+00  0.000000000E+00 -3.826504313E+01  3.826504313E+01  0.000000000E+00  0.00000E+00  9.000E+00
      21     1     1     2   512   514  6.216857651E+00  3.898680616E+00 -2.462234097E+01  2.569258073E+01  0.000000000E+00  0.00000E+00  9.000E+00
      21     1     1     2   513   511  8.151737055E-01 -9.034201448E+00 -6.498606161E+00  1.115854767E+01  0.000000000E+00  0.00000E+00  9.000E+00
      21     1     1     2   511   515 -7.032031356E+00  5.135520833E+00  1.509399563E-01  8.708950688E+00  9.071674691E-08  0.00000E+00  9.000E+00
</event>
<event>
      5  10001  2.40292E+09  9.83913E+00 -1.00000E+00  1.96516E-01
      21    -1     0     0   512   513  0.000000000E+00  0.000000000E+00  3.176700569E+01  3.176700569E+01  0.000000000E+00  0.00000E+00  9.000E+00
      21    -1     0     0   515   516  0.000000000E+00  0.000000000E+00 -5.757567936E+01  5.757567936E+01  0.000000000E+00  0.00000E+00  9.000E+00
      21     1     1     2   515   517 -1.626233310E+01  1.387987306E+01 -5.042779803E+01  5.477296020E+01  1.168007728E-06  0.00000E+00  9.000E+00
      21     1     1     2   517   513  6.479547907E+00 -1.282842419E+01  1.577161329E+01  2.133768483E+01  4.460403188E-07  0.00000E+00  9.000E+00
      21     1     1     2   512   516  9.782785190E+00 -1.051448873E+00  8.847511071E+00  1.323204001E+01  2.665600750E-07  0.00000E+00  9.000E+00
</event>
<event>
      5  10001  2.40292E+09  2.29635E+01 -1.00000E+00  1.61526E-01
       1    -1     0     0   514     0  0.000000000E+00  0.000000000E+00  1.518499967E+01  1.518499967E+01  0.000000000E+00  0.00000E+00  9.000E+00
      21    -1     0     0   511   512  0.000000000E+00  0.000000000E+00 -1.613605670E+01  1.613605670E+01  0.000000000E+00  0.00000E+00  9.000E+00
      21     1     1     2   514   512  3.966349901E+00 -2.811224325E+00 -3.202908005E+00  5.821815304E+00  1.576990671E-07  0.00000E+00  9.000E+00
       1     1     1     2   513     0  2.041953814E+00  4.234583747E+00  1.259800616E+01  1.345064809E+01  3.300000131E-01  0.00000E+00  9.000E+00
      21     1     1     2   511   513 -6.008303715E+00 -1.423359422E+00 -1.034615519E+01  1.204859298E+01  1.685873940E-07  0.00000E+00  9.000E+00
</event>
<event>
      5  10001  2.40292E+09  4.60324E+00 -1.00000E+00  2.49781E-01
       1    -1     0     0   511     0  0.000000000E+00  0.000000000E+00  2.049469848E+00  2.049469848E+00  0.000000000E+00  0.00000E+00  9.000E+00
      -2    -1     0     0     0   515  0.000000000E+00  0.000000000E+00 -3.402312595E+02  3.402312595E+02  0.000000000E+00  0.00000E+00  9.000E+00
      -2     1     1     2     0   513  1.434170005E+01  1.651165539E+00 -2.470748672E+02  2.474964841E+02  3.300000131E-01  0.00000E+00  9.000E+00
      21     1     1     2   511   515 -1.826852905E+01  7.496847878E-01 -8.591110435E+01  8.783518106E+01  1.348699152E-06  0.00000E+00  9.000E+00
       1     1     1     2   513     0  3.926828998E+00 -2.400850327E+00 -5.195818106E+00  6.949064259E+00  3.300000131E-01  0.00000E+00  9.000E+00
</event>
<event>
      5  10001  2.40292E+09  3.48845E+00 -1.00000E+00  2.78186E-01
      21    -1     0     0   512   514  0.000000000E+00  0.000000000E+00  9.108942194E+00  9.108942194E+00  0.000000000E+00  0.00000E+00  9.000E+00
       1    -1     0     0   511     0  0.000000000E+00  0.000000000E+00 -2.390356487E+01  2.390356487E+01  0.000000000E+00  0.00000E+00  9.000E+00
      21     1     1     2   511   514  2.829415320E+00  1.033504846E+01  3.102447121E+00  1.115544691E+01  2.528810911E-07  0.00000E+00  9.000E+00
       1     1     1     2   515     0 -1.216599853E+00 -7.317320523E+00 -1.662289182E+01  1.820584322E+01  3.300000131E-01  0.00000E+00  9.000E+00
      21     1     1     2   512   515 -1.612815467E+00 -3.017727934E+00 -1.274177985E+00  3.651216941E+00  9.064022497E-08  0.00000E+00  9.000E+00
</event>
<event>
      5  10001  2.40292E+09  8.03171E+00 -1.00000E+00  2.07380E-01
      -4    -1     0     0     0   514  0.000000000E+00  0.000000000E+00  5.725882358E+00  5.725882358E+00  0.000000000E+00  0.00000E+00  9.000E+00
      21    -1     0     0   513   512  0.000000000E+00  0.000000000E+00 -4.495490369E+02  4.495490369E+02  0.000000000E+00  0.00000E+00  9.000E+00
      -4     1     1     2     0   511 -2.045078483E+01 -1.919541257E+01 -4.141929205E+01  5.004504189E+01  1.500000000E+00  0.00000E+00  9.000E+00
      21     1     1     2   511   512  1.259766844E+01  1.752091275E+01 -3.890484082E+02  3.896464392E+02  0.000000000E+00  0.00000E+00  9.000E+00
      21     1     1     2   513   514  7.853116385E+00  1.674499814E+00 -1.335545424E+01  1.558343815E+01  2.920019320E-07  0.00000E+00  9.000E+00
</event>
<event>
      5  10001  2.40292E+09  2.24688E+01 -1.00000E+00  1.62264E-01
      21    -1     0     0   515   511  0.000000000E+00  0.000000000E+00  3.951605903E+02  3.951605903E+02  0.000000000E+00  0.00000E+00  9.000E+00
      21    -1     0     0   513   514  0.000000000E+00  0.000000000E+00 -2.741196221E+00  2.741196221E+00  0.000000000E+00  0.00000E+00  9.000E+00
      21     1     1     2   515   514  1.338102664E+01 -2.283682496E+01  1.705032328E+02  1.725454283E+02  0.000000000E+00  0.00000E+00  9.000E+00
      21     1     1     2   512   511  9.887553741E-02  2.315578202E+01  9.751629965E+01  1.002278839E+02  0.000000000E+00  0.00000E+00  9.000E+00
      21     1     1     2   513   512 -1.347990218E+01 -3.189570640E-01  1.243998616E+02  1.251284743E+02  1.348699152E-06  0.00000E+00  9.000E+00
</event>
<event>
      5  10001  2.40292E+09  5.11369E+00 -1.00000E+00  2.36736E-01
       2    -1     0     0   514     0  0.000000000E+00  0.000000000E+00  2.896010404E+02  2.896010404E+02  0.000000000E+00  0.00000E+00  9.000E+00
       3    -1     0     0   512     0  0.000000000E+00  0.000000000E+00 -6.227345193E+01  6.227345193E+01  0.000000000E+00  0.00000E+00  9.000E+00
      21     1     1     2   512   516 -3.872076914E+00  6.846669629E+00 -1.125136976E+00  7.945803789E+00  3.006196171E-07  0.00000E+00  9.000E+00
       2     1     1     2   516     0  4.736201654E+00 -1.188679517E+01  2.859329396E+02  2.862192907E+02  3.300000131E-01  0.00000E+00  9.000E+00
       3     1     1     2   514     0 -8.641247396E-01  5.040125541E+00 -5.748021418E+01  5.770939785E+01  5.000000000E-01  0.00000E+00  9.000E+00
</event>
<event>
      5  10001  2.40292E+09  7.08464E+00 -1.00000E+00  2.14748E-01
       2    -1     0     0   514     0  0.000000000E+00  0.000000000E+00  9.477468335E+00  9.477468335E+00  0.000000000E+00  0.00000E+00  9.000E+00
      21    -1     0     0   513   514  0.000000000E+00  0.000000000E+00 -2.277863236E+02  2.277863236E+02  0.000000000E+00  0.00000E+00  9.000E+00
      21     1     1     2   513   512 -9.508991741E+00 -3.656731303E+00 -1.098182509E+02  1.102898038E+02  2.336015456E-06  0.00000E+00  9.000E+00
       2     1     1     2   511     0  1.499326900E+01  1.475816515E+00  2.968324445E+00  1.535890620E+01  3.300000131E-01  0.00000E+00  9.000E+00
      21     1     1     2   512   511 -5.484277261E+00  2.180914789E+00 -1.114589289E+02  1.116150819E+02  0.000000000E+00  0.00000E+00  9.000E+00
</event>
<event>
      5  10001  2.40292E+09  4.16539E+00 -1.00000E+00  2.59287E-01
      21    -1     0     0   515   513  0.000000000E+00  0.000000000E+00  9.176254386E+01  9.176254386E+01  0.000000000E+00  0.00000E+00  9.000E+00
      21    -1     0     0   512   516  0.000000000E+00  0.000000000E+00 -1.658693545E+01  1.658693545E+01  0.000000000E+00  0.00000E+00  9.000E+00
      21     1     1     2   515   516 -2.010979866E+01 -1.048214096E+00 -7.463305022E+00  2.147565312E+01  5.840038640E-07  0.00000E+00  9.000E+00
      21     1     1     2   512   511  2.054777584E+01  5.190512821E+00  5.534685393E+01  5.926573003E+01  6.743495762E-07  0.00000E+00  9.000E+00
      21     1     1     2   511   513 -4.379771760E-01 -4.142298725E+00  2.729205949E+01  2.760809617E+01  4.768371582E-07  0.00000E+00  9.000E+00
</event>
<event>
      5  10001  2.40292E+09  1.51394E+01 -1.00000E+00  1.76959E-01
      21    -1     0     0   511   513  0.000000000E+00  0.000000000E+00  2.581771881E+02  2.581771881E+02  0.000000000E+00  0.00000E+00  9.000E+00
      21    -1     0     0   513   514  0.000000000E+00  0.000000000E+00 -5.417104651E-01  5.417104651E-01  0.000000000E+00  0.00000E+00  9.000E+00
      -1     1     1     2     0   512  5.209984225E-01 -4.514852628E+00  8.402669755E+01  8.415016419E+01  3.300000131E-01  0.00000E+00  9.000E+00
       1     1     1     2   511     0 -7.884248903E+00  3.383345950E+00  1.333755078E+02  1.336515746E+02  3.300000131E-01  0.00000E+00  9.000E+00
      21     1     1     2   512   514  7.363250481E+00  1.131506678E+00  4.023327228E+01  4.091715977E+01  6.743495762E-07  0.00000E+00  9.000E+00
</event>
<event>
      5  10001  2.40292E+09  3.18762E+00 -1.00000E+00  2.88965E-01
      21    -1     0     0   515   513  0.000000000E+00  0.000000000E+00  2.793198274E+00  2.793198274E+00  0.000000000E+00  0.00000E+00  9.000E+00
       1    -1     0     0   511     0  0.000000000E+00  0.000000000E+00 -1.873951985E+02  1.873951985E+02  0.000000000E+00  0.00000E+00  9.000E+00
      21     1     1     2   511   516 -5.444320893E+00  2.297291534E+00 -1.783583501E+00  6.172466969E+00  4.698003164E-07  0.00000E+00  9.000E+00
       1     1     1     2   515     0  8.654825575E+00 -4.732311783E+00 -1.744392671E+02  1.747182520E+02  3.300000131E-01  0.00000E+00  9.000E+00
      21     1     1     2   516   513 -3.210504682E+00  2.435020249E+00 -8.379149656E+00  9.297677822E+00  1.685873940E-07  0.00000E+00  9.000E+00
</event>
<event>
      5  10001  2.40292E+09  8.96378E+00 -1.00000E+00  2.01352E-01
      21    -1     0     0   512   514  0.000000000E+00  0.000000000E+00  3.909567356E-01  3.909567356E-01  0.000000000E+00  0.00000E+00  9.000E+00
      21    -1     0     0   511   513  0.000000000E+00  0.000000000E+00 -3.818243622E+02  3.818243622E+02  0.000000000E+00  0.00000E+00  9.000E+00
      21     1     1     2   512   513  7.669644594E+00  5.940563359E+00 -1.874838425E+02  1.877346663E+02  0.000000000E+00  0.00000E+00  9.000E+00
      21     1     1     2   511   515 -2.318112660E+00 -6.519506772E+00 -5.596271456E+01  5.638885560E+01  1.168007728E-06  0.00000E+00  9.000E+00
      21     1     1     2   515   514 -5.351531934E+00  5.789434125E-01 -1.379868484E+02  1.380917970E+02  1.907348633E-06  0.00000E+00  9.000E+00
</event>
<event>
      5  10001  2.40292E+09  6.70279E+00 -1.00000E+00  2.18178E-01
      -2    -1     0     0     0   514  0.000000000E+00  0.000000000E+00  1.853816907E+00  1.853816907E+00  0.000000000E+00  0.00000E+00  9.000E+00
       2    -1     0     0   514     0  0.000000000E+00  0.000000000E+00 -4.790142007E+02  4.790142007E+02  0.000000000E+00  0.00000E+00  9.000E+00
      -2     1     1     2     0   515 -4.594320094E+00 -1.163167349E+01 -2.451033686E+01  2.751852319E+01  3.300000131E-01  0.00000E+00  9.000E+00
      21     1     1     2   515   512 -2.032385013E+00  1.062794446E+01 -9.156969061E+01  9.220678950E+01  1.348699152E-06  0.00000E+00  9.000E+00
       2     1     1     2   512     0  6.626705107E+00  1.003729034E+00 -3.610803563E+02  3.611427049E+02  3.300000131E-01  0.00000E+00  9.000E+00
</event>
<event>
      5  10001  2.40292E+09  5.35312E+00 -1.00000E+00  2.33368E-01
       1    -1     0     0   513     0  0.000000000E+00  0.000000000E+00  2.377548088E+02  2.377548088E+02  0.000000000E+00  0.00000E+00  9.000E+00
      -3    -1     0     0     0   511  0.000000000E+00  0.000000000E+00 -1.594437494E+01  1.594437494E+01  0.000000000E+00  0.00000E+00  9.000E+00
      -3     1     1     2     0   512  1.091981795E+01  1.679099662E+01 -8.334132603E+00  2.169994834E+01  5.000000000E-01  0.00000E+00  9.000E+00
       1     1     1     2   512     0 -9.444254973E+00 -2.193658897E+01  1.832335108E+02  1.847837554E+02  3.300000131E-01  0.00000E+00  9.000E+00
      21     1     1     2   513   511 -1.475562976E+00  5.145592342E+00  4.691105569E+01  4.721548001E+01  6.743495762E-07  0.00000E+00  9.000E+00
</event>
<event>
      5  10001  2.40292E+09  1.19948E+01 -1.00000E+00  1.86995E-01
      21    -1     0     0   514   516  0.000000000E+00  0.000000000E+00  3.081804623E+01  3.081804623E+01  0.000000000E+00  0.00000E+00  9.000E+00
      21    -1     0     0   512   514  0.000000000E+00  0.000000000E+00 -5.844886995E+01  5.844886995E+01  0.000000000E+00  0.00000E+00  9.000E+00
      21     1     1     2   511   516  1.335093915E+01  1.150227598E+01  2.086842980E+01  2.731375644E+01  0.000000000E+00  0.00000E+00  9.000E+00
      21     1     1     2   515   511 -1.193550251E+01  4.087442467E-01  5.153597217E-02  1.194261060E+01  7.806738917E-08  0.00000E+00  9.000E+00
      21     1     1     2   512   515 -1.415436638E+00 -1.191102022E+01 -4.855078949E+01  5.001054913E+01  6.743495762E-07  0.00000E+00  9.000E+00
</event>
<event>
      5  10001  2.40292E+09  5.71578E+00 -1.00000E+00  2.28715E-01
      21    -1     0     0   513   515  0.000000000E+00  0.000000000E+00  3.887647205E+01  3.887647205E+01  0.000000000E+00  0.00000E+00  9.000E+00
      21    -1     0     0   512   511  0.000000000E+00  0.000000000E+00 -9.989719130E+01  9.989719130E+01  0.000000000E+00  0.00000E+00  9.000E+00
      21     1     1     2   513   517  8.032125745E+00  4.527395844E+00  3.445459919E+01  3.566695617E+01  0.000000000E+00  0.00000E+00  9.000E+00
      21     1     1     2   512   515 -1.341770391E+01 -6.441997376E+00 -1.117344327E+01  1.861128537E+01  2.665600750E-07  0.00000E+00  9.000E+00
      21     1     1     2   517   511  5.385578165E+00  1.914601532E+00 -8.430187516E+01  8.449542181E+01  1.348699152E-06  0.00000E+00  9.000E+00
</event>
<event>
      5  10001  2.40292E+09  9.99758E+00 -1.00000E+00  1.95711E-01
      -1    -1     0     0     0   514  0.000000000E+00  0.000000000E+00  1.310291376E+02  1.310291376E+02  0.000000000E+00  0.00000E+00  9.000E+00
      21    -1     0     0   513   511  0.000000000E+00  0.000000000E+00 -1.791778701E+00  1.791778701E+00  0.000000000E+00  0.00000E+00  9.000E+00
      -1     1     1     2     0   511 -1.031410456E+01 -3.146653161E+00  9.927807858E+01  9.986254536E+01  3.300000131E-01  0.00000E+00  9.000E+00
      21     1     1     2   512   514  2.384820819E+00  5.031563128E+00  1.133261770E+01  1.262664729E+01  1.685873940E-07  0.00000E+00  9.000E+00
      21     1     1     2   513   512  7.929283741E+00 -1.884909967E+00  1.862666257E+01  2.033172360E+01  3.371747881E-07  0.00000E+00  9.000E+00
</event>
<event>
      5  10001  2.40292E+09  1.67904E+01 -1.00000E+00  1.72846E-01
      21    -1     0     0   515   511  0.000000000E+00  0.000000000E+00  8.608897289E-01  8.608897289E-01  0.000000000E+00  0.00000E+00  9.000E+00
      21    -1     0     0   513   516  0.000000000E+00  0.000000000E+00 -2.264731540E+02  2.264731540E+02  0.000000000E+00  0.00000E+00  9.000E+00
      21     1     1     2   515   516 -5.484200887E+00 -9.088384071E+00 -1.030768477E+02  1.036219654E+02  1.907348633E-06  0.00000E+00  9.000E+00
      21     1     1     2   514   511  3.038829542E-01  3.708793592E+00 -9.787207400E+01  9.794279128E+01  1.907348633E-06  0.00000E+00  9.000E+00
      21     1     1     2   513   514  5.180317932E+00  5.379590480E+00 -2.466334262E+01  2.576928709E+01  4.768371582E-07  0.00000E+00  9.000E+00
</event>
<event>
      5  10001  2.40292E+09  6.04232E+00 -1.00000E+00  2.24921E-01
      -5    -1     0     0     0   512  0.000000000E+00  0.000000000E+00  1.680380532E+01  1.680380532E+01  0.000000000E+00  0.00000E+00  9.000E+00
      21    -1     0     0   512   515  0.000000000E+00  0.000000000E+00 -1.752785380E+01  1.752785380E+01  0.000000000E+00  0.00000E+00  9.000E+00
      -5     1     1     2     0   511 -1.069028487E+01 -4.209409873E-01  1.189200613E+01  1.670087404E+01  4.800000191E+00  0.00000E+00  9.000E+00
      21     1     1     2   511   516  3.233706544E+00  1.349587966E-01 -8.529720451E+00  9.123113661E+00  2.064765462E-07  0.00000E+00  9.000E+00
      21     1     1     2   516   515  7.456578323E+00  2.859821907E-01 -4.086334161E+00  8.507671419E+00  5.960464478E-08  0.00000E+00  9.000E+00
</event>
<event>
      5  10001  2.40292E+09  6.34153E+00 -1.00000E+00  2.21726E-01
       2    -1     0     0   511     0  0.000000000E+00  0.000000000E+00  1.013250371E+03  1.013250371E+03  0.000000000E+00  0.00000E+00  9.000E+00
      -3    -1     0     0     0   514  0.000000000E+00  0.000000000E+00 -3.780210621E+00  3.780210621E+00  0.000000000E+00  0.00000E+00  9.000E+00
      21     1     1     2   511   514 -7.281093182E+00  3.899927598E+00  8.749196795E+01  8.788098889E+01  6.397441800E-06  0.00000E+00  9.000E+00
       2     1     1     2   513     0  1.322146428E+01 -6.119151994E+00  9.226392129E+02  9.227542886E+02  3.300000131E-01  0.00000E+00  9.000E+00
      -3     1     1     2     0   513 -5.940371094E+00  2.219224395E+00 -6.610205083E-01  6.395304040E+00  5.000000000E-01  0.00000E+00  9.000E+00
</event>
<event>
      5  10001  2.40292E+09  2.18296E+01 -1.00000E+00  1.63252E-01
      21    -1     0     0   511   513  0.000000000E+00  0.000000000E+00  9.845711147E+01  9.845711147E+01  0.000000000E+00  0.00000E+00  9.000E+00
      21    -1     0     0   516   515  0.000000000E+00  0.000000000E+00 -9.095215414E+01  9.095215414E+01  0.000000000E+00  0.00000E+00  9.000E+00
      21     1     1     2   512   515 -1.816951136E+00 -1.175647119E+01 -1.986301634E+01  2.315286904E+01  4.768371582E-07  0.00000E+00  9.000E+00
      21     1     1     2   516   513 -1.769830907E+01  2.153847483E+01 -6.532660194E+01  7.102605833E+01  9.536743164E-07  0.00000E+00  9.000E+00
      21     1     1     2   511   512  1.951526021E+01 -9.782003632E+00  9.269457560E+01  9.523033824E+01  1.348699152E-06  0.00000E+00  9.000E+00
</event>
<event>
      5  10001  2.40292E+09  1.26931E+01 -1.00000E+00  1.84448E-01
      21    -1     0     0   514   515  0.000000000E+00  0.000000000E+00  2.842492348E+01  2.842492348E+01  0.000000000E+00  0.00000E+00  9.000E+00
       2    -1     0     0   517     0  0.000000000E+00  0.000000000E+00 -2.830480971E+02  2.830480971E+02  0.000000000E+00  0.00000E+00  9.000E+00
      21     1     1     2   514   512 -8.193941221E+00 -2.713640992E-01 -4.533020842E+00  9.368168933E+00  2.980232239E-07  0.00000E+00  9.000E+00
      21     1     1     2   517   515  1.846507947E+01  7.729032296E+00  2.198546754E+01  2.973311089E+01  0.000000000E+00  0.00000E+00  9.000E+00
       2     1     1     2   512     0 -1.027113825E+01 -7.457668197E+00 -2.720756203E+02  2.723717408E+02  3.300000131E-01  0.00000E+00  9.000E+00
</event>
<event>
      5  10001  2.40292E+09  8.86258E+00 -1.00000E+00  2.01959E-01
      -2    -1     0     0     0   515  0.000000000E+00  0.000000000E+00  1.410097702E+02  1.410097702E+02  0.000000000E+00  0.00000E+00  9.000E+00
      21    -1     0     0   513   514  0.000000000E+00  0.000000000E+00 -2.668313142E+01  2.668313142E+01  0.000000000E+00  0.00000E+00  9.000E+00
      -2     1     1     2     0   514  1.243977003E+01  1.150194046E+01  1.289790509E+02  1.300874590E+02  3.300000131E-01  0.00000E+00  9.000E+00
      21     1     1     2   513   511 -8.057965507E+00 -3.798443447E+00 -2.346994102E+01  2.510372706E+01  9.536743164E-07  0.00000E+00  9.000E+00
      21     1     1     2   511   515 -4.381804527E+00 -7.703497017E+00  8.817528973E+00  1.250171566E+01  0.000000000E+00  0.00000E+00  9.000E+00
</event>
<event>
      5  10001  2.40292E+09  3.51672E+00 -1.00000E+00  2.77262E-01
      -4    -1     0     0     0   513  0.000000000E+00  0.000000000E+00  7.946697609E+01  7.946697609E+01  0.000000000E+00  0.00000E+00  9.000E+00
      21    -1     0     0   512   515  0.000000000E+00  0.000000000E+00 -3.957882960E+00  3.957882960E+00  0.000000000E+00  0.00000E+00  9.000E+00
      -4     1     1     2     0   511 -7.589483090E+00 -6.372809529E+00  3.446262269E+01  3.589060208E+01  1.500000000E+00  0.00000E+00  9.000E+00
      21     1     1     2   511   515  1.048956475E+01  4.401608633E+00  7.105072994E+00  1.341220300E+01  2.528810911E-07  0.00000E+00  9.000E+00
      21     1     1     2   512   513 -2.900081655E+00  1.971200896E+00  3.394139745E+01  3.412205397E+01  6.743495762E-07  0.00000E+00  9.000E+00
</event>
<event>
      5  10001  2.40292E+09  5.54564E+00 -1.00000E+00  2.30835E-01
      21    -1     0     0   514   515  0.000000000E+00  0.000000000E+00  5.486998548E+01  5.486998548E+01  0.000000000E+00  0.00000E+00  9.000E+00
      21    -1     0     0   512   513  0.000000000E+00  0.000000000E+00 -1.294324364E+01  1.294324364E+01  0.000000000E+00  0.00000E+00  9.000E+00
      21     1     1     2   514   513  7.098276324E+00  1.487229034E+01 -1.614275921E+00  1.655827387E+01  3.570064470E-07  0.00000E+00  9.000E+00
      21     1     1     2   512   511 -4.015459378E+00 -1.026247406E+01  4.634099468E+00  1.195479676E+01  1.332800375E-07  0.00000E+00  9.000E+00
      21     1     1     2   511   515 -3.082816946E+00 -4.609816281E+00  3.890691829E+01  3.930015849E+01  0.000000000E+00  0.00000E+00  9.000E+00
</event>
<event>
      5  10001  2.40292E+09  6.62498E+00 -1.00000E+00  2.18916E-01
      21    -1     0     0   516   515  0.000000000E+00  0.000000000E+00  8.219903996E+01  8.219903996E+01  0.000000000E+00  0.00000E+00  9.000E+00
      -2    -1     0     0     0   512  0.000000000E+00  0.000000000E+00 -6.191299247E+00  6.191299247E+00  0.000000000E+00  0.00000E+00  9.000E+00
      -2     1     1     2     0   511 -4.007040626E+00 -6.957671659E+00  8.025254512E+00  1.135690008E+01  3.300000131E-01  0.00000E+00  9.000E+00
      21     1     1     2   511   515  2.418996807E+00  1.338856583E+01  6.900275762E+01  7.033125763E+01  9.536743164E-07  0.00000E+00  9.000E+00
      21     1     1     2   516   512  1.588043819E+00 -6.430894168E+00 -1.020271423E+00  6.702181491E+00  9.884312124E-08  0.00000E+00  9.000E+00
</event>
<event>
      5  10001  2.40292E+09  3.64236E+00 -1.00000E+00  2.73321E-01
      21    -1     0     0   513   511  0.000000000E+00  0.000000000E+00  1.085435306E+01  1.085435306E+01  0.000000000E+00  0.00000E+00  9.000E+00
      -4    -1     0     0     0   512  0.000000000E+00  0.000000000E+00 -7.681697797E+01  7.681697797E+01  0.000000000E+00  0.00000E+00  9.000E+00
      -4     1     1     2     0   514 -5.910570244E+00 -1.261428826E+01 -6.697645888E+01  6.842624609E+01  1.500000000E+00  0.00000E+00  9.000E+00
      21     1     1     2   513   512  3.134050352E+00  1.496776007E+01 -5.060597410E-01  1.530072579E+01  6.604594055E-07  0.00000E+00  9.000E+00
      21     1     1     2   514   511  2.776519892E+00 -2.353471809E+00  1.519893707E+00  3.944359155E+00  7.300048300E-08  0.00000E+00  9.000E+00
</event>
<event>
      5  10001  2.40292E+09  3.44243E+00 -1.00000E+00  2.79719E-01
       1    -1     0     0   512     0  0.000000000E+00  0.000000000E+00  4.432218981E+02  4.432218981E+02  0.000000000E+00  0.00000E+00  9.000E+00
      21    -1     0     0   516   512  0.000000000E+00  0.000000000E+00 -7.439460042E-01  7.439460042E-01  0.000000000E+00  0.00000E+00  9.000E+00
      21     1     1     2   513   515 -5.406047240E-01  9.912801228E+00  4.224956436E+01  4.340024850E+01  6.743495762E-07  0.00000E+00  9.000E+00
       1     1     1     2   515     0 -2.899711481E+00 -1.002447933E+01  3.690710842E+02  3.692187328E+02  3.300000131E-01  0.00000E+00  9.000E+00
      21     1     1     2   516   513  3.440316205E+00  1.116781022E-01  3.115730349E+01  3.134686282E+01  0.000000000E+00  0.00000E+00  9.000E+00
</event>
<event>
      5  10001  2.40292E+09  1.34162E+01 -1.00000E+00  1.82024E-01
       1    -1     0     0   512     0  0.000000000E+00  0.000000000E+00  2.477706586E+02  2.477706586E+02  0.000000000E+00  0.00000E+00  9.000E+00
       2    -1     0     0   511     0  0.000000000E+00  0.000000000E+00 -2.193762878E+00  2.193762878E+00  0.000000000E+00  0.00000E+00  9.000E+00
      21     1     1     2   511   514 -2.446808710E+00 -3.218987426E+00  3.559190130E+01  3.582083459E+01  6.743495762E-07  0.00000E+00  9.000E+00
       2     1     1     2   512     0  7.111171084E+00  8.388206553E+00  1.297987181E+01  1.701519132E+01  3.300000131E-01  0.00000E+00  9.000E+00
       1     1     1     2   514     0 -4.664362374E+00 -5.169219128E+00  1.970051227E+02  1.971283956E+02  3.300000131E-01  0.00000E+00  9.000E+00
</event>
<event>
      5  10001  2.40292E+09  6.70065E+00 -1.00000E+00  2.18199E-01
      21    -1     0     0   513   514  0.000000000E+00  0.000000000E+00  2.942102659E+01  2.942102659E+01  0.000000000E+00  0.00000E+00  9.000E+00
      21    -1     0     0   512   515  0.000000000E+00  0.000000000E+00 -4.918781600E+01  4.918781600E+01  0.000000000E+00  0.00000E+00  9.000E+00
      21     1     1     2   513   515 -9.750279096E+00  9.668202668E+00  2.531570114E+01  2.879977099E+01  9.536743164E-07  0.00000E+00  9.000E+00
      21     1     1     2   511   514  8.851176852E+00 -3.028152882E+00 -4.079561604E+01  4.185445412E+01  8.259061849E-07  0.00000E+00  9.000E+00
      21     1     1     2   512   511  8.991022447E-01 -6.640049787E+00 -4.286874506E+00  7.954617467E+00  5.960464478E-08  0.00000E+00  9.000E+00
</event>
<event>
      5  10001  2.40292E+09  1.23763E+01 -1.00000E+00  1.85577E-01
      21    -1     0     0   516   511  0.000000000E+00  0.000000000E+00  2.417623292E+00  2.417623292E+00  0.000000000E+00  0.00000E+00  9.000E+00
      21    -1     0     0   512   517  0.000000000E+00  0.000000000E+00 -9.088364214E+01  9.088364214E+01  0.000000000E+00  0.00000E+00  9.000E+00
      21     1     1     2   516   517  1.175933608E+01 -2.722294310E+00 -6.782848832E+01  6.889409771E+01  9.536743164E-07  0.00000E+00  9.000E+00
      21     1     1     2   512   513 -1.374971341E+00  1.544805166E+00 -6.534195457E+00  6.853661756E+00  8.429369702E-08  0.00000E+00  9.000E+00
      21     1     1     2   513   511 -1.038436474E+01  1.177489143E+00 -1.410333507E+01  1.755350597E+01  3.371747881E-07  0.00000E+00  9.000E+00
</event>
<event>
      5  10001  2.40292E+09  8.50315E+00 -1.00000E+00  2.04203E-01
      -1    -1     0     0     0   511  0.000000000E+00  0.000000000E+00  8.251931283E+00  8.251931283E+00  0.000000000E+00  0.00000E+00  9.000E+00
      21    -1     0     0   511   514  0.000000000E+00  0.000000000E+00 -3.558576723E+01  3.558576723E+01  0.000000000E+00  0.00000E+00  9.000E+00
      -1     1     1     2     0   512 -9.782415086E+00 -5.132262066E+00 -1.843537761E+00  1.120461023E+01  3.300000131E-01  0.00000E+00  9.000E+00
      21     1     1     2   513   514  6.510626386E+00  1.002287353E+01 -2.359821381E+01  2.645225784E+01  4.768371582E-07  0.00000E+00  9.000E+00
      21     1     1     2   512   513  3.271788699E+00 -4.890611459E+00 -1.892084370E+00  6.180830446E+00  1.519626234E-07  0.00000E+00  9.000E+00
</event>
<event>
      5  10001  2.40292E+09  6.80094E+00 -1.00000E+00  2.17267E-01
      21    -1     0     0   515   512  0.000000000E+00  0.000000000E+00  3.371531623E+01  3.371531623E+01  0.000000000E+00  0.00000E+00  9.000E+00
      21    -1     0     0   511   516  0.000000000E+00  0.000000000E+00 -5.066381327E+01  5.066381327E+01  0.000000000E+00  0.00000E+00  9.000E+00
      21     1     1     2   515   516 -1.087694612E+01  1.046781414E+01 -4.611276229E+01  4.852081961E+01  0.000000000E+00  0.00000E+00  9.000E+00
      21     1     1     2   514   512  8.343042978E+00 -4.049704931E+00  2.711972893E+01  2.866158009E+01  3.371747881E-07  0.00000E+00  9.000E+00
      21     1     1     2   511   514  2.533903143E+00 -6.418109210E+00  2.044536330E+00  7.196729797E+00  1.548574097E-07  0.00000E+00  9.000E+00
</event>
<event>
      5  10001  2.40292E+09  1.31527E+01 -1.00000E+00  1.82884E-01
      21    -1     0     0   511   512  0.000000000E+00  0.000000000E+00  5.342930759E+00  5.342930759E+00  0.000000000E+00  0.00000E+00  9.000E+00
       2    -1     0     0   513     0  0.000000000E+00  0.000000000E+00 -4.076517639E+02  4.076517639E+02  0.000000000E+00  0.00000E+00  9.000E+00
      -5     1     1     2     0   512  1.704200341E+01  8.759051233E+00 -2.608569823E+02  2.616038151E+02  4.800000191E+00  0.00000E+00  9.000E+00
       2     1     1     2   511     0 -2.500176269E+01 -2.150944300E+01 -6.041210074E+01  6.882931855E+01  3.300000131E-01  0.00000E+00  9.000E+00
       5     1     1     2   513     0  7.959759280E+00  1.275039177E+01 -8.103975012E+01  8.256156103E+01  4.800000191E+00  0.00000E+00  9.000E+00
</event>
<event>
      5  10001  2.40292E+09  5.47729E+00 -1.00000E+00  2.31718E-01
       1    -1     0     0   514     0  0.000000000E+00  0.000000000E+00  6.390144297E+01  6.390144297E+01  0.000000000E+00  0.00000E+00  9.000E+00
      -4    -1     0     0     0   514  0.000000000E+00  0.000000000E+00 -5.864204727E+00  5.864204727E+00  0.000000000E+00  0.00000E+00  9.000E+00
      -4     1     1     2     0   511 -8.792387092E+00 -3.202823818E+00  1.023015944E+00  9.532088586E+00  1.500000000E+00  0.00000E+00  9.000E+00
       1     1     1     2   513     0  1.333260762E+01  1.215385509E+00  4.911692691E+01  5.090989095E+01  3.300000131E-01  0.00000E+00  9.000E+00
      21     1     1     2   511   513 -4.540220526E+00  1.987438309E+00  7.897295398E+00  9.323668165E+00  2.064765462E-07  0.00000E+00  9.000E+00
</event>
<event>
      5  10001  2.40292E+09  1.74581E+01 -1.00000E+00  1.71347E-01
      21    -1     0     0   512   513  0.000000000E+00  0.000000000E+00  6.218757571E+01  6.218757571E+01  0.000000000E+00  0.00000E+00  9.000E+00
      21    -1     0     0   511   515  0.000000000E+00  0.000000000E+00 -2.028041774E+02  2.028041774E+02  0.000000000E+00  0.00000E+00  9.000E+00
      21     1     1     2   512   515 -1.517890180E+01 -4.033666334E+00 -2.006951264E+02  2.013087263E+02  0.000000000E+00  0.00000E+00  9.000E+00
      21     1     1     2   511   514  8.426534070E+00 -4.864367505E+00  2.342629076E+01  2.536650639E+01  1.507891493E-06  0.00000E+00  9.000E+00
      21     1     1     2   514   513  6.752367734E+00  8.898033840E+00  3.665223399E+01  3.831652037E+01  2.078484985E-06  0.00000E+00  9.000E+00
</event>
<event>
      5  10001  2.40292E+09  9.36323E+00 -1.00000E+00  1.99059E-01
       2    -1     0     0   511     0  0.000000000E+00  0.000000000E+00  1.232354949E+03  1.232354949E+03  0.000000000E+00  0.00000E+00  9.000E+00
      21    -1     0     0   514   516  0.000000000E+00  0.000000000E+00 -1.658018069E-01  1.658018069E-01  0.000000000E+00  0.00000E+00  9.000E+00
      21     1     1     2   512   516 -4.674792424E+00  4.294745301E+00  4.519760772E+02  4.520206554E+02  7.629394531E-06  0.00000E+00  9.000E+00
       2     1     1     2   514     0  8.449700981E+00 -9.667422578E+00  6.448117933E+02  6.449396981E+02  3.300000131E-01  0.00000E+00  9.000E+00
      21     1     1     2   511   512 -3.774908557E+00  5.372677278E+00  1.354012767E+02  1.355603974E+02  1.907348633E-06  0.00000E+00  9.000E+00
</event>
<event>
      5  10001  2.40292E+09  1.02794E+01 -1.00000E+00  1.94326E-01
      -3    -1     0     0     0   512  0.000000000E+00  0.000000000E+00  2.449546870E+01  2.449546870E+01  0.000000000E+00  0.00000E+00  9.000E+00
      21    -1     0     0   514   511  0.000000000E+00  0.000000000E+00 -3.606546989E+01  3.606546989E+01  0.000000000E+00  0.00000E+00  9.000E+00
      -3     1     1     2     0   513  7.494614289E+00  1.050550719E-01  1.360983632E+01  1.554535058E+01  5.000000000E-01  0.00000E+00  9.000E+00
      21     1     1     2   513   511 -1.759476389E+01  1.799756112E+00  1.421402126E-01  1.768714342E+01  3.366959744E-07  0.00000E+00  9.000E+00
      21     1     1     2   514   512  1.010014960E+01 -1.904811184E+00 -2.532197773E+01  2.732844459E+01  3.371747881E-07  0.00000E+00  9.000E+00
</event>
<event>
      5  10001  2.40292E+09  3.72800E+00 -1.00000E+00  2.70776E-01
      21    -1     0     0   515   513  0.000000000E+00  0.000000000E+00  3.778179518E+00  3.778179518E+00  0.000000000E+00  0.00000E+00  9.000E+00
      21    -1     0     0   512   511  0.000000000E+00  0.000000000E+00 -7.661969405E+01  7.661969405E+01  0.000000000E+00  0.00000E+00  9.000E+00
      21     1     1     2   512   514 -7.597094534E+00  8.716271758E+00 -2.159234347E+01  2.449323448E+01  6.307962682E-07  0.00000E+00  9.000E+00
      21     1     1     2   514   513  9.903321675E+00 -1.164532076E+01 -2.436738920E+01  2.876558590E+01  5.840038640E-07  0.00000E+00  9.000E+00
      21     1     1     2   515   511 -2.306227141E+00  2.929049004E+00 -2.688178187E+01  2.713905319E+01  4.768371582E-07  0.00000E+00  9.000E+00
</event>
<event>
      5  10001  2.40292E+09  4.89803E+00 -1.00000E+00  2.44238E-01
      21    -1     0     0   516   512  0.000000000E+00  0.000000000E+00  7.389697750E+00  7.389697750E+00  0.000000000E+00  0.00000E+00  9.000E+00
      21    -1     0     0   517   516  0.000000000E+00  0.000000000E+00 -3.344014528E+02  3.344014528E+02  0.000000000E+00  0.00000E+00  9.000E+00
      21     1     1     2   511   512 -2.201181172E+01  1.683302832E+00 -1.065144756E+01  2.451135857E+01  7.907449699E-07  0.00000E+00  9.000E+00
      21     1     1     2   513   511  1.596277470E+01  1.846768784E+00 -2.581516175E+02  2.586512678E+02  3.814697266E-06  0.00000E+00  9.000E+00
      21     1     1     2   517   513  6.049037020E+00 -3.530071616E+00 -5.820869000E+01  5.862852417E+01  1.168007728E-06  0.00000E+00  9.000E+00
</event>
<event>
      5  10001  2.40292E+09  1.11000E+01 -1.00000E+00  1.90605E-01
      21    -1     0     0   514   513  0.000000000E+00  0.000000000E+00  3.117523025E+00  3.117523025E+00  0.000000000E+00  0.00000E+00  9.000E+00
       1    -1     0     0   512     0  0.000000000E+00  0.000000000E+00 -3.735368070E+02  3.735368070E+02  0.000000000E+00  0.00000E+00  9.000E+00
      21     1     1     2   512   511  1.734181957E+01 -9.067286246E+00 -4.407410252E+01  4.822324023E+01  1.066240300E-06  0.00000E+00  9.000E+00
       1     1     1     2   514     0 -2.576238968E+01  1.146339212E+01 -2.505792975E+02  2.521610662E+02  3.300000131E-01  0.00000E+00  9.000E+00
      21     1     1     2   511   513  8.420570113E+00 -2.396105874E+00 -7.576588392E+01  7.627002354E+01  9.536743164E-07  0.00000E+00  9.000E+00
</event>
<event>
      5  10001  2.40292E+09  9.53730E+00 -1.00000E+00  1.98106E-01
      21    -1     0     0   515   513  0.000000000E+00  0.000000000E+00  1.322642410E+02  1.322642410E+02  0.000000000E+00  0.00000E+00  9.000E+00
      21    -1     0     0   513   514  0.000000000E+00  0.000000000E+00 -5.197087124E+00  5.197087124E+00  0.000000000E+00  0.00000E+00  9.000E+00
      -1     1     1     2     0   514  1.193811972E+01 -1.858865024E+00  2.955853322E+00  1.244267056E+01  3.300000131E-01  0.00000E+00  9.000E+00
      21     1     1     2   515   512 -5.499178352E+00 -3.579200494E+00  5.881111219E+01  5.917599645E+01  0.000000000E+00  0.00000E+00  9.000E+00
       1     1     1     2   512     0 -6.438941372E+00  5.438065518E+00  6.530018833E+01  6.584266108E+01  3.300000131E-01  0.00000E+00  9.000E+00
</event>
<event>
      5  10001  2.40292E+09  3.87165E+00 -1.00000E+00  2.66742E-01
      21    -1     0     0   511   515  0.000000000E+00  0.000000000E+00  3.562992481E+00  3.562992481E+00  0.000000000E+00  0.00000E+00  9.000E+00
      21    -1     0     0   513   516  0.000000000E+00  0.000000000E+00 -1.081584099E+02  1.081584099E+02  0.000000000E+00  0.00000E+00  9.000E+00
      21     1     1     2   511   516  9.740641887E+00 -1.096609733E+01 -7.054565713E+01  7.205432073E+01  1.348699152E-06  0.00000E+00  9.000E+00
      21     1     1     2   513   514 -1.313998743E+01  9.112967224E+00 -3.038568605E+01  3.433650183E+01  1.066240300E-06  0.00000E+00  9.000E+00
      21     1     1     2   514   515  3.399345546E+00  1.853130108E+00 -3.664074273E+00  5.330579857E+00  1.115100797E-07  0.00000E+00  9.000E+00
</event>
<event>
      5  10001  2.40292E+09  8.21573E+00 -1.00000E+00  2.06106E-01
      21    -1     0     0   512   511  0.000000000E+00  0.000000000E+00  4.438956983E+01  4.438956983E+01  0.000000000E+00  0.00000E+00  9.000E+00
      21    -1     0     0   517   515  0.000000000E+00  0.000000000E+00 -5.644477635E+01  5.644477635E+01  0.000000000E+00  0.00000E+00  9.000E+00
      21     1     1     2   512   515 -6.144916943E+00 -1.395056613E+00 -5.239208092E+01  5.276965350E+01  6.743495762E-07  0.00000E+00  9.000E+00
      21     1     1     2   517   513  1.395167459E+01  3.954895932E+00  1.284769916E+01  1.937404964E+01  4.460403188E-07  0.00000E+00  9.000E+00
      21     1     1     2   513   511 -7.806757650E+00 -2.559839319E+00  2.748917524E+01  2.869064304E+01  3.371747881E-07  0.00000E+00  9.000E+00
</event>
<event>
      5  10001  2.40292E+09  1.49087E+01 -1.00000E+00  1.77586E-01
      21    -1     0     0   513   511  0.000000000E+00  0.000000000E+00  2.818773750E+00  2.818773750E+00  0.000000000E+00  0.00000E+00  9.000E+00
       1    -1     0     0   514     0  0.000000000E+00  0.000000000E+00 -1.787669158E+02  1.787669158E+02  0.000000000E+00  0.00000E+00  9.000E+00
      21     1     1     2   512   511  3.983871602E+00  1.070156034E+01 -1.162704740E+02  1.168298667E+02  1.907348633E-06  0.00000E+00  9.000E+00
       1     1     1     2   513     0  4.555785135E+00 -7.404385804E+00 -6.667430109E+00  1.096100504E+01  3.300000131E-01  0.00000E+00  9.000E+00
      21     1     1     2   514   512 -8.539656737E+00 -3.297174538E+00 -5.301023793E+01  5.379481781E+01  9.536743164E-07  0.00000E+00  9.000E+00
</event>
<event>
      5  10001  2.40292E+09  8.67611E+00 -1.00000E+00  2.03105E-01
      21    -1     0     0   515   514  0.000000000E+00  0.000000000E+00  6.676189867E+01  6.676189867E+01  0.000000000E+00  0.00000E+00  9.000E+00
      21    -1     0     0   511   515  0.000000000E+00  0.000000000E+00 -1.578178260E+02  1.578178260E+02  0.000000000E+00  0.00000E+00  9.000E+00
      -5     1     1     2     0   514  7.995710495E+00 -9.347557443E+00  3.831748735E+01  4.052873123E+01  4.800000191E+00  0.00000E+00  9.000E+00
       5     1     1     2   512     0  3.225908262E-01  1.174447181E+01  2.573860100E+01  2.869760036E+01  4.800000191E+00  0.00000E+00  9.000E+00
      21     1     1     2   511   512 -8.318301322E+00 -2.396914364E+00 -1.551120157E+02  1.553533931E+02  0.000000000E+00  0.00000E+00  9.000E+00
</event>
<event>
      5  10001  2.40292E+09  5.51333E+00 -1.00000E+00  2.31250E-01
      21    -1     0     0   513   512  0.000000000E+00  0.000000000E+00  6.442198897E+01  6.442198897E+01  0.000000000E+00  0.00000E+00  9.000E+00
      21    -1     0     0   511   516  0.000000000E+00  0.000000000E+00 -4.615777454E+00  4.615777454E+00  0.000000000E+00  0.00000E+00  9.000E+00
      21     1     1     2   513   516  9.653142622E+00  7.253589152E+00  5.907014691E+00  1.344211816E+01  0.000000000E+00  0.00000E+00  9.000E+00
      21     1     1     2   514   512 -6.474289890E+00 -1.375342713E+00  3.288439521E+01  3.354387344E+01  4.768371582E-07  0.00000E+00  9.000E+00
      21     1     1     2   511   514 -3.178852732E+00 -5.878246439E+00  2.101480162E+01  2.205177482E+01  2.384185791E-07  0.00000E+00  9.000E+00
</event>
<event>
      5  10001  2.40292E+09  1.02094E+01 -1.00000E+00  1.94665E-01
      21    -1     0     0   515   512  0.000000000E+00  0.000000000E+00  4.308891493E+01  4.308891493E+01  0.000000000E+00  0.00000E+00  9.000E+00
      21    -1     0     0   511   517  0.000000000E+00  0.000000000E+00 -7.906336610E+00  7.906336610E+00  0.000000000E+00  0.00000E+00  9.000E+00
      21     1     1     2   515   517 -1.261992508E+01  1.247007291E+00  1.249341878E+01  1.780177096E+01  1.685873940E-07  0.00000E+00  9.000E+00
      21     1     1     2   511   514  8.102240099E+00 -1.040244259E+01  8.407295247E+00  1.563776582E+01  3.576278687E-07  0.00000E+00  9.000E+00
      21     1     1     2   514   512  4.517684986E+00  9.155435302E+00  1.428186429E+01  1.755571476E+01  2.920019320E-07  0.00000E+00  9.000E+00
</event>
<event>
      5  10001  2.40292E+09  9.69594E+00 -1.00000E+00  1.97261E-01
       3    -1     0     0   511     0  0.000000000E+00  0.000000000E+00  1.682450628E+02  1.682450628E+02  0.000000000E+00  0.00000E+00  9.000E+00
      21    -1     0     0   515   514  0.000000000E+00  0.000000000E+00 -1.232308822E+02  1.232308822E+02  0.000000000E+00  0.00000E+00  9.000E+00
      21     1     1     2   511   514 -4.096841208E+00  2.688080910E+01  1.884611728E+01  3.308380483E+01  1.143415337E-06  0.00000E+00  9.000E+00
       3     1     1     2   513     0  1.367548399E+01 -2.838417910E+01  1.403273968E+02  1.438217952E+02  5.000000000E-01  0.00000E+00  9.000E+00
      21     1     1     2   515   513 -9.578642787E+00  1.503369999E+00 -1.141593335E+02  1.145703450E+02  1.907348633E-06  0.00000E+00  9.000E+00
</event>
<event>
      5  10001  2.40292E+09  4.15405E+00 -1.00000E+00  2.59557E-01
      -1    -1     0     0     0   512  0.000000000E+00  0.000000000E+00  1.017375240E+02  1.017375240E+02  0.000000000E+00  0.00000E+00  9.000E+00
      21    -1     0     0   511   513  0.000000000E+00  0.000000000E+00 -1.455318980E+00  1.455318980E+00  0.000000000E+00  0.00000E+00  9.000E+00
      21     1     1     2   514   513 -1.814610921E+00  2.068950901E+00  4.114896203E+00  4.950327402E+00  1.032382731E-07  0.00000E+00  9.000E+00
      21     1     1     2   511   512  5.256925083E+00 -9.031237006E+00  7.436784897E+01  7.509843849E+01  9.536743164E-07  0.00000E+00  9.000E+00
      -1     1     1     2     0   514 -3.442314162E+00  6.962286105E+00  2.179945983E+01  2.314407707E+01  3.300000131E-01  0.00000E+00  9.000E+00
</event>
<event>
      5  10001  2.40292E+09  1.28648E+01 -1.00000E+00  1.83854E-01
      21    -1     0     0   514   512  0.000000000E+00  0.000000000E+00  1.156857131E+01  1.156857131E+01  0.000000000E+00  0.00000E+00  9.000E+00
      21    -1     0     0   512   515  0.000000000E+00  0.000000000E+00 -1.191608091E+01  1.191608091E+01  0.000000000E+00  0.00000E+00  9.000E+00
      21     1     1     2   511   515  6.537414682E-01  3.566226066E+00  6.211729208E+00  7.192421430E+00  0.000000000E+00  0.00000E+00  9.000E+00
       5     1     1     2   514     0  9.971801844E-01 -6.534107498E+00 -1.052507165E+00  8.236303921E+00  4.800000191E+00  0.00000E+00  9.000E+00
      -5     1     1     2     0   511 -1.650921653E+00  2.967881432E+00 -5.506731644E+00  8.055926870E+00  4.800000191E+00  0.00000E+00  9.000E+00
</event>
<event>
      5  10001  2.40292E+09  1.52715E+01 -1.00000E+00  1.76606E-01
      21    -1     0     0   513   515  0.000000000E+00  0.000000000E+00  4.655628798E+00  4.655628798E+00  0.000000000E+00  0.00000E+00  9.000E+00
      21    -1     0     0   512   513  0.000000000E+00  0.000000000E+00 -4.740882582E+01  4.740882582E+01  0.000000000E+00  0.00000E+00  9.000E+00
      21     1     1     2   512   511 -6.141717119E+00 -2.463058714E+00 -2.438425720E+01  2.526617000E+01  3.371747881E-07  0.00000E+00  9.000E+00
      21     1     1     2   511   514  4.468471085E+00  1.042545640E+01 -9.919617994E+00  1.506838399E+01  3.953724850E-07  0.00000E+00  9.000E+00
      21     1     1     2   514   515  1.673246035E+00 -7.962397690E+00 -8.449321832E+00  1.172990063E+01  1.685873940E-07  0.00000E+00  9.000E+00
</event>
<event>
      5  10001  2.40292E+09  6.24548E+00 -1.00000E+00  2.22724E-01
       2    -1     0     0   511     0  0.000000000E+00  0.000000000E+00  1.557760809E+02  1.557760809E+02  0.000000000E+00  0.00000E+00  9.000E+00
      21    -1     0     0   512   513  0.000000000E+00  0.000000000E+00 -6.058533545E+00  6.058533545E+00  0.000000000E+00  0.00000E+00  9.000E+00
      21     1     1     2   511   513 -1.406622974E+00  1.143530480E+01  1.064282506E+01  1.568484967E+01  4.616955931E-07  0.00000E+00  9.000E+00
       2     1     1     2   514     0  6.144126296E+00 -7.365947864E+00  1.395562951E+02  1.398859388E+02  3.300000131E-01  0.00000E+00  9.000E+00
      21     1     1     2   512   514 -4.737503322E+00 -4.069356936E+00 -4.815727783E-01  6.263825982E+00  1.768630366E-07  0.00000E+00  9.000E+00
</event>
<event>
      5  10001  2.40292E+09  1.21516E+01 -1.00000E+00  1.86404E-01
      21    -1     0     0   514   512  0.000000000E+00  0.000000000E+00  3.789348718E-01  3.789348718E-01  0.000000000E+00  0.00000E+00  9.000E+00
      21    -1     0     0   515   514  0.000000000E+00  0.000000000E+00 -3.605747073E+02  3.605747073E+02  0.000000000E+00  0.00000E+00  9.000E+00
      -3     1     1     2     0   512  6.435012776E+00  1.223059848E+00 -1.255504167E+02  1.257221635E+02  5.000000000E-01  0.00000E+00  9.000E+00
       3     1     1     2   511     0 -7.456061996E+00  2.882363892E+00 -5.968846526E+01  6.022344865E+01  5.000000000E-01  0.00000E+00  9.000E+00
      21     1     1     2   515   511  1.021049220E+00 -4.105423740E+00 -1.749568904E+02  1.750080300E+02  3.303624740E-06  0.00000E+00  9.000E+00
</event>
<event>
      5  10001  2.40292E+09  6.44958E+00 -1.00000E+00  2.20631E-01
      21    -1     0     0   513   511  0.000000000E+00  0.000000000E+00  8.968134360E-01  8.968134360E-01  0.000000000E+00  0.00000E+00  9.000E+00
      21    -1     0     0   515   513  0.000000000E+00  0.000000000E+00 -3.853032758E+02  3.853032758E+02  0.000000000E+00  0.00000E+00  9.000E+00
      21     1     1     2   515   516  2.785764355E+00 -1.062805879E+01 -3.422234628E+02  3.423997877E+02  3.814697266E-06  0.00000E+00  9.000E+00
      21     1     1     2   516   512 -2.408919407E+00  3.915499998E+00 -2.347545791E+01  2.392135357E+01  4.768371582E-07  0.00000E+00  9.000E+00
      21     1     1     2   512   511 -3.768449481E-01  6.712558792E+00 -1.870754163E+01  1.987894795E+01  3.371747881E-07  0.00000E+00  9.000E+00
</event>
<event>
      5  10001  2.40292E+09  4.48151E+00 -1.00000E+00  2.52257E-01
      21    -1     0     0   514   512  0.000000000E+00  0.000000000E+00  3.698419287E+02  3.698419287E+02  0.000000000E+00  0.00000E+00  9.000E+00
      21    -1     0     0   511   513  0.000000000E+00  0.000000000E+00 -9.258479173E-01  9.258479173E-01  0.000000000E+00  0.00000E+00  9.000E+00
      21     1     1     2   517   512 -1.269530448E+01  5.153891168E-01  2.771669785E+02  2.774580516E+02  3.814697266E-06  0.00000E+00  9.000E+00
      21     1     1     2   511   517  1.139581586E+01  3.773585813E+00  5.541748002E+01  5.670274827E+01  6.743495762E-07  0.00000E+00  9.000E+00
      21     1     1     2   514   513  1.299488622E+00 -4.288974930E+00  3.633162219E+01  3.660697676E+01  4.768371582E-07  0.00000E+00  9.000E+00
</event>
<event>
      5  10001  2.40292E+09  1.39994E+01 -1.00000E+00  1.80206E-01
      21    -1     0     0   515   511  0.000000000E+00  0.000000000E+00  4.913155317E+01  4.913155317E+01  0.000000000E+00  0.00000E+00  9.000E+00
      21    -1     0     0   512   516  0.000000000E+00  0.000000000E+00 -3.015620073E+01  3.015620073E+01  0.000000000E+00  0.00000E+00  9.000E+00
      21     1     1     2   515   516 -1.302297475E+01  1.154132870E+01 -2.176161953E+01  2.786338501E+01  2.384185791E-07  0.00000E+00  9.000E+00
      21     1     1     2   517   511  1.189925871E+01 -2.197909532E+00  4.021842435E+01  4.199934310E+01  8.259061849E-07  0.00000E+00  9.000E+00
      21     1     1     2   512   517  1.123716046E+00 -9.343419168E+00  5.185476219E-01  9.425025790E+00  2.580956828E-07  0.00000E+00  9.000E+00
</event>
<event>
      5  10001  2.40292E+09  6.15979E+00 -1.00000E+00  2.23636E-01
       2    -1     0     0   512     0  0.000000000E+00  0.000000000E+00  7.904329492E-02  7.904329492E-02  0.000000000E+00  0.00000E+00  9.000E+00
       2    -1     0     0   511     0  0.000000000E+00  0.000000000E+00 -1.766064837E+03  1.766064837E+03  0.000000000E+00  0.00000E+00  9.000E+00
       2     1     1     2   512     0 -9.063966883E+00  5.155294712E+00 -6.508567160E+02  6.509403246E+02  3.300000131E-01  0.00000E+00  9.000E+00
       2     1     1     2   513     0  5.647084057E+00 -2.538993588E+00 -9.440420857E+02  9.440624473E+02  3.300000131E-01  0.00000E+00  9.000E+00
      21     1     1     2   511   513  3.416882826E+00 -2.616301124E+00 -1.710869923E+02  1.711411086E+02  4.672030912E-06  0.00000E+00  9.000E+00
</event>
<event>
      5  10001  2.40292E+09  1.67035E+01 -1.00000E+00  1.73048E-01
      21    -1     0     0   514   513  0.000000000E+00  0.000000000E+00  2.151517700E+01  2.151517700E+01  0.000000000E+00  0.00000E+00  9.000E+00
      21    -1     0     0   511   514  0.000000000E+00  0.000000000E+00 -5.616497804E+00  5.616497804E+00  0.000000000E+00  0.00000E+00  9.000E+00
      21     1     1     2   511   515 -2.703779963E+00 -1.976905259E+00  8.078804859E-01  3.445468237E+00  1.268788156E-07  0.00000E+00  9.000E+00
      21     1     1     2   512   513  2.522174951E+00 -1.089097584E+00  1.872643283E+01  1.892688000E+01  2.384185791E-07  0.00000E+00  9.000E+00
      21     1     1     2   515   512  1.816050122E-01  3.066002844E+00 -3.635634126E+00  4.759326561E+00  1.264405455E-07  0.00000E+00  9.000E+00
</event>
<event>
      5  10001  2.40292E+09  4.33846E+00 -1.00000E+00  2.55325E-01
      21    -1     0     0   516   511  0.000000000E+00  0.000000000E+00  2.972284717E+01  2.972284717E+01  0.000000000E+00  0.00000E+00  9.000E+00
      21    -1     0     0   517   516  0.000000000E+00  0.000000000E+00 -3.835415542E+01  3.835415542E+01  0.000000000E+00  0.00000E+00  9.000E+00
      21     1     1     2   512   511 -9.611723282E+00 -2.044413361E+00  2.686993905E+01  2.861046094E+01  3.371747881E-07  0.00000E+00  9.000E+00
      21     1     1     2   513   512  8.850110761E+00 -8.712637689E-01 -3.534762915E+01  3.644912135E+01  0.000000000E+00  0.00000E+00  9.000E+00
      21     1     1     2   517   513  7.616125208E-01  2.915677130E+00 -1.536181550E-01  3.017420305E+00  7.450580597E-09  0.00000E+00  9.000E+00
</event>
<event>
      5  10001  2.40292E+09  5.52583E+00 -1.00000E+00  2.31089E-01
      21    -1     0     0   514   513  0.000000000E+00  0.000000000E+00  1.977751836E+00  1.977751836E+00  0.000000000E+00  0.00000E+00  9.000E+00
      21    -1     0     0   511   515  0.000000000E+00  0.000000000E+00 -1.976132518E+02  1.976132518E+02  0.000000000E+00  0.00000E+00  9.000E+00
      21     1     1     2   514   515 -1.245730334E+01  3.392493602E+00 -2.260700917E+01  2.603402165E+01  8.596304120E-07  0.00000E+00  9.000E+00
      21     1     1     2   511   512  5.751775729E+00 -1.227498023E+00 -5.381366681E+01  5.413409657E+01  6.743495762E-07  0.00000E+00  9.000E+00
      21     1     1     2   512   513  6.705527608E+00 -2.164995579E+00 -1.192148239E+02  1.194228854E+02  1.907348633E-06  0.00000E+00  9.000E+00
</event>
<event>
      5  10001  2.40292E+09  4.23117E+00 -1.00000E+00  2.57747E-01
      21    -1     0     0   514   511  0.000000000E+00  0.000000000E+00  5.975613626E+01  5.975613626E+01  0.000000000E+00  0.00000E+00  9.000E+00
      21    -1     0     0   517   513  0.000000000E+00  0.000000000E+00 -5.542225393E+01  5.542225393E+01  0.000000000E+00  0.00000E+00  9.000E+00
      21     1     1     2   516   513  1.425511191E+01  9.930985488E+00  4.302530040E+00  1.789816899E+01  4.842304232E-07  0.00000E+00  9.000E+00
      21     1     1     2   517   511 -1.841498175E+01 -1.070446835E+01 -4.619050035E+01  5.086511101E+01  0.000000000E+00  0.00000E+00  9.000E+00
      21     1     1     2   514   516  4.159869837E+00  7.734828605E-01  4.622185264E+01  4.641511020E+01  6.743495762E-07  0.00000E+00  9.000E+00
</event>
<event>
      5  10001  2.40292E+09  6.67693E+00 -1.00000E+00  2.18422E-01
      21    -1     0     0   512   513  0.000000000E+00  0.000000000E+00  2.798215033E+00  2.798215033E+00  0.000000000E+00  0.00000E+00  9.000E+00
      21    -1     0     0   515   512  0.000000000E+00  0.000000000E+00 -8.974599384E+01  8.974599384E+01  0.000000000E+00  0.00000E+00  9.000E+00
      21     1     1     2   515   516 -1.274615602E+01  1.727750852E+00 -4.200969951E+01  4.393477517E+01  4.768371582E-07  0.00000E+00  9.000E+00
      21     1     1     2   511   513  1.430832489E+01 -4.219789721E+00 -4.141664953E+01  4.402128627E+01  4.768371582E-07  0.00000E+00  9.000E+00
      21     1     1     2   516   511 -1.562168871E+00  2.492038869E+00 -3.521429774E+00  4.588147443E+00  1.115100797E-07  0.00000E+00  9.000E+00
</event>
<event>
      5  10001  2.40292E+09  6.45007E+00 -1.00000E+00  2.20626E-01
      21    -1     0     0   514   513  0.000000000E+00  0.000000000E+00  1.367725847E+01  1.367725847E+01  0.000000000E+00  0.00000E+00  9.000E+00
      21    -1     0     0   517   514  0.000000000E+00  0.000000000E+00 -6.206423281E+01  6.206423281E+01  0.000000000E+00  0.00000E+00  9.000E+00
      21     1     1     2   511   513 -1.117095678E+01  1.305035999E+01  6.149378934E+00  1.824601416E+01  3.264680848E-07  0.00000E+00  9.000E+00
      21     1     1     2   517   512  5.286344758E+00 -3.433047501E+00 -2.728914041E+01  2.800764967E+01  3.371747881E-07  0.00000E+00  9.000E+00
      21     1     1     2   512   511  5.884612026E+00 -9.617312492E+00 -2.724721287E+01  2.948782745E+01  0.000000000E+00  0.00000E+00  9.000E+00
</event>
<event>
      5  10001  2.40292E+09  7.39877E+00 -1.00000E+00  2.12139E-01
      21    -1     0     0   515   513  0.000000000E+00  0.000000000E+00  6.451260545E+01  6.451260545E+01  0.000000000E+00  0.00000E+00  9.000E+00
      21    -1     0     0   516   515  0.000000000E+00  0.000000000E+00 -1.598357804E+02  1.598357804E+02  0.000000000E+00  0.00000E+00  9.000E+00
      21     1     1     2   516   511  3.611031855E+00 -1.027996870E+01 -1.589391256E+02  1.593121557E+02  0.000000000E+00  0.00000E+00  9.000E+00
      21     1     1     2   514   513  2.037890323E+00  5.600295085E+00  3.446754187E+01  3.497896145E+01  1.430511475E-06  0.00000E+00  9.000E+00
      21     1     1     2   511   514 -5.648922178E+00  4.679673620E+00  2.914840878E+01  3.005726870E+01  8.920806376E-07  0.00000E+00  9.000E+00
</event>
<event>
      5  10001  2.40292E+09  4.19493E+00 -1.00000E+00  2.58590E-01
      21    -1     0     0   515   516  0.000000000E+00  0.000000000E+00  3.288046275E+02  3.288046275E+02  0.000000000E+00  0.00000E+00  9.000E+00
      -1    -1     0     0     0   512  0.000000000E+00  0.000000000E+00 -1.528783693E+00  1.528783693E+00  0.000000000E+00  0.00000E+00  9.000E+00
      -1     1     1     2     0   513  6.003546346E+00 -9.880984656E+00  2.477788932E+01  2.734463614E+01  3.300000131E-01  0.00000E+00  9.000E+00
      21     1     1     2   513   516 -1.818524599E+00  9.596426915E+00  1.067546003E+02  1.072004810E+02  0.000000000E+00  0.00000E+00  9.000E+00
      21     1     1     2   515   512 -4.185021747E+00  2.845577408E-01  1.957433542E+02  1.957882940E+02  2.697398305E-06  0.00000E+00  9.000E+00
</event>
<event>
      5  10001  2.40292E+09  8.11764E+00 -1.00000E+00  2.06780E-01
      21    -1     0     0   511   512  0.000000000E+00  0.000000000E+00  1.490492609E+01  1.490492609E+01  0.000000000E+00  0.00000E+00  9.000E+00
      21    -1     0     0   517   514  0.000000000E+00  0.000000000E+00 -9.452766514E+00  9.452766514E+00  0.000000000E+00  0.00000E+00  9.000E+00
      21     1     1     2   511   514  8.001398110E-01  9.824307702E+00  5.981864649E+00  1.152995881E+01  2.230201594E-07  0.00000E+00  9.000E+00
      21     1     1     2   513   512  3.648372566E+00 -5.442337799E+00  9.084997449E-02  6.552703016E+00  2.094958328E-08  0.00000E+00  9.000E+00
      21     1     1     2   517   513 -4.448512377E+00 -4.381969903E+00 -6.205550519E-01  6.275030771E+00  1.077117942E-07  0.00000E+00  9.000E+00
</event>
<event>
      5  10001  2.40292E+09  5.67121E+00 -1.00000E+00  2.29260E-01
      21    -1     0     0   515   513  0.000000000E+00  0.000000000E+00  1.133584832E+02  1.133584832E+02  0.000000000E+00  0.00000E+00  9.000E+00
      21    -1     0     0   517   516  0.000000000E+00  0.000000000E+00 -2.845180171E+00  2.845180171E+00  0.000000000E+00  0.00000E+00  9.000E+00
      21     1     1     2   515   516 -1.609539545E+00  1.117917777E+01  1.139668216E+01  1.604521727E+01  2.384185791E-07  0.00000E+00  9.000E+00
      21     1     1     2   511   513  4.198071166E+00 -1.036457577E+01  6.694091080E+01  6.786850353E+01  9.536743164E-07  0.00000E+00  9.000E+00
      21     1     1     2   517   511 -2.588531621E+00 -8.146019993E-01  3.217571010E+01  3.228994260E+01  6.743495762E-07  0.00000E+00  9.000E+00
</event>
<event>
      5  10001  2.40292E+09  7.45799E+00 -1.00000E+00  2.11667E-01
      21    -1     0     0   512   515  0.000000000E+00  0.000000000E+00  4.652636243E+00  4.652636243E+00  0.000000000E+00  0.00000E+00  9.000E+00
      21    -1     0     0   514   512  0.000000000E+00  0.000000000E+00 -9.699497030E+01  9.699497030E+01  0.000000000E+00  0.00000E+00  9.000E+00
      21     1     1     2   511   513  1.068408815E+01  1.002602202E+01 -2.595414622E+01  2.980417023E+01  3.371747881E-07  0.00000E+00  9.000E+00
      21     1     1     2   514   511 -4.253944170E+00 -1.380423381E+01 -6.088448548E+01  6.257454342E+01  6.743495762E-07  0.00000E+00  9.000E+00
      21     1     1     2   513   515 -6.430143976E+00  3.778211793E+00 -5.503702362E+00  9.268892900E+00  1.192092896E-07  0.00000E+00  9.000E+00
</event>
<event>
      5  10001  2.40292E+09  1.30653E+01 -1.00000E+00  1.83175E-01
      21    -1     0     0   516   514  0.000000000E+00  0.000000000E+00  3.173664891E+02  3.173664891E+02  0.000000000E+00  0.00000E+00  9.000E+00
      21    -1     0     0   513   515  0.000000000E+00  0.000000000E+00 -5.931413942E-01  5.931413942E-01  0.000000000E+00  0.00000E+00  9.000E+00
      21     1     1     2   516   515  1.072430143E+01 -1.640403243E+00  8.896664302E+01  8.962569461E+01  9.536743164E-07  0.00000E+00  9.000E+00
      21     1     1     2   511   514 -5.272381650E+00 -3.868982259E+00  6.150293630E+01  6.184964192E+01  1.168007728E-06  0.00000E+00  9.000E+00
      21     1     1     2   513   511 -5.451919783E+00  5.509385502E+00  1.663037684E+02  1.664842940E+02  2.697398305E-06  0.00000E+00  9.000E+00
</event>
<event>
      5  10001  2.40292E+09  7.72815E+00 -1.00000E+00  2.09586E-01
       2    -1     0     0   513     0  0.000000000E+00  0.000000000E+00  3.510688693E+02  3.510688693E+02  0.000000000E+00  0.00000E+00  9.000E+00
      21    -1     0     0   514   511  0.000000000E+00  0.000000000E+00 -1.718459928E+02  1.718459928E+02  0.000000000E+00  0.00000E+00  9.000E+00
      21     1     1     2   513   511 -1.280475619E+01  1.884201191E+00 -1.266493499E+01  1.810835646E+01  1.460009660E-06  0.00000E+00  9.000E+00
       2     1     1     2   512     0  8.890039187E+00 -8.547472423E+00  3.481424003E+02  3.483609218E+02  3.300000131E-01  0.00000E+00  9.000E+00
      21     1     1     2   514   512  3.914717005E+00  6.663271232E+00 -1.562545888E+02  1.564455839E+02  1.907348633E-06  0.00000E+00  9.000E+00
</event>
<event>
      5  10001  2.40292E+09  8.44369E+01 -1.00000E+00  1.27201E-01
       2    -1     0     0   511     0  0.000000000E+00  0.000000000E+00  1.996368551E+01  1.996368551E+01  0.000000000E+00  0.00000E+00  9.000E+00
      21    -1     0     0   515   512  0.000000000E+00  0.000000000E+00 -2.202530426E+02  2.202530426E+02  0.000000000E+00  0.00000E+00  9.000E+00
      21     1     1     2   511   512  7.786217759E+00 -2.742558094E+01 -8.339420054E+01  8.813274284E+01  1.348699152E-06  0.00000E+00  9.000E+00
      21     1     1     2   515   513  1.027756943E+01  5.095549785E+01 -1.099460125E+02  1.216150355E+02  0.000000000E+00  0.00000E+00  9.000E+00
       2     1     1     2   513     0 -1.806378719E+01 -2.352991692E+01 -6.949144051E+00  3.046894978E+01  3.300000131E-01  0.00000E+00  9.000E+00
</event>
<event>
      5  10001  2.40292E+09  3.35528E+00 -1.00000E+00  2.82731E-01
      21    -1     0     0   511   513  0.000000000E+00  0.000000000E+00  8.513269393E+02  8.513269393E+02  0.000000000E+00  0.00000E+00  9.000E+00
      21    -1     0     0   516   514  0.000000000E+00  0.000000000E+00 -4.653906545E+00  4.653906545E+00  0.000000000E+00  0.00000E+00  9.000E+00
      21     1     1     2   515   513 -4.721031496E-01 -1.165371317E+01  3.100986429E+01  3.313070472E+01  8.259061849E-07  0.00000E+00  9.000E+00
      21     1     1     2   516   515 -2.542619737E+00  1.312658898E+01  8.859330594E+00  1.603932642E+01  1.685873940E-07  0.00000E+00  9.000E+00
      21     1     1     2   511   514  3.014722887E+00 -1.472875812E+00  8.068038379E+02  8.068108147E+02  1.078959322E-05  0.00000E+00  9.000E+00
</event>
<event>
      5  10001  2.40292E+09  6.61914E+00 -1.00000E+00  2.18972E-01
      -2    -1     0     0     0   515  0.000000000E+00  0.000000000E+00  1.879837615E+01  1.879837615E+01  0.000000000E+00  0.00000E+00  9.000E+00
      21    -1     0     0   517   512  0.000000000E+00  0.000000000E+00 -1.544204404E+02  1.544204404E+02  0.000000000E+00  0.00000E+00  9.000E+00
      21     1     1     2   514   515 -2.185413275E+00  1.118747842E+01 -2.688328887E+01  2.920011858E+01  9.536743164E-07  0.00000E+00  9.000E+00
      21     1     1     2   517   514 -3.290832567E+00 -1.490538213E+01 -1.252762251E+02  1.262027439E+02  3.015782986E-06  0.00000E+00  9.000E+00
      -2     1     1     2     0   512  5.476245842E+00  3.717903713E+00  1.653744971E+01  1.781595407E+01  3.300000131E-01  0.00000E+00  9.000E+00
</event>
<event>
      5  10001  2.40292E+09  3.35879E+00 -1.00000E+00  2.82607E-01
      21    -1     0     0   511   512  0.000000000E+00  0.000000000E+00  7.838169367E+00  7.838169367E+00  0.000000000E+00  0.00000E+00  9.000E+00
      21    -1     0     0   515   513  0.000000000E+00  0.000000000E+00 -1.700538916E+01  1.700538916E+01  0.000000000E+00  0.00000E+00  9.000E+00
      21     1     1     2   511   513  1.102258860E+01 -2.662312618E+00 -5.743969983E+00  1.271135551E+01  1.460009660E-07  0.00000E+00  9.000E+00
      21     1     1     2   514   512 -3.950491918E+00  1.976838390E+00 -2.153298834E+00  4.914363874E+00  1.264405455E-07  0.00000E+00  9.000E+00
      21     1     1     2   515   514 -7.072096679E+00  6.854742284E-01 -1.269950976E+00  7.217839139E+00  1.413648275E-07  0.00000E+00  9.000E+00
</event>
<event>
      5  10001  2.40292E+09  7.45014E+00 -1.00000E+00  2.11729E-01
      21    -1     0     0   516   513  0.000000000E+00  0.000000000E+00  1.940923762E+02  1.940923762E+02  0.000000000E+00  0.00000E+00  9.000E+00
      21    -1     0     0   515   517  0.000000000E+00  0.000000000E+00 -7.216424933E-01  7.216424933E-01  0.000000000E+00  0.00000E+00  9.000E+00
      21     1     1     2   516   517 -9.247619383E+00  4.205087619E+00  1.344719978E+02  1.348551794E+02  2.697398305E-06  0.00000E+00  9.000E+00
      -3     1     1     2     0   513  3.036153434E+00  8.587417904E-01  1.708594823E+01  1.738203935E+01  5.000000000E-01  0.00000E+00  9.000E+00
       3     1     1     2   515     0  6.211465949E+00 -5.063829409E+00  4.181278766E+01  4.257679990E+01  5.000000000E-01  0.00000E+00  9.000E+00
</event>
<event>
      5  10001  2.40292E+09  1.43740E+01 -1.00000E+00  1.79097E-01
       2    -1     0     0   514     0  0.000000000E+00  0.000000000E+00  1.331618391E+02  1.331618391E+02  0.000000000E+00  0.00000E+00  9.000E+00
      21    -1     0     0   511   513  0.000000000E+00  0.000000000E+00 -3.089962569E+01  3.089962569E+01  0.000000000E+00  0.00000E+00  9.000E+00
      21     1     1     2   514   512 -1.040829109E+01  3.939085374E+00 -2.859006616E+00  1.149011905E+01  1.884864366E-07  0.00000E+00  9.000E+00
       2     1     1     2   511     0  1.236182337E+01 -1.817961776E+01  1.256230832E+02  1.275326668E+02  3.300000131E-01  0.00000E+00  9.000E+00
      21     1     1     2   512   513 -1.953532283E+00  1.424053238E+01 -2.050186313E+01  2.503867894E+01  3.371747881E-07  0.00000E+00  9.000E+00
</event>
<event>
      5  10001  2.40292E+09  9.24302E+00 -1.00000E+00  1.99733E-01
       1    -1     0     0   515     0  0.000000000E+00  0.000000000E+00  3.150884843E+02  3.150884843E+02  0.000000000E+00  0.00000E+00  9.000E+00
      21    -1     0     0   512   516  0.000000000E+00  0.000000000E+00 -6.549087253E+00  6.549087253E+00  0.000000000E+00  0.00000E+00  9.000E+00
      21     1     1     2   515   516 -8.647231562E+00 -1.664200102E+01  1.090668142E+02  1.106675236E+02  1.907348633E-06  0.00000E+00  9.000E+00
      21     1     1     2   512   511  5.703510761E+00  7.880464976E+00 -1.449437026E+00  9.835274827E+00  9.424321831E-08  0.00000E+00  9.000E+00
       1     1     1     2   511     0  2.943720802E+00  8.761536045E+00  2.009220199E+02  2.011347732E+02  3.300000131E-01  0.00000E+00  9.000E+00
</event>
<event>
      5  10001  2.40292E+09  8.98410E+00 -1.00000E+00  2.01232E-01
       2    -1     0     0   512     0  0.000000000E+00  0.000000000E+00  4.258489809E+02  4.258489809E+02  0.000000000E+00  0.00000E+00  9.000E+00
      21    -1     0     0   511   513  0.000000000E+00  0.000000000E+00 -3.029451588E+00  3.029451588E+00  0.000000000E+00  0.00000E+00  9.000E+00
      21     1     1     2   512   513  1.048983578E+01 -2.570389784E+00  7.838481990E+00  1.334486261E+01  2.528810911E-07  0.00000E+00  9.000E+00
       2     1     1     2   514     0 -1.006582919E+01 -4.192726597E+00  3.555708891E+02  3.557381986E+02  3.300000131E-01  0.00000E+00  9.000E+00
      21     1     1     2   511   514 -4.240065913E-01  6.763116381E+00  5.941015826E+01  5.979537131E+01  6.743495762E-07  0.00000E+00  9.000E+00
</event>
<event>
      5  10001  2.40292E+09  2.45029E+00 -1.00000E+00  3.26200E-01
      21    -1     0     0   512   513  0.000000000E+00  0.000000000E+00  5.747185266E-01  5.747185266E-01  0.000000000E+00  0.00000E+00  9.000E+00
      21    -1     0     0   514   512  0.000000000E+00  0.000000000E+00 -2.858668010E+02  2.858668010E+02  0.000000000E+00  0.00000E+00  9.000E+00
      21     1     1     2   514   515  1.200600698E+01  2.892021072E+00 -1.570316492E+02  1.575164970E+02  2.697398305E-06  0.00000E+00  9.000E+00
       1     1     1     2   515     0 -9.794459030E+00 -1.842053244E+00 -1.153625253E+02  1.157926843E+02  3.300000131E-01  0.00000E+00  9.000E+00
      -1     1     1     2     0   513 -2.211547954E+00 -1.049967828E+00 -1.289790797E+01  1.313233820E+01  3.300000131E-01  0.00000E+00  9.000E+00
</event>
<event>
      5  10001  2.40292E+09  8.64680E+00 -1.00000E+00  2.03288E-01
      21    -1     0     0   511   515  0.000000000E+00  0.000000000E+00  4.979570839E+01  4.979570839E+01  0.000000000E+00  0.00000E+00  9.000E+00
      21    -1     0     0   513   511  0.000000000E+00  0.000000000E+00 -1.054023863E+01  1.054023863E+01  0.000000000E+00  0.00000E+00  9.000E+00
      21     1     1     2   513   514 -1.330393268E+01 -1.268113614E+01  4.016290752E+00  1.881319829E+01  1.460009660E-07  0.00000E+00  9.000E+00
      -5     1     1     2     0   515  6.729314230E+00  2.511944974E+00  1.748241120E+01  1.950046770E+01  4.800000191E+00  0.00000E+00  9.000E+00
       5     1     1     2   514     0  6.574618450E+00  1.016919117E+01  1.775676781E+01  2.202228102E+01  4.800000191E+00  0.00000E+00  9.000E+00
</event>
<event>
      5  10001  2.40292E+09  7.20187E+00 -1.00000E+00  2.13753E-01
      21    -1     0     0   512   514  0.000000000E+00  0.000000000E+00  4.838874793E+01  4.838874793E+01  0.000000000E+00  0.00000E+00  9.000E+00
      21    -1     0     0   516   512  0.000000000E+00  0.000000000E+00 -1.548994403E+01  1.548994403E+01  0.000000000E+00  0.00000E+00  9.000E+00
      21     1     1     2   516   513  8.202487949E+00 -6.234172905E+00 -1.294895013E+01  1.654753848E+01  1.685873940E-07  0.00000E+00  9.000E+00
      21     1     1     2   511   514 -1.991320973E+00  4.854646813E+00  1.706178571E+01  1.785041979E+01  4.129530925E-07  0.00000E+00  9.000E+00
      21     1     1     2   513   511 -6.211166977E+00  1.379526092E+00  2.878596831E+01  2.948073369E+01  3.371747881E-07  0.00000E+00  9.000E+00
</event>
<event>
      5  10001  2.40292E+09  8.88498E+00 -1.00000E+00  2.01824E-01
      21    -1     0     0   515   514  0.000000000E+00  0.000000000E+00  8.763945110E+01  8.763945110E+01  0.000000000E+00  0.00000E+00  9.000E+00
      21    -1     0     0   512   515  0.000000000E+00  0.000000000E+00 -5.728822474E+01  5.728822474E+01  0.000000000E+00  0.00000E+00  9.000E+00
      21     1     1     2   511   514  5.509909318E+00  1.817019811E+01  8.079120308E+01  8.299237131E+01  1.348699152E-06  0.00000E+00  9.000E+00
      21     1     1     2   517   511  1.679255216E+00 -1.294920597E+01 -2.646706627E+00  1.332317114E+01  2.250025998E-07  0.00000E+00  9.000E+00
      21     1     1     2   512   517 -7.189164535E+00 -5.220992145E+00 -4.779327010E+01  4.861213338E+01  0.000000000E+00  0.00000E+00  9.000E+00
</event>
<event>
      5  10001  2.40292E+09  1.16653E+01 -1.00000E+00  1.88275E-01
      21    -1     0     0   513   511  0.000000000E+00  0.000000000E+00  1.096491849E+01  1.096491849E+01  0.000000000E+00  0.00000E+00  9.000E+00
       5    -1     0     0   511     0  0.000000000E+00  0.000000000E+00 -1.873040217E+01  1.873040217E+01  0.000000000E+00  0.00000E+00  9.000E+00
      21     1     1     2   513   512 -8.190967391E+00 -7.383833856E-01  4.307326153E+00  9.283868558E+00  2.064765462E-07  0.00000E+00  9.000E+00
      21     1     1     2   512   514  7.910118118E+00  4.526164098E+00 -3.254907920E+00  9.677321719E+00  2.064765462E-07  0.00000E+00  9.000E+00
       5     1     1     2   514     0  2.808492730E-01 -3.787780713E+00 -8.817901914E+00  1.073413038E+01  4.800000191E+00  0.00000E+00  9.000E+00
</event>
<event>
      5  10001  2.40292E+09  3.41665E+00 -1.00000E+00  2.80595E-01
       2    -1     0     0   512     0  0.000000000E+00  0.000000000E+00  7.962961368E+02  7.962961368E+02  0.000000000E+00  0.00000E+00  9.000E+00
      21    -1     0     0   514   515  0.000000000E+00  0.000000000E+00 -2.275643807E-01  2.275643807E-01  0.000000000E+00  0.00000E+00  9.000E+00
      21     1     1     2   512   511 -3.891826633E+00  5.530665507E+00  8.745437483E+01  8.771546188E+01  1.907348633E-06  0.00000E+00  9.000E+00
       2     1     1     2   514     0  4.036451083E+00 -1.012196202E+01  5.970287178E+02  5.971282491E+02  3.300000131E-01  0.00000E+00  9.000E+00
      21     1     1     2   511   515 -1.446244501E-01  4.591296517E+00  1.115854798E+02  1.116799902E+02  1.907348633E-06  0.00000E+00  9.000E+00
</event>
<event>
      5  10001  2.40292E+09  2.35271E+01 -1.00000E+00  1.60713E-01
      21    -1     0     0   513   515  0.000000000E+00  0.000000000E+00  3.000672222E+01  3.000672222E+01  0.000000000E+00  0.00000E+00  9.000E+00
      -4    -1     0     0     0   513  0.000000000E+00  0.000000000E+00 -8.108480921E+01  8.108480921E+01  0.000000000E+00  0.00000E+00  9.000E+00
      -4     1     1     2     0   514 -1.877848028E+00 -4.285094823E+00 -7.460475130E+01  7.476635117E+01  1.500000000E+00  0.00000E+00  9.000E+00
      21     1     1     2   512   515 -8.469323701E+00 -1.093305472E+00  2.313093359E+01  2.465694323E+01  3.371747881E-07  0.00000E+00  9.000E+00
      21     1     1     2   514   512  1.034717173E+01  5.378400295E+00  3.957307084E-01  1.166823703E+01  1.165009720E-07  0.00000E+00  9.000E+00
</event>
<event>
      5  10001  2.40292E+09  3.44455E+00 -1.00000E+00  2.79648E-01
      21    -1     0     0   512   514  0.000000000E+00  0.000000000E+00  1.078555089E+02  1.078555089E+02  0.000000000E+00  0.00000E+00  9.000E+00
       1    -1     0     0   513     0  0.000000000E+00  0.000000000E+00 -6.622156528E+01  6.622156528E+01  0.000000000E+00  0.00000E+00  9.000E+00
      21     1     1     2   512   511 -7.846483541E+00 -3.976248274E+00  1.066270095E+02  1.069892378E+02  1.907348633E-06  0.00000E+00  9.000E+00
       1     1     1     2   511     0  1.127903971E+01  3.689276567E+00 -3.637592568E+01  3.826413945E+01  3.300000131E-01  0.00000E+00  9.000E+00
      21     1     1     2   513   514 -3.432556165E+00  2.869717075E-01 -2.861714016E+01  2.882369694E+01  7.539457465E-07  0.00000E+00  9.000E+00
</event>
<event>
      5  10001  2.40292E+09  4.55809E+00 -1.00000E+00  2.50686E-01
      21    -1     0     0   512   514  0.000000000E+00  0.000000000E+00  1.733724836E+02  1.733724836E+02  0.000000000E+00  0.00000E+00  9.000E+00
       1    -1     0     0   514     0  0.000000000E+00  0.000000000E+00 -5.138283482E+00  5.138283482E+00  0.000000000E+00  0.00000E+00  9.000E+00
      21     1     1     2   511   513  1.074859397E+01 -1.614868884E+01  1.035673261E+02  1.053684178E+02  1.348699152E-06  0.00000E+00  9.000E+00
       1     1     1     2   513     0 -6.311410973E+00  1.719090589E+01  1.617172298E+01  2.443347454E+01  3.300000131E-01  0.00000E+00  9.000E+00
      21     1     1     2   512   511 -4.437182993E+00 -1.042217049E+00  4.849515101E+01  4.870887476E+01  9.536743164E-07  0.00000E+00  9.000E+00
</event>
<event>
      5  10001  2.40292E+09  6.08782E+00 -1.00000E+00  2.24418E-01
      21    -1     0     0   515   513  0.000000000E+00  0.000000000E+00  4.282785356E+01  4.282785356E+01  0.000000000E+00  0.00000E+00  9.000E+00
      -2    -1     0     0     0   511  0.000000000E+00  0.000000000E+00 -1.313669484E+01  1.313669484E+01  0.000000000E+00  0.00000E+00  9.000E+00
      21     1     1     2   515   511 -3.074471671E+00 -1.179794231E+01  3.892789582E-01  1.219817023E+01  2.161310569E-07  0.00000E+00  9.000E+00
      21     1     1     2   514   513  8.157083116E+00  8.448081178E+00  3.406351039E+01  3.603097030E+01  4.768371582E-07  0.00000E+00  9.000E+00
      -2     1     1     2     0   514 -5.082611445E+00  3.349861132E+00 -4.761630630E+00  7.735407873E+00  3.300000131E-01  0.00000E+00  9.000E+00
</event>
<event>
      5  10001  2.40292E+09  9.40883E+00 -1.00000E+00  1.98807E-01
      21    -1     0     0   512   511  0.000000000E+00  0.000000000E+00  1.890691583E+00  1.890691583E+00  0.000000000E+00  0.00000E+00  9.000E+00
      21    -1     0     0   517   516  0.000000000E+00  0.000000000E+00 -4.176544706E+02  4.176544706E+02  0.000000000E+00  0.00000E+00  9.000E+00
      21     1     1     2   512   516 -1.061878562E+01 -5.579353245E+00 -1.874032171E+01  2.225056063E+01  4.129530925E-07  0.00000E+00  9.000E+00
      21     1     1     2   513   511  8.529563065E+00  1.557681656E+00 -1.656536249E+02  1.658803884E+02  2.697398305E-06  0.00000E+00  9.000E+00
      21     1     1     2   517   513  2.089222554E+00  4.021671590E+00 -2.313698325E+02  2.314142132E+02  0.000000000E+00  0.00000E+00  9.000E+00
</event>
<event>
      5  10001  2.40292E+09  2.07130E+01 -1.00000E+00  1.65083E-01
       2    -1     0     0   515     0  0.000000000E+00  0.000000000E+00  7.172041776E+02  7.172041776E+02  0.000000000E+00  0.00000E+00  9.000E+00
      21    -1     0     0   514   513  0.000000000E+00  0.000000000E+00 -2.609854324E+01  2.609854324E+01  0.000000000E+00  0.00000E+00  9.000E+00
      21     1     1     2   511   513 -8.965043121E-02  6.013418644E+00 -3.416660163E+00  6.916849547E+00  2.858538343E-07  0.00000E+00  9.000E+00
       2     1     1     2   514     0 -1.989173714E+01 -3.297749808E+01  7.011248917E+02  7.021818990E+02  3.300000131E-01  0.00000E+00  9.000E+00
      21     1     1     2   515   511  1.998138757E+01  2.696407944E+01 -6.602597214E+00  3.420397227E+01  7.679521279E-07  0.00000E+00  9.000E+00
</event>
<event>
      5  10001  2.40292E+09  9.06501E+00 -1.00000E+00  2.00756E-01
      21    -1     0     0   512   513  0.000000000E+00  0.000000000E+00  9.687903532E+01  9.687903532E+01  0.000000000E+00  0.00000E+00  9.000E+00
      21    -1     0     0   516   511  0.000000000E+00  0.000000000E+00 -1.481861664E+00  1.481861664E+00  0.000000000E+00  0.00000E+00  9.000E+00
      21     1     1     2   512   511 -2.180795039E+00  6.982104237E+00  1.544146620E+01  1.708638420E+01  1.685873940E-07  0.00000E+00  9.000E+00
      21     1     1     2   514   513  5.535760744E+00 -8.387936091E+00  4.389515112E+01  4.503094948E+01  4.768371582E-07  0.00000E+00  9.000E+00
      21     1     1     2   516   514 -3.354965705E+00  1.405831854E+00  3.606055633E+01  3.624356331E+01  4.768371582E-07  0.00000E+00  9.000E+00
</event>
<event>
      5  10001  2.40292E+09  7.74724E+00 -1.00000E+00  2.09443E-01
      21    -1     0     0   515   511  0.000000000E+00  0.000000000E+00  1.801927553E+01  1.801927553E+01  0.000000000E+00  0.00000E+00  9.000E+00
       2    -1     0     0   516     0  0.000000000E+00  0.000000000E+00 -9.853500022E+02  9.853500022E+02  0.000000000E+00  0.00000E+00  9.000E+00
      21     1     1     2   516   517 -1.378635288E+00 -6.925722055E+00 -5.085381534E+00  8.702147240E+00  2.598106231E-07  0.00000E+00  9.000E+00
      21     1     1     2   517   511  7.316010810E+00  1.190238053E+01  1.318244006E+01  1.920852421E+01  2.384185791E-07  0.00000E+00  9.000E+00
       2     1     1     2   515     0 -5.937375522E+00 -4.976658474E+00 -9.754277851E+02  9.754586062E+02  3.300000131E-01  0.00000E+00  9.000E+00
</event>
<event>
      5  10001  2.40292E+09  9.35861E+00 -1.00000E+00  1.99085E-01
      21    -1     0     0   512   516  0.000000000E+00  0.000000000E+00  3.467150231E+01  3.467150231E+01  0.000000000E+00  0.00000E+00  9.000E+00
      21    -1     0     0   513   512  0.000000000E+00  0.000000000E+00 -7.188980190E+01  7.188980190E+01  0.000000000E+00  0.00000E+00  9.000E+00
      21     1     1     2   513   514 -5.731406396E+00  1.010468204E+01 -6.807874663E+01  6.906279288E+01  9.536743164E-07  0.00000E+00  9.000E+00
      21     1     1     2   514   511 -1.352095728E+00 -4.947726627E+00  2.772047620E+01  2.819100853E+01  1.215700987E-06  0.00000E+00  9.000E+00
      21     1     1     2   511   516  7.083502123E+00 -5.156955415E+00  3.139970844E+00  9.307502801E+00  1.519626234E-07  0.00000E+00  9.000E+00
</event>
<event>
      5  10001  2.40292E+09  5.83749E+00 -1.00000E+00  2.27260E-01
      21    -1     0     0   512   514  0.000000000E+00  0.000000000E+00  6.607004804E+01  6.607004804E+01  0.000000000E+00  0.00000E+00  9.000E+00
      21    -1     0     0   513   516  0.000000000E+00  0.000000000E+00 -7.151367579E+01  7.151367579E+01  0.000000000E+00  0.00000E+00  9.000E+00
      21     1     1     2   515   516  2.250705316E+01  7.749102027E+00  4.003258697E+01  4.657492934E+01  6.743495762E-07  0.00000E+00  9.000E+00
      21     1     1     2   513   514 -2.471540063E+01 -2.345451355E+00 -6.555504324E+01  7.009861529E+01  9.536743164E-07  0.00000E+00  9.000E+00
      21     1     1     2   512   515  2.208347476E+00 -5.403650672E+00  2.007882853E+01  2.091017920E+01  0.000000000E+00  0.00000E+00  9.000E+00
</event>
<event>
      5  10001  2.40292E+09  5.22360E+00 -1.00000E+00  2.35158E-01
       1    -1     0     0   511     0  0.000000000E+00  0.000000000E+00  1.458461742E+01  1.458461742E+01  0.000000000E+00  0.00000E+00  9.000E+00
      21    -1     0     0   517   511  0.000000000E+00  0.000000000E+00 -1.308144614E+02  1.308144614E+02  0.000000000E+00  0.00000E+00  9.000E+00
      21     1     1     2   517   515 -1.176161149E+01 -2.496178873E+00 -8.641857184E+01  8.725099411E+01  1.907348633E-06  0.00000E+00  9.000E+00
      21     1     1     2   515   513  8.870204008E+00 -1.854100586E+00 -4.300748486E+01  4.395181409E+01  8.259061849E-07  0.00000E+00  9.000E+00
       1     1     1     2   513     0  2.891407479E+00  4.350279459E+00  1.319621273E+01  1.419627061E+01  3.300000131E-01  0.00000E+00  9.000E+00
</event>
<event>
      5  10001  2.40292E+09  4.44467E+00 -1.00000E+00  2.53030E-01
      21    -1     0     0   512   513  0.000000000E+00  0.000000000E+00  3.837887452E+01  3.837887452E+01  0.000000000E+00  0.00000E+00  9.000E+00
       3    -1     0     0   514     0  0.000000000E+00  0.000000000E+00 -4.114246318E+00  4.114246318E+00  0.000000000E+00  0.00000E+00  9.000E+00
      21     1     1     2   514   513 -1.218559994E+01 -1.593578382E+00  1.949820137E+01  2.304795424E+01  3.371747881E-07  0.00000E+00  9.000E+00
      21     1     1     2   512   511  3.734773802E+00  6.387258719E-01  6.784624795E+00  7.770948443E+00  1.192092896E-07  0.00000E+00  9.000E+00
       3     1     1     2   511     0  8.450826139E+00  9.548525098E-01  7.981802027E+00  1.167421815E+01  5.000000000E-01  0.00000E+00  9.000E+00
</event>
<event>
      5  10001  2.40292E+09  1.01682E+01 -1.00000E+00  1.94866E-01
      21    -1     0     0   515   513  0.000000000E+00  0.000000000E+00  1.020184045E+02  1.020184045E+02  0.000000000E+00  0.00000E+00  9.000E+00
       3    -1     0     0   516     0  0.000000000E+00  0.000000000E+00 -1.504958091E+02  1.504958091E+02  0.000000000E+00  0.00000E+00  9.000E+00
      21     1     1     2   516   514  7.916820070E+00 -2.098034518E+01 -3.632858295E+00  2.271670274E+01  6.502099105E-07  0.00000E+00  9.000E+00
      21     1     1     2   514   513  7.897965013E-01  1.572817169E+01  9.161505586E+01  9.295868772E+01  1.907348633E-06  0.00000E+00  9.000E+00
       3     1     1     2   515     0 -8.706616571E+00  5.252173490E+00 -1.364596022E+02  1.368388232E+02  5.000000000E-01  0.00000E+00  9.000E+00
</event>
<event>
      5  10001  2.40292E+09  1.50532E+01 -1.00000E+00  1.77191E-01
      21    -1     0     0   511   514  0.000000000E+00  0.000000000E+00  1.584385688E+02  1.584385688E+02  0.000000000E+00  0.00000E+00  9.000E+00
      21    -1     0     0   512   511  0.000000000E+00  0.000000000E+00 -1.039345618E+00  1.039345618E+00  0.000000000E+00  0.00000E+00  9.000E+00
      21     1     1     2   512   516 -6.253513651E+00 -4.891275931E+00  5.035564604E+01  5.097766277E+01  0.000000000E+00  0.00000E+00  9.000E+00
      21     1     1     2   513   514  8.572765198E+00 -2.744532922E+00  7.194306369E+01  7.250399422E+01  9.536743164E-07  0.00000E+00  9.000E+00
      21     1     1     2   516   513 -2.319251547E+00  7.635808853E+00  3.510051341E+01  3.599625739E+01  0.000000000E+00  0.00000E+00  9.000E+00
</event>
<event>
      5  10001  2.40292E+09  8.41590E+00 -1.00000E+00  2.04770E-01
       4    -1     0     0   513     0  0.000000000E+00  0.000000000E+00  1.453027840E+01  1.453027840E+01  0.000000000E+00  0.00000E+00  9.000E+00
      21    -1     0     0   515   511  0.000000000E+00  0.000000000E+00 -2.326029582E+01  2.326029582E+01  0.000000000E+00  0.00000E+00  9.000E+00
      21     1     1     2   513   512 -2.399721788E-01  8.489869203E+00 -1.605441755E+01  1.816259312E+01  2.384185791E-07  0.00000E+00  9.000E+00
       4     1     1     2   515     0 -4.361315470E+00 -1.154132722E+01  6.561330162E+00  1.405433599E+01  1.500000000E+00  0.00000E+00  9.000E+00
      21     1     1     2   512   511  4.601287648E+00  3.051458017E+00  7.630699802E-01  5.573645113E+00  5.960464478E-08  0.00000E+00  9.000E+00
</event>
<event>
      5  10001  2.40292E+09  9.01783E+00 -1.00000E+00  2.01033E-01
      21    -1     0     0   514   515  0.000000000E+00  0.000000000E+00  6.693369169E+01  6.693369169E+01  0.000000000E+00  0.00000E+00  9.000E+00
      21    -1     0     0   516   514  0.000000000E+00  0.000000000E+00 -8.689663061E+00  8.689663061E+00  0.000000000E+00  0.00000E+00  9.000E+00
      21     1     1     2   511   515  1.366384584E+01 -6.202494102E+00  5.630177118E+01  5.826715244E+01  9.536743164E-07  0.00000E+00  9.000E+00
      21     1     1     2   513   511 -7.695979323E+00  6.287343625E+00  4.442097124E+00  1.088535780E+01  3.153981341E-07  0.00000E+00  9.000E+00
      21     1     1     2   516   513 -5.967866512E+00 -8.484952266E-02 -2.499839678E+00  6.470844502E+00  4.140270945E-07  0.00000E+00  9.000E+00
</event>
<event>
      5  10001  2.40292E+09  3.63010E+00 -1.00000E+00  2.73694E-01
       3    -1     0     0   512     0  0.000000000E+00  0.000000000E+00  1.173919487E-01  1.173919487E-01  0.000000000E+00  0.00000E+00  9.000E+00
       2    -1     0     0   511     0  0.000000000E+00  0.000000000E+00 -9.725189822E+02  9.725189822E+02  0.000000000E+00  0.00000E+00  9.000E+00
       2     1     1     2   512     0  5.346739741E+00  8.863994153E+00 -4.627763545E+02  4.628922350E+02  3.300000131E-01  0.00000E+00  9.000E+00
      21     1     1     2   511   514 -4.272526194E+00 -3.563131902E+00 -2.708867267E+02  2.709438486E+02  3.814697266E-06  0.00000E+00  9.000E+00
       3     1     1     2   514     0 -1.074213547E+00 -5.300862251E+00 -2.387385090E+02  2.388002905E+02  5.000000000E-01  0.00000E+00  9.000E+00
</event>
<event>
      5  10001  2.40292E+09  1.17189E+01 -1.00000E+00  1.88063E-01
      21    -1     0     0   513   511  0.000000000E+00  0.000000000E+00  6.649175598E+01  6.649175598E+01  0.000000000E+00  0.00000E+00  9.000E+00
      21    -1     0     0   516   515  0.000000000E+00  0.000000000E+00 -9.990555921E+00  9.990555921E+00  0.000000000E+00  0.00000E+00  9.000E+00
      21     1     1     2   513   515 -1.782300001E+01 -5.793353038E+00  4.907256023E+01  5.252940545E+01  9.536743164E-07  0.00000E+00  9.000E+00
      21     1     1     2   512   511  5.901018848E+00  6.665130507E+00 -1.506706269E+00  9.028629569E+00  1.460009660E-07  0.00000E+00  9.000E+00
      21     1     1     2   516   512  1.192198116E+01 -8.717774686E-01  8.935346095E+00  1.492427689E+01  1.685873940E-07  0.00000E+00  9.000E+00
</event>
<event>
      5  10001  2.40292E+09  2.62976E+00 -1.00000E+00  3.15222E-01
       4    -1     0     0   515     0  0.000000000E+00  0.000000000E+00  5.917128749E+01  5.917128749E+01  0.000000000E+00  0.00000E+00  9.000E+00
       2    -1     0     0   514     0  0.000000000E+00  0.000000000E+00 -4.549569439E+02  4.549569439E+02  0.000000000E+00  0.00000E+00  9.000E+00
      21     1     1     2   515   512 -8.756297205E+00 -2.384556662E+00 -3.380383666E+01  3.500083177E+01  6.743495762E-07  0.00000E+00  9.000E+00
       4     1     1     2   514     0  1.133559139E+01  1.872150106E+00  5.799556032E+01  5.914165702E+01  1.500000000E+00  0.00000E+00  9.000E+00
       2     1     1     2   512     0 -2.579294188E+00  5.124065561E-01 -4.199773801E+02  4.199857426E+02  3.300000131E-01  0.00000E+00  9.000E+00
</event>
<event>
      5  10001  2.40292E+09  7.48362E+00 -1.00000E+00  2.11464E-01
      -3    -1     0     0     0   511  0.000000000E+00  0.000000000E+00  8.333238214E+02  8.333238214E+02  0.000000000E+00  0.00000E+00  9.000E+00
      21    -1     0     0   511   513  0.000000000E+00  0.000000000E+00 -9.596559896E-01  9.596559896E-01  0.000000000E+00  0.00000E+00  9.000E+00
      -3     1     1     2     0   514  1.498245423E+01  8.679604277E+00  7.267680334E+02  7.269744382E+02  5.000000000E-01  0.00000E+00  9.000E+00
      21     1     1     2   515   513 -1.233002594E+01 -1.017015579E+01  8.504203138E+01  8.653096966E+01  1.348699152E-06  0.00000E+00  9.000E+00
      21     1     1     2   514   515 -2.652428295E+00  1.490551511E+00  2.055410066E+01  2.077806954E+01  5.840038640E-07  0.00000E+00  9.000E+00
</event>
<event>
      5  10001  2.40292E+09  8.05648E+00 -1.00000E+00  2.07206E-01
      21    -1     0     0   513   514  0.000000000E+00  0.000000000E+00  2.901717935E+01  2.901717935E+01  0.000000000E+00  0.00000E+00  9.000E+00
      21    -1     0     0   511   516  0.000000000E+00  0.000000000E+00 -6.973683294E+01  6.973683294E+01  0.000000000E+00  0.00000E+00  9.000E+00
      21     1     1     2   512   516 -1.088770716E+01 -1.969556518E+00 -3.662549707E+01  3.826027125E+01  9.536743164E-07  0.00000E+00  9.000E+00
      21     1     1     2   511   514  1.203536479E+01 -6.004762481E+00 -3.026059328E+01  3.311511262E+01  7.539457465E-07  0.00000E+00  9.000E+00
      21     1     1     2   513   512 -1.147657632E+00  7.974318999E+00  2.616643676E+01  2.737862843E+01  4.768371582E-07  0.00000E+00  9.000E+00
</event>
<event>
      5  10001  2.40292E+09  1.42454E+01 -1.00000E+00  1.79473E-01
      21    -1     0     0   515   511  0.000000000E+00  0.000000000E+00  5.418995579E+00  5.418995579E+00  0.000000000E+00  0.00000E+00  9.000E+00
      21    -1     0     0   517   515  0.000000000E+00  0.000000000E+00 -7.844770516E+01  7.844770516E+01  0.000000000E+00  0.00000E+00  9.000E+00
      21     1     1     2   517   512  3.380512648E+00 -1.526640922E+01 -3.719861726E+01  4.035131029E+01  4.768371582E-07  0.00000E+00  9.000E+00
       2     1     1     2   512     0 -6.453033274E+00  1.414925431E+01 -3.691230470E+01  4.005583820E+01  3.300000131E-01  0.00000E+00  9.000E+00
      -2     1     1     2     0   511  3.072520626E+00  1.117154903E+00  1.082212379E+00  3.459552242E+00  3.300000131E-01  0.00000E+00  9.000E+00
</event>
<event>
      5  10001  2.40292E+09  2.76036E+00 -1.00000E+00  3.08137E-01
      21    -1     0     0   512   516  0.000000000E+00  0.000000000E+00  1.016629509E+01  1.016629509E+01  0.000000000E+00  0.00000E+00  9.000E+00
      21    -1     0     0   511   513  0.000000000E+00  0.000000000E+00 -7.195981309E+02  7.195981309E+02  0.000000000E+00  0.00000E+00  9.000E+00
      21     1     1     2   514   516 -5.593450213E+00 -1.398146381E+01 -1.323260184E+02  1.331801155E+02  4.264961200E-06  0.00000E+00  9.000E+00
      21     1     1     2   511   514  7.166177212E+00  1.171295406E+01 -5.865674971E+02  5.867281961E+02  1.321449896E-05  0.00000E+00  9.000E+00
      21     1     1     2   512   513 -1.572726999E+00  2.268509753E+00  9.461679763E+00  9.856114379E+00  1.685873940E-07  0.00000E+00  9.000E+00
</event>
<event>
      5  10001  2.40292E+09  1.80039E+01 -1.00000E+00  1.70183E-01
      21    -1     0     0   515   511  0.000000000E+00  0.000000000E+00  1.970308531E+01  1.970308531E+01  0.000000000E+00  0.00000E+00  9.000E+00
      21    -1     0     0   516   517  0.000000000E+00  0.000000000E+00 -5.748100687E+01  5.748100687E+01  0.000000000E+00  0.00000E+00  9.000E+00
      21     1     1     2   515   517  1.017062844E+01  4.306390793E+00 -5.138776403E+01  5.256128782E+01  6.743495762E-07  0.00000E+00  9.000E+00
      21     1     1     2   514   511  1.816089129E+00 -7.359474477E+00  8.062721076E+00  1.106650421E+01  3.371747881E-07  0.00000E+00  9.000E+00
      21     1     1     2   516   514 -1.198671757E+01  3.053083684E+00  5.547121392E+00  1.355630015E+01  3.039252468E-07  0.00000E+00  9.000E+00
</event>
<event>
      5  10001  2.40292E+09  4.57331E+00 -1.00000E+00  2.50379E-01
      21    -1     0     0   513   511  0.000000000E+00  0.000000000E+00  2.603867824E+01  2.603867824E+01  0.000000000E+00  0.00000E+00  9.000E+00
      -2    -1     0     0     0   512  0.000000000E+00  0.000000000E+00 -3.666482429E+01  3.666482429E+01  0.000000000E+00  0.00000E+00  9.000E+00
      -2     1     1     2     0   515  4.210644180E+00 -3.627435608E+00 -2.786180222E+01  2.841261580E+01  3.300000131E-01  0.00000E+00  9.000E+00
      21     1     1     2   513   512 -7.670244749E+00  8.021149377E+00  2.344216501E+01  2.593658791E+01  0.000000000E+00  0.00000E+00  9.000E+00
      21     1     1     2   515   511  3.459600569E+00 -4.393713769E+00 -6.206508842E+00  8.354298821E+00  8.429369702E-08  0.00000E+00  9.000E+00
</event>
<event>
      5  10001  2.40292E+09  1.46701E+01 -1.00000E+00  1.78250E-01
      21    -1     0     0   514   515  0.000000000E+00  0.000000000E+00  7.941534241E+00  7.941534241E+00  0.000000000E+00  0.00000E+00  9.000E+00
      21    -1     0     0   512   514  0.000000000E+00  0.000000000E+00 -1.339545575E+02  1.339545575E+02  0.000000000E+00  0.00000E+00  9.000E+00
      21     1     1     2   511   516 -6.442804905E+00 -2.162686572E+01 -7.939713664E+01  8.254172498E+01  1.348699152E-06  0.00000E+00  9.000E+00
      21     1     1     2   516   515  1.267772877E+01  8.347666012E+00 -6.268251537E+00  1.642252453E+01  3.264680848E-07  0.00000E+00  9.000E+00
      21     1     1     2   512   511 -6.234923863E+00  1.327919971E+01 -4.034763503E+01  4.293184218E+01  4.768371582E-07  0.00000E+00  9.000E+00
</event>
<event>
      5  10001  2.40292E+09  9.82502E+00 -1.00000E+00  1.96589E-01
      21    -1     0     0   513   516  0.000000000E+00  0.000000000E+00  3.950923623E+00  3.950923623E+00  0.000000000E+00  0.00000E+00  9.000E+00
      21    -1     0     0   512   511  0.000000000E+00  0.000000000E+00 -1.268799257E+02  1.268799257E+02  0.000000000E+00  0.00000E+00  9.000E+00
      21     1     1     2   513   511  4.320755621E+00 -1.541111649E+01 -9.812467519E+01  9.942144297E+01  1.348699152E-06  0.00000E+00  9.000E+00
      21     1     1     2   514   516  1.974394000E+00  1.118548227E+01 -1.762403244E+01  2.096711151E+01  6.743495762E-07  0.00000E+00  9.000E+00
      21     1     1     2   512   514 -6.295149621E+00  4.225634223E+00 -7.180294423E+00  1.044229483E+01  0.000000000E+00  0.00000E+00  9.000E+00
</event>
<event>
      5  10001  2.40292E+09  2.78921E+00 -1.00000E+00  3.06662E-01
      21    -1     0     0   511   515  0.000000000E+00  0.000000000E+00  5.904492419E+01  5.904492419E+01  0.000000000E+00  0.00000E+00  9.000E+00
       2    -1     0     0   515     0  0.000000000E+00  0.000000000E+00 -2.684726906E+02  2.684726906E+02  0.000000000E+00  0.00000E+00  9.000E+00
      21     1     1     2   514   512  1.284819823E-01  1.247616221E+01 -2.197885933E+01  2.527333355E+01  2.384185791E-07  0.00000E+00  9.000E+00
       2     1     1     2   512     0 -6.851646541E-01 -9.743073901E+00 -2.447151221E+02  2.449101811E+02  3.300000131E-01  0.00000E+00  9.000E+00
      21     1     1     2   511   514  5.566826717E-01 -2.733088313E+00  5.726621495E+01  5.733410017E+01  0.000000000E+00  0.00000E+00  9.000E+00
</event>
<event>
      5  10001  2.40292E+09  7.61530E+00 -1.00000E+00  2.10441E-01
      -1    -1     0     0     0   513  0.000000000E+00  0.000000000E+00  1.644312770E+02  1.644312770E+02  0.000000000E+00  0.00000E+00  9.000E+00
      -5    -1     0     0     0   511  0.000000000E+00  0.000000000E+00 -5.078824324E+00  5.078824324E+00  0.000000000E+00  0.00000E+00  9.000E+00
      -5     1     1     2     0   512 -3.428366395E+00 -5.102695297E+00  2.243006182E+00  8.115557528E+00  4.800000191E+00  0.00000E+00  9.000E+00
      -1     1     1     2     0   511  1.028370880E+01  2.860747404E+00  1.524151381E+02  1.527888142E+02  3.300000131E-01  0.00000E+00  9.000E+00
      21     1     1     2   512   513 -6.855342404E+00  2.241947893E+00  4.694308442E+00  8.605729579E+00  2.598106231E-07  0.00000E+00  9.000E+00
</event>
<event>
      5  10001  2.40292E+09  3.72678E+01 -1.00000E+00  1.46740E-01
      -2    -1     0     0     0   513  0.000000000E+00  0.000000000E+00  4.218602410E+02  4.218602410E+02  0.000000000E+00  0.00000E+00  9.000E+00
      21    -1     0     0   513   514  0.000000000E+00  0.000000000E+00 -2.116593854E+01  2.116593854E+01  0.000000000E+00  0.00000E+00  9.000E+00
      21     1     1     2   515   511 -2.665661192E+00  1.821395193E+01  1.466554753E+02  1.478062320E+02  1.907348633E-06  0.00000E+00  9.000E+00
      21     1     1     2   511   514 -9.578654867E+00 -1.713419507E+01 -1.573998842E+01  2.516105135E+01  1.238859277E-06  0.00000E+00  9.000E+00
      -2     1     1     2     0   515  1.224431606E+01 -1.079756863E+00  2.697788156E+02  2.700588961E+02  3.300000131E-01  0.00000E+00  9.000E+00
</event>
<event>
      5  10001  2.40292E+09  9.36902E+00 -1.00000E+00  1.99027E-01
       2    -1     0     0   514     0  0.000000000E+00  0.000000000E+00  8.379369259E+02  8.379369259E+02  0.000000000E+00  0.00000E+00  9.000E+00
      21    -1     0     0   511   514  0.000000000E+00  0.000000000E+00 -8.588976835E+00  8.588976835E+00  0.000000000E+00  0.00000E+00  9.000E+00
      21     1     1     2   513   512 -3.014051192E+00 -9.876665466E+00 -3.585276837E+00  1.093102170E+01  9.262722890E-07  0.00000E+00  9.000E+00
       2     1     1     2   512     0 -5.166376076E+00  9.630157169E+00  8.212915539E+02  8.213643264E+02  3.300000131E-01  0.00000E+00  9.000E+00
      21     1     1     2   511   513  8.180427268E+00  2.465082970E-01  1.164167198E+01  1.423055457E+01  3.371747881E-07  0.00000E+00  9.000E+00
</event>
<event>
      5  10001  2.40292E+09  1.25358E+01 -1.00000E+00  1.85003E-01
      21    -1     0     0   515   513  0.000000000E+00  0.000000000E+00  1.892824440E+00  1.892824440E+00  0.000000000E+00  0.00000E+00  9.000E+00
      21    -1     0     0   511   515  0.000000000E+00  0.000000000E+00 -6.195916047E+01  6.195916047E+01  0.000000000E+00  0.00000E+00  9.000E+00
      21     1     1     2   516   513 -2.843274324E+00  6.462354185E+00 -2.666910854E+01  2.758781580E+01  4.768371582E-07  0.00000E+00  9.000E+00
      21     1     1     2   512   516 -2.681112497E+00 -5.871853751E+00 -2.713678021E+01  2.789393968E+01  0.000000000E+00  0.00000E+00  9.000E+00
      21     1     1     2   511   512  5.524386821E+00 -5.905004349E-01 -6.260447282E+00  8.370229428E+00  0.000000000E+00  0.00000E+00  9.000E+00
</event>
<event>
      5  10001  2.40292E+09  4.70642E+00 -1.00000E+00  2.47771E-01
      21    -1     0     0   511   512  0.000000000E+00  0.000000000E+00  1.228651683E+00  1.228651683E+00  0.000000000E+00  0.00000E+00  9.000E+00
       2    -1     0     0   513     0  0.000000000E+00  0.000000000E+00 -8.557536580E+01  8.557536580E+01  0.000000000E+00  0.00000E+00  9.000E+00
      21     1     1     2   513   512 -8.738812437E+00  3.145113366E+00 -3.115929243E+01  3.251399830E+01  4.768371582E-07  0.00000E+00  9.000E+00
       2     1     1     2   514     0  5.753319520E+00 -8.395968351E-03 -3.991925988E+01  4.033307532E+01  3.300000131E-01  0.00000E+00  9.000E+00
      21     1     1     2   511   514  2.985492917E+00 -3.136717397E+00 -1.326816181E+01  1.395694385E+01  2.384185791E-07  0.00000E+00  9.000E+00
</event>
<event>
      5  10001  2.40292E+09  1.35920E+01 -1.00000E+00  1.81464E-01
      21    -1     0     0   515   513  0.000000000E+00  0.000000000E+00  5.273243947E+00  5.273243947E+00  0.000000000E+00  0.00000E+00  9.000E+00
      21    -1     0     0   512   517  0.000000000E+00  0.000000000E+00 -1.582976497E+02  1.582976497E+02  0.000000000E+00  0.00000E+00  9.000E+00
      21     1     1     2   515   516 -1.662576901E+01 -8.131842250E+00 -1.697252419E+01  2.511194200E+01  4.129530925E-07  0.00000E+00  9.000E+00
      21     1     1     2   512   513  1.079490731E+01 -4.145892444E+00 -4.857653393E+01  4.993393732E+01  6.743495762E-07  0.00000E+00  9.000E+00
      21     1     1     2   516   517  5.830861707E+00  1.227773469E+01 -8.747534762E+01  8.852501431E+01  1.907348633E-06  0.00000E+00  9.000E+00
</event>
<event>
      5  10001  2.40292E+09  1.46299E+01 -1.00000E+00  1.78364E-01
      21    -1     0     0   511   512  0.000000000E+00  0.000000000E+00  1.560381809E+01  1.560381809E+01  0.000000000E+00  0.00000E+00  9.000E+00
       1    -1     0     0   513     0  0.000000000E+00  0.000000000E+00 -3.332301025E+02  3.332301025E+02  0.000000000E+00  0.00000E+00  9.000E+00
      21     1     1     2   513   512  2.242852885E+01  3.089857785E+01 -1.326618742E+01  4.041970742E+01  7.348554138E-07  0.00000E+00  9.000E+00
       1     1     1     2   514     0 -1.575908916E+01 -3.732781138E+01 -2.533501131E+02  2.565698796E+02  3.300000131E-01  0.00000E+00  9.000E+00
      21     1     1     2   511   514 -6.669439690E+00  6.429233524E+00 -5.100998386E+01  5.184433357E+01  6.743495762E-07  0.00000E+00  9.000E+00
</event>
<event>
      5  10001  2.40292E+09  3.51761E+00 -1.00000E+00  2.77234E-01
      21    -1     0     0   515   513  0.000000000E+00  0.000000000E+00  2.575407560E+01  2.575407560E+01  0.000000000E+00  0.00000E+00  9.000E+00
      -1    -1     0     0     0   515  0.000000000E+00  0.000000000E+00 -4.597339809E+01  4.597339809E+01  0.000000000E+00  0.00000E+00  9.000E+00
      -1     1     1     2     0   511  1.051454804E+01 -1.937831751E+00 -4.322713412E+01  4.453094359E+01  3.300000131E-01  0.00000E+00  9.000E+00
      21     1     1     2   512   513 -8.709968324E+00  4.533817789E+00  2.161678160E+01  2.374245772E+01  5.331201500E-07  0.00000E+00  9.000E+00
      21     1     1     2   511   512 -1.804579711E+00 -2.595986038E+00  1.391030031E+00  3.454072378E+00  8.688795410E-08  0.00000E+00  9.000E+00
</event>
<event>
      5  10001  2.40292E+09  5.45171E+00 -1.00000E+00  2.32052E-01
      21    -1     0     0   514   513  0.000000000E+00  0.000000000E+00  4.094769815E+01  4.094769815E+01  0.000000000E+00  0.00000E+00  9.000E+00
      21    -1     0     0   511   516  0.000000000E+00  0.000000000E+00 -5.318094146E+01  5.318094146E+01  0.000000000E+00  0.00000E+00  9.000E+00
      21     1     1     2   514   516  7.381029939E+00  4.635292863E+00 -4.612528929E+01  4.694153657E+01  6.743495762E-07  0.00000E+00  9.000E+00
      21     1     1     2   511   512 -1.238065106E+01 -2.461606792E+00 -2.371553909E-01  1.262522362E+01  2.265852511E-07  0.00000E+00  9.000E+00
      21     1     1     2   512   513  4.999621122E+00 -2.173686071E+00  3.412920137E+01  3.456187942E+01  9.536743164E-07  0.00000E+00  9.000E+00
</event>
<event>
      5  10001  2.40292E+09  7.78088E+00 -1.00000E+00  2.09193E-01
      21    -1     0     0   515   511  0.000000000E+00  0.000000000E+00  4.525315877E+00  4.525315877E+00  0.000000000E+00  0.00000E+00  9.000E+00
      21    -1     0     0   517   513  0.000000000E+00  0.000000000E+00 -4.722432562E+01  4.722432562E+01  0.000000000E+00  0.00000E+00  9.000E+00
      21     1     1     2   515   513 -3.324633907E+00 -1.254536213E+01 -1.003713305E+01  1.640680778E+01  1.192092896E-07  0.00000E+00  9.000E+00
      21     1     1     2   517   514 -1.139374874E-01  2.768019476E+00 -4.009305518E+00  4.873340159E+00  8.429369702E-08  0.00000E+00  9.000E+00
      21     1     1     2   514   511  3.438571394E+00  9.777342657E+00 -2.865257118E+01  3.046949356E+01  8.259061849E-07  0.00000E+00  9.000E+00
</event>
<event>
      5  10001  2.40292E+09  4.91570E+00 -1.00000E+00  2.43924E-01
      21    -1     0     0   512   513  0.000000000E+00  0.000000000E+00  3.359193353E+02  3.359193353E+02  0.000000000E+00  0.00000E+00  9.000E+00
      21    -1     0     0   511   512  0.000000000E+00  0.000000000E+00 -2.078876259E+00  2.078876259E+00  0.000000000E+00  0.00000E+00  9.000E+00
      21     1     1     2   511   516 -1.675485949E+00  1.084094285E+01  1.433673620E+01  1.805201651E+01  5.840038640E-07  0.00000E+00  9.000E+00
      21     1     1     2   515   513 -7.984132275E-01 -8.258658326E+00  3.001623414E+02  3.002769957E+02  3.814697266E-06  0.00000E+00  9.000E+00
      21     1     1     2   516   515  2.473899176E+00 -2.582284523E+00  1.934138143E+01  1.966919943E+01  2.384185791E-07  0.00000E+00  9.000E+00
</event>
<event>
      5  10001  2.40292E+09  7.92642E+00 -1.00000E+00  2.08130E-01
      21    -1     0     0   514   515  0.000000000E+00  0.000000000E+00  4.823385071E+02  4.823385071E+02  0.000000000E+00  0.00000E+00  9.000E+00
      21    -1     0     0   517   514  0.000000000E+00  0.000000000E+00 -9.439655934E+00  9.439655934E+00  0.000000000E+00  0.00000E+00  9.000E+00
      21     1     1     2   517   511 -7.677419608E+00  1.572077241E+01 -7.473617000E-01  1.751125371E+01  1.418978674E-06  0.00000E+00  9.000E+00
      21     1     1     2   511   512  8.552687352E-01 -1.047769429E+01  3.970175284E+02  3.971566837E+02  5.394796609E-06  0.00000E+00  9.000E+00
      21     1     1     2   512   515  6.822150873E+00 -5.243078123E+00  7.662868448E+01  7.711022562E+01  1.348699152E-06  0.00000E+00  9.000E+00
</event>
<event>
      5  10001  2.40292E+09  1.43927E+01 -1.00000E+00  1.79043E-01
      21    -1     0     0   513   512  0.000000000E+00  0.000000000E+00  1.277498074E+01  1.277498074E+01  0.000000000E+00  0.00000E+00  9.000E+00
      21    -1     0     0   515   513  0.000000000E+00  0.000000000E+00 -1.241668461E+02  1.241668461E+02  0.000000000E+00  0.00000E+00  9.000E+00
      21     1     1     2   516   512 -1.970841909E+00  1.995716479E+01  3.370638923E+00  2.033553174E+01  2.950279396E-07  0.00000E+00  9.000E+00
      21     1     1     2   515   511  9.674435989E-02 -3.276745929E+00 -1.045605235E+01  1.095789460E+01  1.192092896E-07  0.00000E+00  9.000E+00
      21     1     1     2   511   516  1.874097550E+00 -1.668041886E+01 -1.043064520E+02  1.056484005E+02  0.000000000E+00  0.00000E+00  9.000E+00
</event>
<event>
      5  10001  2.40292E+09  1.46642E+01 -1.00000E+00  1.78267E-01
      21    -1     0     0   511   514  0.000000000E+00  0.000000000E+00  9.395840675E+01  9.395840675E+01  0.000000000E+00  0.00000E+00  9.000E+00
      21    -1     0     0   514   513  0.000000000E+00  0.000000000E+00 -1.390418637E+00  1.390418637E+00  0.000000000E+00  0.00000E+00  9.000E+00
      21     1     1     2   512   513 -9.900049038E+00  3.830370534E+00  4.015500263E+01  4.153440677E+01  4.768371582E-07  0.00000E+00  9.000E+00
       3     1     1     2   511     0  2.542014058E+00 -3.489515491E+00  2.711686431E+01  2.746293655E+01  5.000000000E-01  0.00000E+00  9.000E+00
      -3     1     1     2     0   512  7.358034981E+00 -3.408550427E-01  2.529612118E+01  2.635148208E+01  5.000000000E-01  0.00000E+00  9.000E+00
</event>
<event>
      5  10001  2.40292E+09  1.46429E+01 -1.00000E+00  1.78327E-01
      21    -1     0     0   515   512  0.000000000E+00  0.000000000E+00  8.593249470E+00  8.593249470E+00  0.000000000E+00  0.00000E+00  9.000E+00
      21    -1     0     0   514   515  0.000000000E+00  0.000000000E+00 -5.386524669E+01  5.386524669E+01  0.000000000E+00  0.00000E+00  9.000E+00
      21     1     1     2   516   512  8.003341018E+00 -7.302838543E+00  3.551601121E+00  1.140170113E+01  3.625608999E-07  0.00000E+00  9.000E+00
      21     1     1     2   514   511 -3.126257350E+00  6.244330534E+00 -1.190152665E+01  1.379896683E+01  1.685873940E-07  0.00000E+00  9.000E+00
      21     1     1     2   511   516 -4.877083668E+00  1.058508009E+00 -3.692207168E+01  3.725782819E+01  4.768371582E-07  0.00000E+00  9.000E+00
</event>
<event>
      5  10001  2.40292E+09  2.74337E+00 -1.00000E+00  3.09021E-01
      21    -1     0     0   513   512  0.000000000E+00  0.000000000E+00  1.986216473E+01  1.986216473E+01  0.000000000E+00  0.00000E+00  9.000E+00
       1    -1     0     0   517     0  0.000000000E+00  0.000000000E+00 -1.586693519E+01  1.586693519E+01  0.000000000E+00  0.00000E+00  9.000E+00
      21     1     1     2   517   516 -9.886064452E+00  2.050740497E-02  8.953178755E+00  1.333769473E+01  1.685873940E-07  0.00000E+00  9.000E+00
      21     1     1     2   516   512  1.186302243E+01 -1.921971610E+00  4.273872862E+00  1.275504862E+01  1.884864366E-07  0.00000E+00  9.000E+00
       1     1     1     2   513     0 -1.976957980E+00  1.901464205E+00 -9.231822074E+00  9.636356562E+00  3.300000131E-01  0.00000E+00  9.000E+00
</event>
<event>
      5  10001  2.40292E+09  1.30786E+01 -1.00000E+00  1.83131E-01
      21    -1     0     0   514   512  0.000000000E+00  0.000000000E+00  3.863711346E+01  3.863711346E+01  0.000000000E+00  0.00000E+00  9.000E+00
      -5    -1     0     0     0   511  0.000000000E+00  0.000000000E+00 -2.223740927E+02  2.223740927E+02  0.000000000E+00  0.00000E+00  9.000E+00
      -5     1     1     2     0   512 -1.718385578E+01 -1.338723947E+01 -2.118053030E+02  2.129765937E+02  4.800000191E+00  0.00000E+00  9.000E+00
      21     1     1     2   514   515  5.446708935E+00  1.092604422E+01  3.291018425E+01  3.510164253E+01  1.719260824E-06  0.00000E+00  9.000E+00
      21     1     1     2   515   511  1.173714685E+01  2.461195246E+00 -4.841860492E+00  1.293296993E+01  2.665600750E-07  0.00000E+00  9.000E+00
</event>
<event>
      5  10001  2.40292E+09  7.74170E+00 -1.00000E+00  2.09485E-01
      21    -1     0     0   513   511  0.000000000E+00  0.000000000E+00  2.258572493E+00  2.258572493E+00  0.000000000E+00  0.00000E+00  9.000E+00
      21    -1     0     0   512   516  0.000000000E+00  0.000000000E+00 -1.121604058E+02  1.121604058E+02  0.000000000E+00  0.00000E+00  9.000E+00
      21     1     1     2   513   516  1.077422944E+01  8.682968734E+00 -3.112097505E+01  3.405867076E+01  5.840038640E-07  0.00000E+00  9.000E+00
      21     1     1     2   514   511 -4.404405339E+00 -7.169425704E+00 -3.056747256E+01  3.170441341E+01  3.371747881E-07  0.00000E+00  9.000E+00
      21     1     1     2   512   514 -6.369824105E+00 -1.513543030E+00 -4.821338570E+01  4.865589411E+01  9.536743164E-07  0.00000E+00  9.000E+00
</event>
<event>
      5  10001  2.40292E+09  9.34771E+00 -1.00000E+00  1.99145E-01
      21    -1     0     0   515   514  0.000000000E+00  0.000000000E+00  3.368559160E+00  3.368559160E+00  0.000000000E+00  0.00000E+00  9.000E+00
      21    -1     0     0   512   515  0.000000000E+00  0.000000000E+00 -4.211008324E+02  4.211008324E+02  0.000000000E+00  0.00000E+00  9.000E+00
      21     1     1     2   512   517  9.518325821E+00 -4.588622163E+00 -3.964348181E+02  3.965756157E+02  5.394796609E-06  0.00000E+00  9.000E+00
      21     1     1     2   517   511 -8.806659540E-01  2.513216771E+00  1.754689551E+00  3.189163916E+00  8.696458615E-07  0.00000E+00  9.000E+00
      21     1     1     2   511   514 -8.637659867E+00  2.075405392E+00 -2.305214469E+01  2.470461192E+01  3.371747881E-07  0.00000E+00  9.000E+00
</event>
<event>
      5  10001  2.40292E+09  3.94759E+00 -1.00000E+00  2.64718E-01
      21    -1     0     0   513   516  0.000000000E+00  0.000000000E+00  1.955341497E+02  1.955341497E+02  0.000000000E+00  0.00000E+00  9.000E+00
      21    -1     0     0   514   513  0.000000000E+00  0.000000000E+00 -1.879472326E+01  1.879472326E+01  0.000000000E+00  0.00000E+00  9.000E+00
      21     1     1     2   514   512  6.949185301E+00 -8.055775029E+00 -1.670882733E+01  1.980837193E+01  2.384185791E-07  0.00000E+00  9.000E+00
      21     1     1     2   512   515 -9.660961632E+00  8.895691822E+00  1.871709725E+02  1.876311287E+02  0.000000000E+00  0.00000E+00  9.000E+00
      21     1     1     2   515   516  2.711776331E+00 -8.399167928E-01  6.277281269E+00  6.889372339E+00  1.460009660E-07  0.00000E+00  9.000E+00
</event>
<event>
      5  10001  2.40292E+09  1.22420E+01 -1.00000E+00  1.86068E-01
      21    -1     0     0   511   512  0.000000000E+00  0.000000000E+00  5.979369947E+00  5.979369947E+00  0.000000000E+00  0.00000E+00  9.000E+00
      21    -1     0     0   514   516  0.000000000E+00  0.000000000E+00 -3.816966288E+01  3.816966288E+01  0.000000000E+00  0.00000E+00  9.000E+00
      21     1     1     2   511   516 -4.021768908E+00 -1.207467662E+01 -2.085876119E+01  2.443481858E+01  2.384185791E-07  0.00000E+00  9.000E+00
      21     1     1     2   514   513  4.882382181E+00  4.129482282E+00 -9.603820288E+00  1.153792199E+01  1.685873940E-07  0.00000E+00  9.000E+00
      21     1     1     2   513   512 -8.606132726E-01  7.945194337E+00 -1.727711456E+00  8.176292260E+00  5.161913656E-08  0.00000E+00  9.000E+00
</event>
<event>
      5  10001  2.40292E+09  3.07068E+00 -1.00000E+00  2.93696E-01
       2    -1     0     0   511     0  0.000000000E+00  0.000000000E+00  1.196381665E+02  1.196381665E+02  0.000000000E+00  0.00000E+00  9.000E+00
       3    -1     0     0   514     0  0.000000000E+00  0.000000000E+00 -8.470575246E+00  8.470575246E+00  0.000000000E+00  0.00000E+00  9.000E+00
       2     1     1     2   513     0  1.108359421E+01 -7.310057410E+00  1.024044774E+02  1.032621368E+02  3.300000131E-01  0.00000E+00  9.000E+00
       3     1     1     2   511     0 -8.024519891E+00  7.050866121E+00  1.469097932E+01  1.817092474E+01  5.000000000E-01  0.00000E+00  9.000E+00
      21     1     1     2   514   513 -3.059074315E+00  2.591912890E-01 -5.927865536E+00  6.675680160E+00  2.528810911E-07  0.00000E+00  9.000E+00
</event>
<event>
      5  10001  2.40292E+09  4.87653E+00 -1.00000E+00  2.44622E-01
      -2    -1     0     0     0   513  0.000000000E+00  0.000000000E+00  1.582556639E+02  1.582556639E+02  0.000000000E+00  0.00000E+00  9.000E+00
      21    -1     0     0   514   512  0.000000000E+00  0.000000000E+00 -6.687506269E+01  6.687506269E+01  0.000000000E+00  0.00000E+00  9.000E+00
      21     1     1     2   515   513 -1.003553003E+01  7.098765750E+00 -8.705685384E-01  1.232323933E+01  2.381856347E-07  0.00000E+00  9.000E+00
      21     1     1     2   514   515  1.173473419E+01 -2.527871231E+00 -5.964083784E+01  6.083686101E+01  9.536743164E-07  0.00000E+00  9.000E+00
      -2     1     1     2     0   512 -1.699204163E+00 -4.570894519E+00  1.518920076E+02  1.519706262E+02  3.300000131E-01  0.00000E+00  9.000E+00
</event>
<event>
      5  10001  2.40292E+09  3.95382E+00 -1.00000E+00  2.64555E-01
      21    -1     0     0   511   514  0.000000000E+00  0.000000000E+00  6.518815374E+02  6.518815374E+02  0.000000000E+00  0.00000E+00  9.000E+00
      21    -1     0     0   516   511  0.000000000E+00  0.000000000E+00 -1.193370019E+00  1.193370019E+00  0.000000000E+00  0.00000E+00  9.000E+00
      21     1     1     2   512   514 -6.260324936E+00 -1.551655058E+01  5.845026243E+02  5.847420566E+02  0.000000000E+00  0.00000E+00  9.000E+00
      21     1     1     2   513   512  1.077993508E+00  6.384916313E+00  2.690404427E+01  2.767231151E+01  6.743495762E-07  0.00000E+00  9.000E+00
      21     1     1     2   516   513  5.182331428E+00  9.131634268E+00  3.928149886E+01  4.066053930E+01  4.768371582E-07  0.00000E+00  9.000E+00
</event>
<event>
      5  10001  2.40292E+09  3.66371E+00 -1.00000E+00  2.72676E-01
      21    -1     0     0   515   513  0.000000000E+00  0.000000000E+00  2.111522611E+01  2.111522611E+01  0.000000000E+00  0.00000E+00  9.000E+00
      21    -1     0     0   511   517  0.000000000E+00  0.000000000E+00 -2.381117641E+01  2.381117641E+01  0.000000000E+00  0.00000E+00  9.000E+00
      21     1     1     2   515   517 -8.905076494E+00 -7.771435570E+00  1.259735211E+01  1.727393639E+01  2.920019320E-07  0.00000E+00  9.000E+00
      21     1     1     2   514   513  5.414747898E+00  6.657702228E+00  2.927301438E+00  9.067170863E+00  1.115100797E-07  0.00000E+00  9.000E+00
      21     1     1     2   511   514  3.490328596E+00  1.113733342E+00 -1.822060385E+01  1.858529527E+01  0.000000000E+00  0.00000E+00  9.000E+00
</event>
<event>
      5  10001  2.40292E+09  1.35954E+01 -1.00000E+00  1.81453E-01
       1    -1     0     0   512     0  0.000000000E+00  0.000000000E+00  6.086460357E+01  6.086460357E+01  0.000000000E+00  0.00000E+00  9.000E+00
      21    -1     0     0   511   516  0.000000000E+00  0.000000000E+00 -3.560099553E+01  3.560099553E+01  0.000000000E+00  0.00000E+00  9.000E+00
      21     1     1     2   512   516  2.645889003E+01  6.150285927E+00 -1.108247939E+01  2.933803382E+01  7.725644944E-07  0.00000E+00  9.000E+00
      21     1     1     2   511   514 -3.004811531E+01 -1.926295450E+01  9.345411093E+00  3.689562790E+01  7.907449699E-07  0.00000E+00  9.000E+00
       1     1     1     2   514     0  3.589225279E+00  1.311266858E+01  2.700067634E+01  3.023193739E+01  3.300000131E-01  0.00000E+00  9.000E+00
</event>
<event>
      5  10001  2.40292E+09  4.60861E+00 -1.00000E+00  2.49675E-01
      21    -1     0     0   512   511  0.000000000E+00  0.000000000E+00  1.064706092E+00  1.064706092E+00  0.000000000E+00  0.00000E+00  9.000E+00
      21    -1     0     0   517   515  0.000000000E+00  0.000000000E+00 -4.163322399E+02  4.163322399E+02  0.000000000E+00  0.00000E+00  9.000E+00
      21     1     1     2   513   515 -9.155960195E+00 -1.764562120E+00 -1.648758983E+02  1.651393567E+02  3.303624740E-06  0.00000E+00  9.000E+00
      21     1     1     2   517   511  9.887087398E+00  6.314806683E+00 -2.444823510E+02  2.447636640E+02  0.000000000E+00  0.00000E+00  9.000E+00
      21     1     1     2   512   513 -7.311272034E-01 -4.550244563E+00 -5.909284500E+00  7.493925265E+00  3.371747881E-07  0.00000E+00  9.000E+00
</event>
<event>
      5  10001  2.40292E+09  3.75069E+00 -1.00000E+00  2.70120E-01
       2    -1     0     0   512     0  0.000000000E+00  0.000000000E+00  1.694035680E+00  1.694035680E+00  0.000000000E+00  0.00000E+00  9.000E+00
      -3    -1     0     0     0   512  0.000000000E+00  0.000000000E+00 -1.597291757E+02  1.597291757E+02  0.000000000E+00  0.00000E+00  9.000E+00
      -3     1     1     2     0   511 -8.466000051E+00  5.166286984E+00 -1.238877813E+02  1.242851400E+02  5.000000000E-01  0.00000E+00  9.000E+00
       2     1     1     2   514     0  8.211636660E+00 -6.270324321E+00 -1.660876415E+01  1.956292132E+01  3.300000131E-01  0.00000E+00  9.000E+00
      21     1     1     2   511   514  2.543633909E-01  1.104037337E+00 -1.753859458E+01  1.757515004E+01  3.371747881E-07  0.00000E+00  9.000E+00
</event>
<event>
      5  10001  2.40292E+09  1.09882E+01 -1.00000E+00  1.91087E-01
      21    -1     0     0   513   512  0.000000000E+00  0.000000000E+00  2.777604839E+02  2.777604839E+02  0.000000000E+00  0.00000E+00  9.000E+00
       2    -1     0     0   511     0  0.000000000E+00  0.000000000E+00 -7.759906754E+02  7.759906754E+02  0.000000000E+00  0.00000E+00  9.000E+00
      21     1     1     2   511   514  8.297641622E+00  4.276368906E+00 -3.650658781E+02  3.651852045E+02  9.344061824E-06  0.00000E+00  9.000E+00
       2     1     1     2   513     0 -6.017583949E+00 -1.502538304E+01 -4.105968635E+02  4.109158876E+02  3.300000131E-01  0.00000E+00  9.000E+00
      21     1     1     2   514   512 -2.280057673E+00  1.074901413E+01  2.774325501E+02  2.776500672E+02  6.607249480E-06  0.00000E+00  9.000E+00
</event>
<event>
      5  10001  2.40292E+09  5.54686E+00 -1.00000E+00  2.30820E-01
      -1    -1     0     0     0   512  0.000000000E+00  0.000000000E+00  4.261060974E+02  4.261060974E+02  0.000000000E+00  0.00000E+00  9.000E+00
       3    -1     0     0   512     0  0.000000000E+00  0.000000000E+00 -1.686297855E+00  1.686297855E+00  0.000000000E+00  0.00000E+00  9.000E+00
      -1     1     1     2     0   511 -8.985759824E+00  1.488470583E+00  3.768932771E+02  3.770034623E+02  3.300000131E-01  0.00000E+00  9.000E+00
      21     1     1     2   511   515  9.300955555E+00 -7.025120003E+00  3.807536050E+01  3.981950731E+01  1.784161275E-06  0.00000E+00  9.000E+00
       3     1     1     2   515     0 -3.151957301E-01  5.536649419E+00  9.451161975E+00  1.096942559E+01  5.000000000E-01  0.00000E+00  9.000E+00
</event>
<event>
      5  10001  2.40292E+09  3.45657E+00 -1.00000E+00  2.79244E-01
      21    -1     0     0   513   516  0.000000000E+00  0.000000000E+00  1.763794423E+02  1.763794423E+02  0.000000000E+00  0.00000E+00  9.000E+00
      21    -1     0     0   512   514  0.000000000E+00  0.000000000E+00 -1.888053118E+01  1.888053118E+01  0.000000000E+00  0.00000E+00  9.000E+00
      21     1     1     2   513   514  6.147724855E+00 -8.438600540E+00 -8.715400035E+00  1.360009918E+01  2.920019320E-07  0.00000E+00  9.000E+00
      21     1     1     2   512   511 -9.039876622E+00  6.545631474E+00 -3.663622766E+00  1.174677796E+01  1.931411236E-07  0.00000E+00  9.000E+00
      21     1     1     2   511   516  2.892151767E+00  1.892969066E+00  1.698779339E+02  1.699130963E+02  0.000000000E+00  0.00000E+00  9.000E+00
</event>
<event>
      5  10001  2.40292E+09  1.19702E+01 -1.00000E+00  1.87089E-01
      21    -1     0     0   515   511  0.000000000E+00  0.000000000E+00  2.470843810E+02  2.470843810E+02  0.000000000E+00  0.00000E+00  9.000E+00
      21    -1     0     0   516   515  0.000000000E+00  0.000000000E+00 -3.834008456E+00  3.834008456E+00  0.000000000E+00  0.00000E+00  9.000E+00
      21     1     1     2   512   511  2.518645016E+01  1.636406605E+00  5.470450520E+01  6.024631099E+01  9.536743164E-07  0.00000E+00  9.000E+00
      21     1     1     2   516   513 -1.713944678E+01  7.806852868E-01  8.092873575E+01  8.272744633E+01  1.348699152E-06  0.00000E+00  9.000E+00
      21     1     1     2   513   512 -8.047003378E+00 -2.417091891E+00  1.076171316E+02  1.079446321E+02  1.348699152E-06  0.00000E+00  9.000E+00
</event>
<event>
      5  10001  2.40292E+09  7.27098E+00 -1.00000E+00  2.13179E-01
      21    -1     0     0   514   511  0.000000000E+00  0.000000000E+00  3.873541575E+01  3.873541575E+01  0.000000000E+00  0.00000E+00  9.000E+00
      21    -1     0     0   517   514  0.000000000E+00  0.000000000E+00 -7.314228323E+00  7.314228323E+00  0.000000000E+00  0.00000E+00  9.000E+00
      21     1     1     2   517   512 -6.526576959E+00 -6.077616761E+00 -2.190617193E+00  9.183269351E+00  1.264405455E-07  0.00000E+00  9.000E+00
      21     1     1     2   512   515  8.014517830E+00  1.335665758E+00  2.889087560E+01  3.001165093E+01  4.768371582E-07  0.00000E+00  9.000E+00
      21     1     1     2   515   511 -1.487940871E+00  4.741951003E+00  4.720929023E+00  6.854723787E+00  1.032382731E-07  0.00000E+00  9.000E+00
</event>
<event>
      5  10001  2.40292E+09  1.55107E+01 -1.00000E+00  1.75978E-01
       2    -1     0     0   514     0  0.000000000E+00  0.000000000E+00  2.064655658E+02  2.064655658E+02  0.000000000E+00  0.00000E+00  9.000E+00
      21    -1     0     0   512   514  0.000000000E+00  0.000000000E+00 -1.320016541E+00  1.320016541E+00  0.000000000E+00  0.00000E+00  9.000E+00
      21     1     1     2   512   516 -5.908151782E+00  1.331077751E+00  7.767282343E+00  9.849299491E+00  2.064765462E-07  0.00000E+00  9.000E+00
       2     1     1     2   513     0  4.882890878E+00  5.762434852E+00  1.140807817E+02  1.143310191E+02  3.300000131E-01  0.00000E+00  9.000E+00
      21     1     1     2   516   513  1.025260904E+00 -7.093512603E+00  8.329748522E+01  8.360526374E+01  0.000000000E+00  0.00000E+00  9.000E+00
</event>
<event>
      5  10001  2.40292E+09  5.70689E+00 -1.00000E+00  2.28823E-01
       3    -1     0     0   511     0  0.000000000E+00  0.000000000E+00  3.315655308E+00  3.315655308E+00  0.000000000E+00  0.00000E+00  9.000E+00
       1    -1     0     0   514     0  0.000000000E+00  0.000000000E+00 -3.049606035E+02  3.049606035E+02  0.000000000E+00  0.00000E+00  9.000E+00
       1     1     1     2   511     0  5.955694042E+00 -1.175639697E+01 -1.348085781E+02  1.354516326E+02  3.300000131E-01  0.00000E+00  9.000E+00
       3     1     1     2   512     0 -1.044371691E+01  8.232374082E+00 -1.210955096E+01  1.799262156E+01  5.000000000E-01  0.00000E+00  9.000E+00
      21     1     1     2   514   512  4.488022873E+00  3.524022890E+00 -1.547268191E+02  1.548320046E+02  0.000000000E+00  0.00000E+00  9.000E+00
</event>
<event>
      5  10001  2.40292E+09  1.46673E+01 -1.00000E+00  1.78258E-01
      21    -1     0     0   513   512  0.000000000E+00  0.000000000E+00  9.033071961E+00  9.033071961E+00  0.000000000E+00  0.00000E+00  9.000E+00
      21    -1     0     0   514   513  0.000000000E+00  0.000000000E+00 -2.649225665E+01  2.649225665E+01  0.000000000E+00  0.00000E+00  9.000E+00
      21     1     1     2   514   515 -6.281967503E+00  3.266702185E+00 -1.177003218E+01  1.373565129E+01  1.685873940E-07  0.00000E+00  9.000E+00
      21     1     1     2   515   511  3.213541018E+00 -6.771664639E+00  5.744426873E+00  9.443554836E+00  3.264680848E-07  0.00000E+00  9.000E+00
      21     1     1     2   511   512  3.068426485E+00  3.504962454E+00 -1.143357938E+01  1.234612248E+01  0.000000000E+00  0.00000E+00  9.000E+00
</event>
<event>
      5  10001  2.40292E+09  6.63209E+00 -1.00000E+00  2.18848E-01
      21    -1     0     0   511   512  0.000000000E+00  0.000000000E+00  7.528050887E+01  7.528050887E+01  0.000000000E+00  0.00000E+00  9.000E+00
      21    -1     0     0   515   513  0.000000000E+00  0.000000000E+00 -1.124794599E+01  1.124794599E+01  0.000000000E+00  0.00000E+00  9.000E+00
      21     1     1     2   515   512  1.576588161E+01 -8.119786951E+00  6.143701552E+01  6.394529567E+01  9.536743164E-07  0.00000E+00  9.000E+00
       4     1     1     2   511     0 -1.041056475E+01  4.237642798E+00  8.027705715E+00  1.389357887E+01  1.500000000E+00  0.00000E+00  9.000E+00
      -4     1     1     2     0   513 -5.355316863E+00  3.882144152E+00 -5.432158343E+00  8.689580322E+00  1.500000000E+00  0.00000E+00  9.000E+00
</event>
<event>
      5  10001  2.40292E+09  6.63808E+00 -1.00000E+00  2.18791E-01
      21    -1     0     0   513   515  0.000000000E+00  0.000000000E+00  4.230067617E+01  4.230067617E+01  0.000000000E+00  0.00000E+00  9.000E+00
      21    -1     0     0   514   513  0.000000000E+00  0.000000000E+00 -1.511239295E+01  1.511239295E+01  0.000000000E+00  0.00000E+00  9.000E+00
      -1     1     1     2     0   515  9.984305099E-01 -1.125976765E+01  3.540340865E+01  3.716570294E+01  3.300000131E-01  0.00000E+00  9.000E+00
      21     1     1     2   514   511  2.836343001E+00  8.655134038E+00 -1.141611619E+01  1.460424239E+01  4.129530925E-07  0.00000E+00  9.000E+00
       1     1     1     2   511     0 -3.834773511E+00  2.604633609E+00  3.200990758E+00  5.643123777E+00  3.300000131E-01  0.00000E+00  9.000E+00
</event>
<event>
      5  10001  2.40292E+09  9.09839E+00 -1.00000E+00  2.00562E-01
      21    -1     0     0   512   514  0.000000000E+00  0.000000000E+00  6.289870776E+01  6.289870776E+01  0.000000000E+00  0.00000E+00  9.000E+00
      21    -1     0     0   515   513  0.000000000E+00  0.000000000E+00 -4.839465515E+01  4.839465515E+01  0.000000000E+00  0.00000E+00  9.000E+00
      21     1     1     2   512   516 -5.130908212E+00  4.857721614E+00 -3.437452089E+01  3.509318117E+01  6.743495762E-07  0.00000E+00  9.000E+00
      21     1     1     2   515   514  1.349273351E+01 -8.443892604E+00  5.985955975E+01  6.193964864E+01  6.743495762E-07  0.00000E+00  9.000E+00
      21     1     1     2   516   513 -8.361825302E+00  3.586170990E+00 -1.098098625E+01  1.426053308E+01  2.384185791E-07  0.00000E+00  9.000E+00
</event>
<event>
      5  10001  2.40292E+09  6.07715E+00 -1.00000E+00  2.24536E-01
      21    -1     0     0   513   512  0.000000000E+00  0.000000000E+00  1.244969596E+02  1.244969596E+02  0.000000000E+00  0.00000E+00  9.000E+00
      -2    -1     0     0     0   511  0.000000000E+00  0.000000000E+00 -5.951146982E+01  5.951146982E+01  0.000000000E+00  0.00000E+00  9.000E+00
      -2     1     1     2     0   514 -1.900417302E+01 -3.538205697E+00 -5.801374867E+00  2.018520107E+01  3.300000131E-01  0.00000E+00  9.000E+00
      21     1     1     2   513   511  2.497569229E+01  4.665898114E+00 -4.296163875E+01  4.991250559E+01  1.348699152E-06  0.00000E+00  9.000E+00
      21     1     1     2   514   512 -5.971519264E+00 -1.127692416E+00  1.137485034E+02  1.139107227E+02  1.348699152E-06  0.00000E+00  9.000E+00
</event>
<event>
      5  10001  2.40292E+09  5.31634E+00 -1.00000E+00  2.33869E-01
      21    -1     0     0   515   511  0.000000000E+00  0.000000000E+00  2.123830945E+02  2.123830945E+02  0.000000000E+00  0.00000E+00  9.000E+00
      21    -1     0     0   512   515  0.000000000E+00  0.000000000E+00 -8.800151456E+00  8.800151456E+00  0.000000000E+00  0.00000E+00  9.000E+00
      21     1     1     2   516   511 -6.332079024E+00 -9.907806267E+00  2.053416026E+02  2.056779852E+02  0.000000000E+00  0.00000E+00  9.000E+00
      21     1     1     2   513   516  4.302329455E+00  3.976107465E+00 -5.639753078E+00  8.131806939E+00  1.192092896E-07  0.00000E+00  9.000E+00
      21     1     1     2   512   513  2.029749569E+00  5.931698802E+00  3.881093546E+00  7.373453811E+00  1.264405455E-07  0.00000E+00  9.000E+00
</event>
<event>
      5  10001  2.40292E+09  9.63090E-01 -1.00000E+00  6.81959E-01
       4    -1     0     0   512     0  0.000000000E+00  0.000000000E+00  1.369925114E+00  1.369925114E+00  0.000000000E+00  0.00000E+00  9.000E+00
      21    -1     0     0   514   513  0.000000000E+00  0.000000000E+00 -1.121426798E+02  1.121426798E+02  0.000000000E+00  0.00000E+00  9.000E+00
      21     1     1     2   512   511 -5.011464372E+00 -3.075981710E+00 -4.291718179E+01  4.331813629E+01  6.743495762E-07  0.00000E+00  9.000E+00
       4     1     1     2   514     0  9.094720264E+00  6.570077109E+00 -3.210121302E+01  3.403847422E+01  1.500000000E+00  0.00000E+00  9.000E+00
      21     1     1     2   511   513 -4.083255892E+00 -3.494095399E+00 -3.575435988E+01  3.615599441E+01  0.000000000E+00  0.00000E+00  9.000E+00
</event>
<event>
      5  10001  2.40292E+09  9.27216E+00 -1.00000E+00  1.99568E-01
       2    -1     0     0   511     0  0.000000000E+00  0.000000000E+00  4.171293939E+00  4.171293939E+00  0.000000000E+00  0.00000E+00  9.000E+00
       2    -1     0     0   512     0  0.000000000E+00  0.000000000E+00 -4.195100649E+01  4.195100649E+01  0.000000000E+00  0.00000E+00  9.000E+00
       2     1     1     2   511     0 -8.042395722E+00  4.202505023E+00 -3.035666904E+01  3.168560292E+01  3.300000131E-01  0.00000E+00  9.000E+00
      21     1     1     2   512   514  1.779398501E+00  5.553852955E-01  1.604060682E+00  2.459211769E+00  1.053671213E-07  0.00000E+00  9.000E+00
       2     1     1     2   514     0  6.262997221E+00 -4.757890319E+00 -9.027104197E+00  1.197748574E+01  3.300000131E-01  0.00000E+00  9.000E+00
</event>
<event>
      5  10001  2.40292E+09  8.02929E+00 -1.00000E+00  2.07397E-01
      21    -1     0     0   513   512  0.000000000E+00  0.000000000E+00  9.812328317E+01  9.812328317E+01  0.000000000E+00  0.00000E+00  9.000E+00
      21    -1     0     0   516   515  0.000000000E+00  0.000000000E+00 -1.485069955E+01  1.485069955E+01  0.000000000E+00  0.00000E+00  9.000E+00
      21     1     1     2   513   515  4.230327607E-01 -1.114865876E+01  9.353062678E+01  9.419368182E+01  1.348699152E-06  0.00000E+00  9.000E+00
      21     1     1     2   516   511 -4.621253854E+00  4.643167256E+00 -8.686660925E+00  1.087993876E+01  5.960464478E-07  0.00000E+00  9.000E+00
      21     1     1     2   511   512  4.198221094E+00  6.505491500E+00 -1.571382235E+00  7.900362152E+00  3.209808354E-07  0.00000E+00  9.000E+00
</event>
<event>
      5  10001  2.40292E+09  6.74475E+00 -1.00000E+00  2.17786E-01
      21    -1     0     0   513   515  0.000000000E+00  0.000000000E+00  1.333430142E+01  1.333430142E+01  0.000000000E+00  0.00000E+00  9.000E+00
      21    -1     0     0   517   512  0.000000000E+00  0.000000000E+00 -1.137358529E+02  1.137358529E+02  0.000000000E+00  0.00000E+00  9.000E+00
      21     1     1     2   514   512  3.499267933E+00 -2.679096189E+01 -9.358846918E+01  9.741048238E+01  0.000000000E+00  0.00000E+00  9.000E+00
      21     1     1     2   517   515  1.106528343E+00  2.186365486E+01 -6.770786696E+00  2.291478477E+01  5.057621821E-07  0.00000E+00  9.000E+00
      21     1     1     2   513   514 -4.605796276E+00  4.927307038E+00 -4.229560603E-02  6.744887168E+00  9.625231199E-08  0.00000E+00  9.000E+00
</event>
<event>
      5  10001  2.40292E+09  5.34144E+00 -1.00000E+00  2.33526E-01
      21    -1     0     0   511   514  0.000000000E+00  0.000000000E+00  1.581683220E+01  1.581683220E+01  0.000000000E+00  0.00000E+00  9.000E+00
      21    -1     0     0   516   511  0.000000000E+00  0.000000000E+00 -3.013633571E+02  3.013633571E+02  0.000000000E+00  0.00000E+00  9.000E+00
      21     1     1     2   517   514 -1.367310121E+00  1.060004668E+01  1.349370150E+01  1.721367208E+01  7.348554138E-07  0.00000E+00  9.000E+00
      21     1     1     2   516   512  5.453432586E+00 -1.055152391E+01 -2.871150761E+02  2.873606471E+02  3.814697266E-06  0.00000E+00  9.000E+00
      21     1     1     2   512   517 -4.086122465E+00 -4.852277012E-02 -1.192515030E+01  1.260587010E+01  1.685873940E-07  0.00000E+00  9.000E+00
</event>
<event>
      5  10001  2.40292E+09  2.30421E+01 -1.00000E+00  1.61411E-01
      21    -1     0     0   512   515  0.000000000E+00  0.000000000E+00  1.526294026E+02  1.526294026E+02  0.000000000E+00  0.00000E+00  9.000E+00
      -4    -1     0     0     0   511  0.000000000E+00  0.000000000E+00 -1.133923500E+01  1.133923500E+01  0.000000000E+00  0.00000E+00  9.000E+00
      -4     1     1     2     0   515  2.966187270E+01 -3.530734575E+00  2.701030183E+01  4.030011394E+01  1.500000000E+00  0.00000E+00  9.000E+00
      21     1     1     2   512   513 -1.093041781E+01  1.693384487E+01  7.903871336E+01  8.156805346E+01  0.000000000E+00  0.00000E+00  9.000E+00
      21     1     1     2   513   511 -1.873145489E+01 -1.340311030E+01  3.524115239E+01  4.210047019E+01  6.743495762E-07  0.00000E+00  9.000E+00
</event>
<event>
      5  10001  2.40292E+09  4.75478E+00 -1.00000E+00  2.46856E-01
      21    -1     0     0   512   511  0.000000000E+00  0.000000000E+00  2.595760027E+01  2.595760027E+01  0.000000000E+00  0.00000E+00  9.000E+00
      21    -1     0     0   515   516  0.000000000E+00  0.000000000E+00 -2.246564696E+02  2.246564696E+02  0.000000000E+00  0.00000E+00  9.000E+00
      21     1     1     2   514   516  1.296504661E+01  7.144097315E+00 -2.088300258E+02  2.093540308E+02  2.697398305E-06  0.00000E+00  9.000E+00
      21     1     1     2   515   511 -9.343962561E+00 -4.062589436E+00 -1.363586015E+01  1.702207247E+01  1.118282261E-06  0.00000E+00  9.000E+00
      21     1     1     2   512   514 -3.621084051E+00 -3.081507878E+00  2.376701665E+01  2.423796651E+01  8.259061849E-07  0.00000E+00  9.000E+00
</event>
<event>
      5  10001  2.40292E+09  2.02165E+01 -1.00000E+00  1.65943E-01
      21    -1     0     0   515   511  0.000000000E+00  0.000000000E+00  1.960456646E+00  1.960456646E+00  0.000000000E+00  0.00000E+00  9.000E+00
       1    -1     0     0   511     0  0.000000000E+00  0.000000000E+00 -8.075416407E+01  8.075416407E+01  0.000000000E+00  0.00000E+00  9.000E+00
      21     1     1     2   515   513 -6.386699173E+00  1.026034075E+00 -1.415368918E+01  1.556179905E+01  2.920019320E-07  0.00000E+00  9.000E+00
      21     1     1     2   513   516  1.710925620E+00  8.752415467E-03  5.416480778E-01  1.794638048E+00  1.056302106E-07  0.00000E+00  9.000E+00
       1     1     1     2   516     0  4.675773553E+00 -1.034786491E+00 -6.518166633E+01  6.535818363E+01  3.300000131E-01  0.00000E+00  9.000E+00
</event>
<event>
      5  10001  2.40292E+09  5.15609E+00 -1.00000E+00  2.36121E-01
      21    -1     0     0   515   513  0.000000000E+00  0.000000000E+00  1.107375018E+01  1.107375018E+01  0.000000000E+00  0.00000E+00  9.000E+00
      21    -1     0     0   511   514  0.000000000E+00  0.000000000E+00 -1.373067899E+03  1.373067899E+03  0.000000000E+00  0.00000E+00  9.000E+00
      21     1     1     2   512   514  1.143892798E+01 -4.874062746E+00 -1.296480356E+03  1.296539980E+03  1.525878906E-05  0.00000E+00  9.000E+00
      21     1     1     2   511   513 -9.024347022E+00  3.182955205E-01 -7.567250113E+01  7.620936673E+01  3.568322551E-06  0.00000E+00  9.000E+00
      21     1     1     2   515   512 -2.414580958E+00  4.555767226E+00  1.015870808E+01  1.139230293E+01  1.455134823E-06  0.00000E+00  9.000E+00
</event>
<event>
      5  10001  2.40292E+09  6.49555E+00 -1.00000E+00  2.20175E-01
      21    -1     0     0   516   511  0.000000000E+00  0.000000000E+00  7.533575875E+00  7.533575875E+00  0.000000000E+00  0.00000E+00  9.000E+00
      -1    -1     0     0     0   512  0.000000000E+00  0.000000000E+00 -5.513060894E+01  5.513060894E+01  0.000000000E+00  0.00000E+00  9.000E+00
      -1     1     1     2     0   511 -1.093523032E+01  4.997839146E+00 -4.537653907E+01  4.694354968E+01  3.300000131E-01  0.00000E+00  9.000E+00
      21     1     1     2   516   513  4.668847154E+00 -5.459259113E+00  2.767535877E+00  7.698110069E+00  1.931411236E-07  0.00000E+00  9.000E+00
      21     1     1     2   513   512  6.266383171E+00  4.614199675E-01 -4.988029869E+00  8.022525065E+00  5.960464478E-08  0.00000E+00  9.000E+00
</event>
<event>
      5  10001  2.40292E+09  5.04073E+00 -1.00000E+00  2.37815E-01
      21    -1     0     0   514   511  0.000000000E+00  0.000000000E+00  3.515286167E+01  3.515286167E+01  0.000000000E+00  0.00000E+00  9.000E+00
      21    -1     0     0   513   512  0.000000000E+00  0.000000000E+00 -1.348430586E+02  1.348430586E+02  0.000000000E+00  0.00000E+00  9.000E+00
      21     1     1     2   514   512  2.394891753E-01 -1.270907160E+01 -9.770469348E+01  9.852809236E+01  1.348699152E-06  0.00000E+00  9.000E+00
       4     1     1     2   513     0  4.794402115E+00  1.291627586E+01 -3.520519141E+01  3.783479848E+01  1.500000000E+00  0.00000E+00  9.000E+00
      -4     1     1     2     0   511 -5.033891291E+00 -2.072042627E-01  3.321968800E+01  3.363302939E+01  1.500000000E+00  0.00000E+00  9.000E+00
</event>
<event>
      5  10001  2.40292E+09  1.21102E+01 -1.00000E+00  1.86559E-01
      21    -1     0     0   515   512  0.000000000E+00  0.000000000E+00  7.343815616E+01  7.343815616E+01  0.000000000E+00  0.00000E+00  9.000E+00
      -1    -1     0     0     0   515  0.000000000E+00  0.000000000E+00 -1.857537347E+02  1.857537347E+02  0.000000000E+00  0.00000E+00  9.000E+00
      21     1     1     2   511   516  1.816700903E+01 -8.669379813E+00 -6.594869170E+00  2.118231958E+01  5.717076687E-07  0.00000E+00  9.000E+00
      21     1     1     2   516   512 -6.095826684E+00  7.698957245E+00  6.556482672E+01  6.629615033E+01  1.348699152E-06  0.00000E+00  9.000E+00
      -1     1     1     2     0   511 -1.207118235E+01  9.704225679E-01 -1.712855361E+02  1.717134210E+02  3.300000131E-01  0.00000E+00  9.000E+00
</event>
<event>
      5  10001  2.40292E+09  2.83431E+00 -1.00000E+00  3.04415E-01
       2    -1     0     0   511     0  0.000000000E+00  0.000000000E+00  1.271564229E+03  1.271564229E+03  0.000000000E+00  0.00000E+00  9.000E+00
      21    -1     0     0   514   511  0.000000000E+00  0.000000000E+00 -5.688758028E-01  5.688758028E-01  0.000000000E+00  0.00000E+00  9.000E+00
      21     1     1     2   514   512 -5.969621183E+00  1.458346031E+00  2.350650226E+01  2.429647708E+01  1.719260824E-06  0.00000E+00  9.000E+00
       2     1     1     2   513     0  1.089028424E+01 -2.356300480E+00  1.205408318E+03  1.205459859E+03  3.300000131E-01  0.00000E+00  9.000E+00
      21     1     1     2   512   513 -4.920663060E+00  8.979544489E-01  4.208053303E+01  4.237676849E+01  8.259061849E-07  0.00000E+00  9.000E+00
</event>
<event>
      5  10001  2.40292E+09  4.92434E+00 -1.00000E+00  2.43772E-01
      21    -1     0     0   513   514  0.000000000E+00  0.000000000E+00  4.106589401E+02  4.106589401E+02  0.000000000E+00  0.00000E+00  9.000E+00
      21    -1     0     0   515   513  0.000000000E+00  0.000000000E+00 -5.077030206E-01  5.077030206E-01  0.000000000E+00  0.00000E+00  9.000E+00
      -4     1     1     2     0   511  5.302868105E+00 -8.435386218E+00  2.617663414E+02  2.619601948E+02  1.500000000E+00  0.00000E+00  9.000E+00
       4     1     1     2   515     0 -3.584526550E+00  1.149111417E+01  1.149932410E+02  1.156312674E+02  1.500000000E+00  0.00000E+00  9.000E+00
      21     1     1     2   511   514 -1.718341555E+00 -3.055727947E+00  3.339165465E+01  3.357518088E+01  4.768371582E-07  0.00000E+00  9.000E+00
</event>
<event>
      5  10001  2.40292E+09  7.09425E+00 -1.00000E+00  2.14665E-01
      21    -1     0     0   512   511  0.000000000E+00  0.000000000E+00  3.780349245E+01  3.780349245E+01  0.000000000E+00  0.00000E+00  9.000E+00
      21    -1     0     0   514   512  0.000000000E+00  0.000000000E+00 -1.827875641E+01  1.827875641E+01  0.000000000E+00  0.00000E+00  9.000E+00
      21     1     1     2   514   516 -9.779190219E+00 -2.307195755E+00 -1.400433318E+01  1.723592358E+01  3.769728732E-07  0.00000E+00  9.000E+00
       5     1     1     2   516     0  7.901663120E+00  6.868449580E+00  2.702429113E+01  2.937625219E+01  4.800000191E+00  0.00000E+00  9.000E+00
      -5     1     1     2     0   511  1.877527099E+00 -4.561253824E+00  6.504778091E+00  9.470073089E+00  4.800000191E+00  0.00000E+00  9.000E+00
</event>
<event>
      5  10001  2.40292E+09  9.52944E+00 -1.00000E+00  1.98149E-01
       2    -1     0     0   515     0  0.000000000E+00  0.000000000E+00  4.062319833E+02  4.062319833E+02  0.000000000E+00  0.00000E+00  9.000E+00
      21    -1     0     0   513   514  0.000000000E+00  0.000000000E+00 -5.544780311E+02  5.544780311E+02  0.000000000E+00  0.00000E+00  9.000E+00
      21     1     1     2   515   512 -4.758623740E+00  1.064718784E+01 -5.453784080E+02  5.455030843E+02  7.629394531E-06  0.00000E+00  9.000E+00
       2     1     1     2   513     0  1.047334806E+01 -3.021431633E+00  4.035632411E+02  4.037105628E+02  3.300000131E-01  0.00000E+00  9.000E+00
      21     1     1     2   512   514 -5.714724320E+00 -7.625756210E+00 -6.430880894E+00  1.149636729E+01  1.884864366E-07  0.00000E+00  9.000E+00
</event>
<event>
      5  10001  2.40292E+09  4.21311E+00 -1.00000E+00  2.58165E-01
      21    -1     0     0   515   513  0.000000000E+00  0.000000000E+00  1.375531420E+01  1.375531420E+01  0.000000000E+00  0.00000E+00  9.000E+00
      -1    -1     0     0     0   511  0.000000000E+00  0.000000000E+00 -4.721266187E+01  4.721266187E+01  0.000000000E+00  0.00000E+00  9.000E+00
      -1     1     1     2     0   513  1.369853423E+01  1.483110084E+00 -3.866895030E+01  4.105174872E+01  3.300000131E-01  0.00000E+00  9.000E+00
      21     1     1     2   514   511 -9.546921557E+00 -7.669789474E-01 -3.533933797E+00  1.020885185E+01  7.300048300E-08  0.00000E+00  9.000E+00
      21     1     1     2   515   514 -4.151612676E+00 -7.161311366E-01  8.745536434E+00  9.707375502E+00  1.192092896E-07  0.00000E+00  9.000E+00
</event>
<event>
      5  10001  2.40292E+09  1.46791E+01 -1.00000E+00  1.78225E-01
       3    -1     0     0   514     0  0.000000000E+00  0.000000000E+00  2.831104102E+00  2.831104102E+00  0.000000000E+00  0.00000E+00  9.000E+00
      21    -1     0     0   512   511  0.000000000E+00  0.000000000E+00 -5.230348401E+01  5.230348401E+01  0.000000000E+00  0.00000E+00  9.000E+00
      21     1     1     2   514   511 -6.326645533E+00  3.186280904E+00 -8.737085653E+00  1.124791071E+01  1.685873940E-07  0.00000E+00  9.000E+00
      21     1     1     2   512   513  6.557079817E+00  4.922968772E+00 -2.004601979E+01  2.165811226E+01  3.371747881E-07  0.00000E+00  9.000E+00
       3     1     1     2   513     0 -2.304342845E-01 -8.109249675E+00 -2.068927447E+01  2.222856514E+01  5.000000000E-01  0.00000E+00  9.000E+00
</event>
<event>
      5  10001  2.40292E+09  1.36241E+01 -1.00000E+00  1.81363E-01
      21    -1     0     0   515   511  0.000000000E+00  0.000000000E+00  2.482845990E+02  2.482845990E+02  0.000000000E+00  0.00000E+00  9.000E+00
      21    -1     0     0   512   516  0.000000000E+00  0.000000000E+00 -4.748442152E+00  4.748442152E+00  0.000000000E+00  0.00000E+00  9.000E+00
      21     1     1     2   515   516 -1.893122456E+01  3.321409042E+00  2.744338661E+01  3.350466371E+01  6.743495762E-07  0.00000E+00  9.000E+00
      21     1     1     2   517   511  5.733387136E+00  5.970262473E-02  1.900565090E+02  1.901429776E+02  0.000000000E+00  0.00000E+00  9.000E+00
      21     1     1     2   512   517  1.319783742E+01 -3.381111667E+00  2.603626120E+01  2.938539988E+01  0.000000000E+00  0.00000E+00  9.000E+00
</event>
<event>
      5  10001  2.40292E+09  6.79517E+00 -1.00000E+00  2.17320E-01
      21    -1     0     0   513   512  0.000000000E+00  0.000000000E+00  7.783997656E+00  7.783997656E+00  0.000000000E+00  0.00000E+00  9.000E+00
      -4    -1     0     0     0   513  0.000000000E+00  0.000000000E+00 -1.627882495E+02  1.627882495E+02  0.000000000E+00  0.00000E+00  9.000E+00
      -4     1     1     2     0   511 -1.427427414E+01  3.701764865E+00 -1.479732259E+02  1.487137638E+02  1.500000000E+00  0.00000E+00  9.000E+00
      21     1     1     2   511   514  1.185195742E+01 -8.406407733E+00 -2.205454083E+00  1.469695932E+01  8.591136518E-07  0.00000E+00  9.000E+00
      21     1     1     2   514   512  2.422316724E+00  4.704642867E+00 -4.825571937E+00  7.161524093E+00  0.000000000E+00  0.00000E+00  9.000E+00
</event>
<event>
      5  10001  2.40292E+09  9.88963E+00 -1.00000E+00  1.96257E-01
      -3    -1     0     0     0   512  0.000000000E+00  0.000000000E+00  1.812311660E+01  1.812311660E+01  0.000000000E+00  0.00000E+00  9.000E+00
       1    -1     0     0   512     0  0.000000000E+00  0.000000000E+00 -6.103254622E+00  6.103254622E+00  0.000000000E+00  0.00000E+00  9.000E+00
      -3     1     1     2     0   513  6.846103680E+00 -4.117178925E+00  5.859551698E+00  9.919911492E+00  5.000000000E-01  0.00000E+00  9.000E+00
       1     1     1     2   511     0 -2.961649629E+00  2.020766114E+00 -2.637648160E+00  4.463289374E+00  3.300000131E-01  0.00000E+00  9.000E+00
      21     1     1     2   513   511 -3.884454051E+00  2.096412811E+00  8.797958443E+00  9.843170359E+00  0.000000000E+00  0.00000E+00  9.000E+00
</event>
<event>
      5  10001  2.40292E+09  3.99648E+00 -1.00000E+00  2.63452E-01
       1    -1     0     0   514     0  0.000000000E+00  0.000000000E+00  4.908151801E+02  4.908151801E+02  0.000000000E+00  0.00000E+00  9.000E+00
       2    -1     0     0   512     0  0.000000000E+00  0.000000000E+00 -2.377642577E+01  2.377642577E+01  0.000000000E+00  0.00000E+00  9.000E+00
      21     1     1     2   512   511 -5.249973421E+00  1.896318856E+01  3.217474040E+00  1.993782537E+01  2.021291847E-07  0.00000E+00  9.000E+00
       2     1     1     2   514     0  2.112588662E+00 -1.648760786E+01 -1.092282230E+01  1.989274216E+01  3.300000131E-01  0.00000E+00  9.000E+00
       1     1     1     2   511     0  3.137384759E+00 -2.475580700E+00  4.747441026E+02  4.747610383E+02  3.300000131E-01  0.00000E+00  9.000E+00
</event>
<event>
      5  10001  2.40292E+09  1.41576E+01 -1.00000E+00  1.79733E-01
      -3    -1     0     0     0   513  0.000000000E+00  0.000000000E+00  1.031573788E+01  1.031573788E+01  0.000000000E+00  0.00000E+00  9.000E+00
      21    -1     0     0   513   515  0.000000000E+00  0.000000000E+00 -1.647121418E+01  1.647121418E+01  0.000000000E+00  0.00000E+00  9.000E+00
      21     1     1     2   514   512  6.639757026E+00 -5.150645295E+00 -6.411876074E+00  1.057013127E+01  1.685873940E-07  0.00000E+00  9.000E+00
      21     1     1     2   512   515 -3.351619669E+00  7.331985032E+00 -5.104255594E+00  9.541739049E+00  1.032382731E-07  0.00000E+00  9.000E+00
      -3     1     1     2     0   514 -3.288137357E+00 -2.181339737E+00  5.360655361E+00  6.675081740E+00  5.000000000E-01  0.00000E+00  9.000E+00
</event>
<event>
      5  10001  2.40292E+09  6.34166E+00 -1.00000E+00  2.21724E-01
      -2    -1     0     0     0   514  0.000000000E+00  0.000000000E+00  6.241699253E+02  6.241699253E+02  0.000000000E+00  0.00000E+00  9.000E+00
      21    -1     0     0   513   511  0.000000000E+00  0.000000000E+00 -9.737594496E+02  9.737594496E+02  0.000000000E+00  0.00000E+00  9.000E+00
      21     1     1     2   516   514 -9.072834425E+00 -3.687109372E+00 -8.760928105E+01  8.815496144E+01  4.156969970E-06  0.00000E+00  9.000E+00
      21     1     1     2   513   516  1.272979720E+01  8.868158643E+00 -8.857932419E+02  8.859290938E+02  1.525878906E-05  0.00000E+00  9.000E+00
      -2     1     1     2     0   511 -3.656962771E+00 -5.181049271E+00  6.238129987E+02  6.238453196E+02  3.300000131E-01  0.00000E+00  9.000E+00
</event>
<event>
      5  10001  2.40292E+09  4.32701E+00 -1.00000E+00  2.55578E-01
       1    -1     0     0   512     0  0.000000000E+00  0.000000000E+00  1.880656734E+02  1.880656734E+02  0.000000000E+00  0.00000E+00  9.000E+00
      21    -1     0     0   514   515  0.000000000E+00  0.000000000E+00 -4.000588709E+01  4.000588709E+01  0.000000000E+00  0.00000E+00  9.000E+00
      21     1     1     2   512   515  8.395196045E+00 -2.790534925E+00 -3.570590189E+01  3.678556553E+01  0.000000000E+00  0.00000E+00  9.000E+00
      21     1     1     2   514   511 -1.184171475E+01  1.743593338E-01  5.657475999E+00  1.312492454E+01  2.230201594E-07  0.00000E+00  9.000E+00
       1     1     1     2   511     0  3.446518708E+00  2.616175591E+00  1.781082122E+02  1.781610705E+02  3.300000131E-01  0.00000E+00  9.000E+00
</event>
<event>
      5  10001  2.40292E+09  4.53217E+01 -1.00000E+00  1.41524E-01
      21    -1     0     0   511   513  0.000000000E+00  0.000000000E+00  2.375279650E+00  2.375279650E+00  0.000000000E+00  0.00000E+00  9.000E+00
       2    -1     0     0   514     0  0.000000000E+00  0.000000000E+00 -2.499403420E+02  2.499403420E+02  0.000000000E+00  0.00000E+00  9.000E+00
      21     1     1     2   514   513 -1.870026305E+00 -5.277239594E+00 -1.913910078E+01  1.994119944E+01  0.000000000E+00  0.00000E+00  9.000E+00
       2     1     1     2   512     0  6.714146777E+00 -1.537381227E+01 -1.561851818E+02  1.570839068E+02  3.300000131E-01  0.00000E+00  9.000E+00
      21     1     1     2   511   512 -4.844120473E+00  2.065105186E+01 -7.224077978E+01  7.529051540E+01  1.651812370E-06  0.00000E+00  9.000E+00
</event>
<event>
      5  10001  2.40292E+09  5.79721E+00 -1.00000E+00  2.27736E-01
      -2    -1     0     0     0   514  0.000000000E+00  0.000000000E+00  2.378982237E+02  2.378982237E+02  0.000000000E+00  0.00000E+00  9.000E+00
      21    -1     0     0   516   515  0.000000000E+00  0.000000000E+00 -4.709276689E+01  4.709276689E+01  0.000000000E+00  0.00000E+00  9.000E+00
      21     1     1     2   512   514 -9.170894248E+00 -4.903487371E+00  5.389006378E+01  5.488431892E+01  9.536743164E-07  0.00000E+00  9.000E+00
      21     1     1     2   516   512  1.443876229E+01  7.323605441E+00 -4.514163608E+01  4.795706790E+01  1.066240300E-06  0.00000E+00  9.000E+00
      -2     1     1     2     0   515 -5.267868037E+00 -2.420118070E+00  1.820570291E+02  1.821496037E+02  3.300000131E-01  0.00000E+00  9.000E+00
</event>
<event>
      5  10001  2.40292E+09  1.20694E+01 -1.00000E+00  1.86712E-01
      21    -1     0     0   511   515  0.000000000E+00  0.000000000E+00  1.877695487E+00  1.877695487E+00  0.000000000E+00  0.00000E+00  9.000E+00
      21    -1     0     0   514   513  0.000000000E+00  0.000000000E+00 -6.278859446E+01  6.278859446E+01  0.000000000E+00  0.00000E+00  9.000E+00
      21     1     1     2   511   513  8.903640083E-01  7.553675456E+00 -1.746188722E+01  1.904647648E+01  2.384185791E-07  0.00000E+00  9.000E+00
      21     1     1     2   512   515 -1.496701274E+00 -2.148744727E+00 -3.737499369E+01  3.746661676E+01  4.768371582E-07  0.00000E+00  9.000E+00
      21     1     1     2   514   512  6.063372661E-01 -5.404930729E+00 -6.074018069E+00  8.153196709E+00  1.192092896E-07  0.00000E+00  9.000E+00
</event>
<event>
      5  10001  2.40292E+09  3.74329E+00 -1.00000E+00  2.70333E-01
      21    -1     0     0   516   511  0.000000000E+00  0.000000000E+00  9.183756157E+01  9.183756157E+01  0.000000000E+00  0.00000E+00  9.000E+00
      21    -1     0     0   514   516  0.000000000E+00  0.000000000E+00 -7.305217388E+01  7.305217388E+01  0.000000000E+00  0.00000E+00  9.000E+00
      21     1     1     2   512   515  5.818044844E+00 -1.066984047E+01  2.237534275E+00  1.235725298E+01  1.429269172E-07  0.00000E+00  9.000E+00
      21     1     1     2   514   512 -2.122851260E+00  1.007169857E+01 -6.756089740E+01  6.834047459E+01  9.536743164E-07  0.00000E+00  9.000E+00
      21     1     1     2   515   511 -3.695193585E+00  5.981418980E-01  8.410875081E+01  8.419200789E+01  9.536743164E-07  0.00000E+00  9.000E+00
</event>
<event>
      5  10001  2.40292E+09  4.93976E+00 -1.00000E+00  2.43501E-01
      21    -1     0     0   513   512  0.000000000E+00  0.000000000E+00  7.619096950E+01  7.619096950E+01  0.000000000E+00  0.00000E+00  9.000E+00
      21    -1     0     0   511   513  0.000000000E+00  0.000000000E+00 -7.270244886E+01  7.270244886E+01  0.000000000E+00  0.00000E+00  9.000E+00
      21     1     1     2   511   517 -1.096207972E+00 -1.122325247E+01 -6.369136736E+01  6.468193986E+01  6.743495762E-07  0.00000E+00  9.000E+00
      21     1     1     2   517   514  5.511441408E+00  9.008100953E+00 -5.124830587E+00  1.173821782E+01  2.920019320E-07  0.00000E+00  9.000E+00
      21     1     1     2   514   512 -4.415233436E+00  2.215151519E+00  7.230471859E+01  7.247326068E+01  0.000000000E+00  0.00000E+00  9.000E+00
</event>
<event>
      5  10001  2.40292E+09  1.60193E+01 -1.00000E+00  1.74689E-01
      21    -1     0     0   515   516  0.000000000E+00  0.000000000E+00  5.849486345E+02  5.849486345E+02  0.000000000E+00  0.00000E+00  9.000E+00
      21    -1     0     0   511   512  0.000000000E+00  0.000000000E+00 -1.383660560E+00  1.383660560E+00  0.000000000E+00  0.00000E+00  9.000E+00
      21     1     1     2   515   512  5.633256777E+00 -9.776252273E+00  2.979824760E+01  3.186289771E+01  1.118282261E-06  0.00000E+00  9.000E+00
      21     1     1     2   511   513 -2.773974976E+00  1.762172153E+00  5.017929996E+02  5.018037611E+02  1.078959322E-05  0.00000E+00  9.000E+00
      21     1     1     2   513   516 -2.859281801E+00  8.014080120E+00  5.197372680E+01  5.266563633E+01  0.000000000E+00  0.00000E+00  9.000E+00
</event>
<event>
      5  10001  2.40292E+09  7.26663E+00 -1.00000E+00  2.13215E-01
       2    -1     0     0   511     0  0.000000000E+00  0.000000000E+00  6.964588016E+02  6.964588016E+02  0.000000000E+00  0.00000E+00  9.000E+00
      21    -1     0     0   512   514  0.000000000E+00  0.000000000E+00 -3.717124559E+00  3.717124559E+00  0.000000000E+00  0.00000E+00  9.000E+00
      21     1     1     2   511   514 -1.527954888E+00  8.377452350E+00  4.005571610E+02  4.006476701E+02  7.629394531E-06  0.00000E+00  9.000E+00
       2     1     1     2   513     0 -4.204527182E+00 -1.284288498E+01  2.919450727E+02  2.922578521E+02  3.300000131E-01  0.00000E+00  9.000E+00
      21     1     1     2   512   513  5.732482070E+00  4.465432631E+00  2.394432844E-01  7.270403865E+00  3.673616032E-07  0.00000E+00  9.000E+00
</event>
<event>
      5  10001  2.40292E+09  7.51918E+00 -1.00000E+00  2.11185E-01
      21    -1     0     0   515   513  0.000000000E+00  0.000000000E+00  4.239854992E+01  4.239854992E+01  0.000000000E+00  0.00000E+00  9.000E+00
      21    -1     0     0   512   516  0.000000000E+00  0.000000000E+00 -2.370459895E+01  2.370459895E+01  0.000000000E+00  0.00000E+00  9.000E+00
      21     1     1     2   515   516  1.217600018E+01 -1.546658416E+01 -1.443804782E+01  2.441162491E+01  2.920019320E-07  0.00000E+00  9.000E+00
      21     1     1     2   512   511 -1.609090413E+01  1.292347549E+01  2.713483874E+01  3.409153690E+01  4.768371582E-07  0.00000E+00  9.000E+00
      21     1     1     2   511   513  3.914903950E+00  2.543108664E+00  5.997160049E+00  7.599987057E+00  1.460009660E-07  0.00000E+00  9.000E+00
</event>
<event>
      5  10001 -2.40292E+09  1.84424E+01 -1.00000E+00  1.69285E-01
      21    -1     0     0   514   515  0.000000000E+00  0.000000000E+00  5.231224962E+02  5.231224962E+02  0.000000000E+00  0.00000E+00  9.000E+00
      21    -1     0     0   513   514  0.000000000E+00  0.000000000E+00 -3.441407601E+01  3.441407601E+01  0.000000000E+00  0.00000E+00  9.000E+00
      21     1     1     2   512   511  2.276633995E+00  2.109932922E+01  4.023035137E+02  4.028628574E+02  5.394796609E-06  0.00000E+00  9.000E+00
      21     1     1     2   513   512 -9.448543481E+00 -4.108588912E+00 -3.263031149E+01  3.421830950E+01  1.430511475E-06  0.00000E+00  9.000E+00
      21     1     1     2   511   515  7.171909486E+00 -1.699074031E+01  1.190352180E+02  1.204554053E+02  1.348699152E-06  0.00000E+00  9.000E+00
</event>
<event>
      5  10001  2.40292E+09  6.78504E+00 -1.00000E+00  2.17413E-01
      -3    -1     0     0     0   513  0.000000000E+00  0.000000000E+00  6.520302649E+01  6.520302649E+01  0.000000000E+00  0.00000E+00  9.000E+00
      21    -1     0     0   511   515  0.000000000E+00  0.000000000E+00 -1.561759103E+02  1.561759103E+02  0.000000000E+00  0.00000E+00  9.000E+00
      21     1     1     2   516   515 -1.306006772E+01 -8.781882051E+00  2.318881579E+01  2.802513156E+01  1.118282261E-06  0.00000E+00  9.000E+00
      21     1     1     2   511   513  1.790352329E+01  4.030381691E+00 -1.529127690E+02  1.540100485E+02  2.697398305E-06  0.00000E+00  9.000E+00
      -3     1     1     2     0   516 -4.843455565E+00  4.751500360E+00  3.875106936E+01  3.934375673E+01  5.000000000E-01  0.00000E+00  9.000E+00
</event>
<event>
      5  10001  2.40292E+09  4.76258E+00 -1.00000E+00  2.46710E-01
      21    -1     0     0   511   512  0.000000000E+00  0.000000000E+00  8.160691228E+01  8.160691228E+01  0.000000000E+00  0.00000E+00  9.000E+00
      21    -1     0     0   513   514  0.000000000E+00  0.000000000E+00 -3.726238137E+01  3.726238137E+01  0.000000000E+00  0.00000E+00  9.000E+00
      -3     1     1     2     0   514 -8.950568018E+00 -1.272096710E+00  6.900334864E+01  6.959484910E+01  5.000000000E-01  0.00000E+00  9.000E+00
      21     1     1     2   513   512  1.046351862E+01  5.787180526E+00 -3.548032191E+01  3.744101926E+01  6.743495762E-07  0.00000E+00  9.000E+00
       3     1     1     2   511     0 -1.512950606E+00 -4.515083816E+00  1.082150418E+01  1.183342529E+01  5.000000000E-01  0.00000E+00  9.000E+00
</event>
<event>
      5  10001  2.40292E+09  9.09684E+00 -1.00000E+00  2.00571E-01
      21    -1     0     0   515   512  0.000000000E+00  0.000000000E+00  3.136539625E+00  3.136539625E+00  0.000000000E+00  0.00000E+00  9.000E+00
       2    -1     0     0   513     0  0.000000000E+00  0.000000000E+00 -7.108965744E+02  7.108965744E+02  0.000000000E+00  0.00000E+00  9.000E+00
      21     1     1     2   511   512  1.042743042E+01 -1.101824820E+01 -1.679558736E+01  2.263238506E+01  4.129530925E-07  0.00000E+00  9.000E+00
       2     1     1     2   515     0 -2.187760680E+00  7.164906138E+00 -7.600689326E+01  7.637590523E+01  3.300000131E-01  0.00000E+00  9.000E+00
      21     1     1     2   513   511 -8.239669742E+00  3.853342061E+00 -6.149575541E+02  6.150248237E+02  0.000000000E+00  0.00000E+00  9.000E+00
</event>
<event>
      5  10001  2.40292E+09  1.87300E+00 -1.00000E+00  3.76679E-01
      21    -1     0     0   513   515  0.000000000E+00  0.000000000E+00  3.547831029E+02  3.547831029E+02  0.000000000E+00  0.00000E+00  9.000E+00
       3    -1     0     0   512     0  0.000000000E+00  0.000000000E+00 -1.034916971E+00  1.034916971E+00  0.000000000E+00  0.00000E+00  9.000E+00
      21     1     1     2   512   514 -6.766130807E+00  7.574310375E+00  2.082283693E+02  2.084759086E+02  0.000000000E+00  0.00000E+00  9.000E+00
       3     1     1     2   513     0  5.695994742E+00 -9.111088239E+00  3.111318774E+01  3.292015699E+01  5.000000000E-01  0.00000E+00  9.000E+00
      21     1     1     2   514   515  1.070136065E+00  1.536777864E+00  1.144066289E+02  1.144219543E+02  1.348699152E-06  0.00000E+00  9.000E+00
</event>
<event>
      5  10001  2.40292E+09  7.14407E+00 -1.00000E+00  2.14240E-01
      21    -1     0     0   511   512  0.000000000E+00  0.000000000E+00  4.220993867E+00  4.220993867E+00  0.000000000E+00  0.00000E+00  9.000E+00
      21    -1     0     0   515   511  0.000000000E+00  0.000000000E+00 -9.251252794E+01  9.251252794E+01  0.000000000E+00  0.00000E+00  9.000E+00
      21     1     1     2   516   512  9.571553631E+00 -7.575083381E-01 -3.242542225E+00  1.013422606E+01  2.107342426E-07  0.00000E+00  9.000E+00
      21     1     1     2   515   513 -4.942242316E+00 -2.570419675E-01 -7.768270281E+01  7.784018336E+01  1.348699152E-06  0.00000E+00  9.000E+00
      21     1     1     2   513   516 -4.629311315E+00  1.014550306E+00 -7.366289038E+00  8.759112384E+00  8.429369702E-08  0.00000E+00  9.000E+00
</event>
<event>
      5  10001  2.40292E+09  4.40571E+00 -1.00000E+00  2.53861E-01
      21    -1     0     0   514   515  0.000000000E+00  0.000000000E+00  1.201698293E+02  1.201698293E+02  0.000000000E+00  0.00000E+00  9.000E+00
      21    -1     0     0   512   511  0.000000000E+00  0.000000000E+00 -1.702720442E+01  1.702720442E+01  0.000000000E+00  0.00000E+00  9.000E+00
      21     1     1     2   514   516  1.288457538E+01  3.931547078E+00  3.701875855E+01  3.939362676E+01  1.430511475E-06  0.00000E+00  9.000E+00
      21     1     1     2   512   515 -1.065947974E+01 -1.290143416E-01  8.130245146E+01  8.199835222E+01  1.651812370E-06  0.00000E+00  9.000E+00
      21     1     1     2   516   511 -2.225095635E+00 -3.802532736E+00 -1.517858518E+01  1.580505469E+01  3.769728732E-07  0.00000E+00  9.000E+00
</event>
<event>
      5  10001  2.40292E+09  9.35460E+00 -1.00000E+00  1.99107E-01
      21    -1     0     0   513   511  0.000000000E+00  0.000000000E+00  1.388441654E+01  1.388441654E+01  0.000000000E+00  0.00000E+00  9.000E+00
      21    -1     0     0   516   512  0.000000000E+00  0.000000000E+00 -2.336802453E+02  2.336802453E+02  0.000000000E+00  0.00000E+00  9.000E+00
      21     1     1     2   513   517  8.330355106E+00  1.333388997E+01  8.652496859E+00  1.794583907E+01  8.259061849E-07  0.00000E+00  9.000E+00
      21     1     1     2   516   511 -4.492077850E+00 -4.802999297E+00 -1.875110784E+02  1.876263630E+02  0.000000000E+00  0.00000E+00  9.000E+00
      21     1     1     2   517   512 -3.838277256E+00 -8.530890676E+00 -4.093724725E+01  4.199245980E+01  6.743495762E-07  0.00000E+00  9.000E+00
</event>
<event>
      5  10001  2.40292E+09  1.10008E+01 -1.00000E+00  1.91032E-01
      -3    -1     0     0     0   514  0.000000000E+00  0.000000000E+00  7.119388815E+01  7.119388815E+01  0.000000000E+00  0.00000E+00  9.000E+00
      21    -1     0     0   511   512  0.000000000E+00  0.000000000E+00 -1.410752659E+01  1.410752659E+01  0.000000000E+00  0.00000E+00  9.000E+00
      -3     1     1     2     0   512  1.253890057E+01 -1.663691472E-01  6.591841652E+01  6.710245407E+01  5.000000000E-01  0.00000E+00  9.000E+00
      21     1     1     2   513   514 -8.426004749E+00 -3.567866094E+00 -1.952026506E+00  9.356154765E+00  9.884312124E-08  0.00000E+00  9.000E+00
      21     1     1     2   511   513 -4.112895817E+00  3.734235241E+00 -6.880028445E+00  8.842805904E+00  1.884864366E-07  0.00000E+00  9.000E+00
</event>
<event>
      5  10001  2.40292E+09  4.78810E+00 -1.00000E+00  2.46235E-01
      21    -1     0     0   514   512  0.000000000E+00  0.000000000E+00  4.874798512E+01  4.874798512E+01  0.000000000E+00  0.00000E+00  9.000E+00
      21    -1     0     0   511   516  0.000000000E+00  0.000000000E+00 -1.572171030E+02  1.572171030E+02  0.000000000E+00  0.00000E+00  9.000E+00
      21     1     1     2   515   516  1.507018929E+01 -9.621241053E+00 -3.822384889E+01  4.219883302E+01  1.066240300E-06  0.00000E+00  9.000E+00
      21     1     1     2   511   512 -1.817753486E+01  1.326408278E+01 -1.157972137E+02  1.179633561E+02  1.907348633E-06  0.00000E+00  9.000E+00
      21     1     1     2   514   515  3.107345579E+00 -3.642841727E+00  4.555194473E+01  4.580289904E+01  1.168007728E-06  0.00000E+00  9.000E+00
</event>
<event>
      5  10001  2.40292E+09  1.38621E+01 -1.00000E+00  1.80624E-01
      21    -1     0     0   513   512  0.000000000E+00  0.000000000E+00  4.229990620E+00  4.229990620E+00  0.000000000E+00  0.00000E+00  9.000E+00
      21    -1     0     0   517   513  0.000000000E+00  0.000000000E+00 -4.044127067E+01  4.044127067E+01  0.000000000E+00  0.00000E+00  9.000E+00
      21     1     1     2   511   512  7.778109540E+00  3.901897515E+00 -1.655856218E+01  1.870587538E+01  2.384185791E-07  0.00000E+00  9.000E+00
      21     1     1     2   517   516 -4.056346731E+00 -6.809650889E+00 -1.970788650E+01  2.124208286E+01  2.384185791E-07  0.00000E+00  9.000E+00
      21     1     1     2   516   511 -3.721762808E+00  2.907753374E+00  5.516863306E-02  4.723303046E+00  1.067228217E-07  0.00000E+00  9.000E+00
</event>
<event>
      5  10001  2.40292E+09  6.45368E+00 -1.00000E+00  2.20590E-01
      21    -1     0     0   514   513  0.000000000E+00  0.000000000E+00  4.282417366E+01  4.282417366E+01  0.000000000E+00  0.00000E+00  9.000E+00
      21    -1     0     0   512   511  0.000000000E+00  0.000000000E+00 -8.027741240E+01  8.027741240E+01  0.000000000E+00  0.00000E+00  9.000E+00
      21     1     1     2   514   511  1.006125821E+01  2.282977384E+00  1.141978286E+01  1.539000789E+01  5.591411304E-07  0.00000E+00  9.000E+00
      21     1     1     2   512   515 -1.646307619E+01 -3.099491751E+00 -7.702686536E+01  7.882751876E+01  9.536743164E-07  0.00000E+00  9.000E+00
      21     1     1     2   515   513  6.401817987E+00  8.165143670E-01  2.815384376E+01  2.888405940E+01  3.371747881E-07  0.00000E+00  9.000E+00
</event>
<event>
      5  10001  2.40292E+09  9.22690E+00 -1.00000E+00  1.99824E-01
      21    -1     0     0   516   511  0.000000000E+00  0.000000000E+00  2.748476651E+01  2.748476651E+01  0.000000000E+00  0.00000E+00  9.000E+00
      21    -1     0     0   513   516  0.000000000E+00  0.000000000E+00 -1.675640611E+01  1.675640611E+01  0.000000000E+00  0.00000E+00  9.000E+00
      21     1     1     2   513   517  7.811070264E+00  8.669203173E+00 -1.086885701E+01  1.594678510E+01  3.371747881E-07  0.00000E+00  9.000E+00
      21     1     1     2   512   511 -7.360080782E-01 -7.811266796E+00  1.925558009E+01  2.079266605E+01  3.371747881E-07  0.00000E+00  9.000E+00
      21     1     1     2   517   512 -7.075062185E+00 -8.579363775E-01  2.341637326E+00  7.501721477E+00  2.086162567E-07  0.00000E+00  9.000E+00
</event>
<event>
      5  10001  2.40292E+09  3.84485E+00 -1.00000E+00  2.67473E-01
      21    -1     0     0   511   512  0.000000000E+00  0.000000000E+00  2.869271330E+01  2.869271330E+01  0.000000000E+00  0.00000E+00  9.000E+00
      21    -1     0     0   513   515  0.000000000E+00  0.000000000E+00 -3.362135003E+01  3.362135003E+01  0.000000000E+00  0.00000E+00  9.000E+00
      21     1     1     2   514   515  1.029003207E+00 -1.068285908E+01 -3.749602897E+00  1.136845845E+01  2.149076030E-07  0.00000E+00  9.000E+00
      21     1     1     2   513   512  2.791261083E+00  1.024876814E+01 -2.481821863E+01  2.699578417E+01  0.000000000E+00  0.00000E+00  9.000E+00
      21     1     1     2   511   514 -3.820264290E+00  4.340909355E-01  2.363918480E+01  2.394982071E+01  0.000000000E+00  0.00000E+00  9.000E+00
</event>
<event>
      5  10001  2.40292E+09  2.36018E+01 -1.00000E+00  1.60607E-01
      21    -1     0     0   516   512  0.000000000E+00  0.000000000E+00  2.699181911E+01  2.699181911E+01  0.000000000E+00  0.00000E+00  9.000E+00
      -3    -1     0     0     0   514  0.000000000E+00  0.000000000E+00 -1.523940955E+01  1.523940955E+01  0.000000000E+00  0.00000E+00  9.000E+00
      21     1     1     2   513   512 -3.385875308E+00 -8.780964047E+00  5.583117886E+00  1.094260876E+01  5.960464478E-08  0.00000E+00  9.000E+00
      21     1     1     2   516   514 -8.576017989E+00  6.739883465E+00 -7.321078771E+00  1.313667797E+01  2.795705652E-07  0.00000E+00  9.000E+00
      -3     1     1     2     0   513  1.196189330E+01  2.041080581E+00  1.349037045E+01  1.815194193E+01  5.000000000E-01  0.00000E+00  9.000E+00
</event>
<event>
      5  10001  2.40292E+09  4.10673E+00 -1.00000E+00  2.60698E-01
      21    -1     0     0   511   515  0.000000000E+00  0.000000000E+00  7.021223951E+01  7.021223951E+01  0.000000000E+00  0.00000E+00  9.000E+00
      21    -1     0     0   512   513  0.000000000E+00  0.000000000E+00 -2.309124668E+00  2.309124668E+00  0.000000000E+00  0.00000E+00  9.000E+00
      21     1     1     2   511   513  1.694816647E+00 -1.049582107E+01  1.666499399E+01  1.976756656E+01  2.384185791E-07  0.00000E+00  9.000E+00
      21     1     1     2   512   514 -2.207202896E+00  7.037252847E+00  4.502008444E+01  4.562020030E+01  4.768371582E-07  0.00000E+00  9.000E+00
      21     1     1     2   514   515  5.123862494E-01  3.458568220E+00  6.218036417E+00  7.133597317E+00  0.000000000E+00  0.00000E+00  9.000E+00
</event>
<event>
      5  10001  2.40292E+09  4.13445E+00 -1.00000E+00  2.60027E-01
      21    -1     0     0   511   512  0.000000000E+00  0.000000000E+00  3.014175170E+01  3.014175170E+01  0.000000000E+00  0.00000E+00  9.000E+00
       1    -1     0     0   515     0  0.000000000E+00  0.000000000E+00 -7.328581866E+02  7.328581866E+02  0.000000000E+00  0.00000E+00  9.000E+00
      21     1     1     2   515   512 -6.917220938E+00 -7.333561265E+00  1.587818501E+00  1.020540219E+01  1.563841194E-06  0.00000E+00  9.000E+00
       1     1     1     2   514     0  4.055272808E+00  1.031732879E+01 -7.283306112E+02  7.284150470E+02  3.300000131E-01  0.00000E+00  9.000E+00
      21     1     1     2   511   514  2.861948130E+00 -2.983767525E+00  2.402635786E+01  2.437948908E+01  5.840038640E-07  0.00000E+00  9.000E+00
</event>
<event>
      5  10001  2.40292E+09  1.03044E+01 -1.00000E+00  1.94206E-01
      21    -1     0     0   513   514  0.000000000E+00  0.000000000E+00  2.421747499E+01  2.421747499E+01  0.000000000E+00  0.00000E+00  9.000E+00
      21    -1     0     0   515   516  0.000000000E+00  0.000000000E+00 -5.925765282E+01  5.925765282E+01  0.000000000E+00  0.00000E+00  9.000E+00
      21     1     1     2   513   516 -2.575121291E+01  1.454301900E+01 -3.276818548E+01  4.414043892E+01  8.259061849E-07  0.00000E+00  9.000E+00
      21     1     1     2   512   514  1.560985839E+01 -1.636861568E+01  8.744590249E+00  2.425009519E+01  6.307962682E-07  0.00000E+00  9.000E+00
      21     1     1     2   515   512  1.014135452E+01  1.825596681E+00 -1.101658260E+01  1.508459370E+01  2.064765462E-07  0.00000E+00  9.000E+00
</event>
<event>
      5  10001  2.40292E+09  4.49758E+00 -1.00000E+00  2.51924E-01
      21    -1     0     0   511   512  0.000000000E+00  0.000000000E+00  4.422130443E+00  4.422130443E+00  0.000000000E+00  0.00000E+00  9.000E+00
       3    -1     0     0   513     0  0.000000000E+00  0.000000000E+00 -3.762139514E+02  3.762139514E+02  0.000000000E+00  0.00000E+00  9.000E+00
      21     1     1     2   514   512  2.975248441E+00 -1.103629878E+01 -3.751126623E+00  1.203008499E+01  6.419616708E-07  0.00000E+00  9.000E+00
       3     1     1     2   511     0 -6.057003899E-01  1.485883547E+01 -3.226827182E+02  3.230256003E+02  5.000000000E-01  0.00000E+00  9.000E+00
      21     1     1     2   513   514 -2.369548051E+00 -3.822536691E+00 -4.535797613E+01  4.558039648E+01  9.536743164E-07  0.00000E+00  9.000E+00
</event>
<event>
      5  10001  2.40292E+09  7.46038E+00 -1.00000E+00  2.11648E-01
      21    -1     0     0   513   515  0.000000000E+00  0.000000000E+00  1.542992510E+00  1.542992510E+00  0.000000000E+00  0.00000E+00  9.000E+00
       1    -1     0     0   511     0  0.000000000E+00  0.000000000E+00 -1.284869507E+02  1.284869507E+02  0.000000000E+00  0.00000E+00  9.000E+00
      21     1     1     2   511   515  8.278486098E+00  8.467608775E+00 -3.363071881E+01  3.565471887E+01  1.066240300E-06  0.00000E+00  9.000E+00
       1     1     1     2   512     0 -7.244581274E+00 -2.557073257E+00 -4.062012846E+01  4.134158097E+01  3.300000131E-01  0.00000E+00  9.000E+00
      21     1     1     2   513   512 -1.033904824E+00 -5.910535518E+00 -5.269311092E+01  5.303364336E+01  0.000000000E+00  0.00000E+00  9.000E+00
</event>
<event>
      5  10001  2.40292E+09  5.94884E+00 -1.00000E+00  2.25972E-01
      21    -1     0     0   514   512  0.000000000E+00  0.000000000E+00  2.407652282E+02  2.407652282E+02  0.000000000E+00  0.00000E+00  9.000E+00
      21    -1     0     0   511   516  0.000000000E+00  0.000000000E+00 -1.272974682E+02  1.272974682E+02  0.000000000E+00  0.00000E+00  9.000E+00
      21     1     1     2   514   516  1.941584557E+01 -6.337259289E+00 -1.254685684E+02  1.271200124E+02  0.000000000E+00  0.00000E+00  9.000E+00
      21     1     1     2   515   512 -1.628380693E+01  1.029007692E+00  2.262587088E+02  2.268462575E+02  2.697398305E-06  0.00000E+00  9.000E+00
      21     1     1     2   511   515 -3.132038644E+00  5.308251598E+00  1.267761952E+01  1.409642642E+01  1.685873940E-07  0.00000E+00  9.000E+00
</event>
<event>
      5  10001  2.40292E+09  7.92058E+00 -1.00000E+00  2.08172E-01
      21    -1     0     0   513   515  0.000000000E+00  0.000000000E+00  2.374992966E+01  2.374992966E+01  0.000000000E+00  0.00000E+00  9.000E+00
      21    -1     0     0   511   512  0.000000000E+00  0.000000000E+00 -1.079937821E+03  1.079937821E+03  0.000000000E+00  0.00000E+00  9.000E+00
      21     1     1     2   513   517  5.035770290E+00  1.523182981E+01  2.254284035E+00  1.620029069E+01  3.734220292E-07  0.00000E+00  9.000E+00
      21     1     1     2   511   515  1.713117865E+00 -1.108597057E+01  1.233964759E+01  1.667634309E+01  1.685873940E-07  0.00000E+00  9.000E+00
      21     1     1     2   517   512 -6.748888155E+00 -4.145859245E+00 -1.070781823E+03  1.070811117E+03  0.000000000E+00  0.00000E+00  9.000E+00
</event>
<event>
      5  10001  2.40292E+09  5.81325E+00 -1.00000E+00  2.27546E-01
       2    -1     0     0   512     0  0.000000000E+00  0.000000000E+00  5.954308064E+01  5.954308064E+01  0.000000000E+00  0.00000E+00  9.000E+00
      -4    -1     0     0     0   512  0.000000000E+00  0.000000000E+00 -5.653226980E+00  5.653226980E+00  0.000000000E+00  0.00000E+00  9.000E+00
      -4     1     1     2     0   513  1.057731040E+01 -1.092755695E+01  1.284570317E+01  1.996379438E+01  1.500000000E+00  0.00000E+00  9.000E+00
       2     1     1     2   511     0 -8.658819962E+00  9.211079357E+00  4.071921983E+01  4.263781080E+01  3.300000131E-01  0.00000E+00  9.000E+00
      21     1     1     2   513   511 -1.918490436E+00  1.716477589E+00  3.249306672E-01  2.594702450E+00  5.686408848E-08  0.00000E+00  9.000E+00
</event>
<event>
      5  10001  2.40292E+09  8.56410E+00 -1.00000E+00  2.03812E-01
      21    -1     0     0   514   512  0.000000000E+00  0.000000000E+00  1.275323243E+01  1.275323243E+01  0.000000000E+00  0.00000E+00  9.000E+00
       1    -1     0     0   513     0  0.000000000E+00  0.000000000E+00 -2.837835538E+02  2.837835538E+02  0.000000000E+00  0.00000E+00  9.000E+00
      21     1     1     2   513   511 -2.803180594E+01  4.050701099E+01 -1.429205883E+02  1.511717389E+02  0.000000000E+00  0.00000E+00  9.000E+00
       1     1     1     2   514     0  2.165141169E+01 -4.621954629E+01 -1.268183840E+02  1.367042117E+02  3.300000131E-01  0.00000E+00  9.000E+00
      21     1     1     2   511   512  6.380394249E+00  5.712535306E+00 -1.291349061E+00  8.660835572E+00  2.332400656E-07  0.00000E+00  9.000E+00
</event>
<event>
      5  10001  2.40292E+09  8.03081E+00 -1.00000E+00  2.07387E-01
       1    -1     0     0   513     0  0.000000000E+00  0.000000000E+00  7.333639522E+01  7.333639522E+01  0.000000000E+00  0.00000E+00  9.000E+00
      -1    -1     0     0     0   515  0.000000000E+00  0.000000000E+00 -2.299703496E+01  2.299703496E+01  0.000000000E+00  0.00000E+00  9.000E+00
      -1     1     1     2     0   512  3.527936323E+00  8.606716672E+00 -1.964516560E+01  2.173852198E+01  3.300000131E-01  0.00000E+00  9.000E+00
       1     1     1     2   512     0 -4.419971790E+00 -1.658752543E+01  5.466854968E+01  5.730132088E+01  3.300000131E-01  0.00000E+00  9.000E+00
      21     1     1     2   513   515  8.920354671E-01  7.980808759E+00  1.531597619E+01  1.729358732E+01  1.685873940E-07  0.00000E+00  9.000E+00
</event>
<event>
      5  10001  2.40292E+09  9.29301E+00 -1.00000E+00  1.99451E-01
      21    -1     0     0   511   516  0.000000000E+00  0.000000000E+00  2.276177803E+01  2.276177803E+01  0.000000000E+00  0.00000E+00  9.000E+00
      21    -1     0     0   514   511  0.000000000E+00  0.000000000E+00 -5.967842411E+00  5.967842411E+00  0.000000000E+00  0.00000E+00  9.000E+00
      21     1     1     2   515   516 -2.292052267E-01 -1.052274436E+01  9.327869541E+00  1.406377737E+01  1.192092896E-07  0.00000E+00  9.000E+00
      21     1     1     2   512   515 -1.864309453E+00  3.534611576E+00  6.025160135E+00  7.229915863E+00  8.429369702E-08  0.00000E+00  9.000E+00
      21     1     1     2   514   512  2.093514679E+00  6.988132781E+00  1.440905945E+00  7.435927206E+00  2.457562462E-07  0.00000E+00  9.000E+00
</event>
<event>
      5  10001  2.40292E+09  1.53191E+01 -1.00000E+00  1.76480E-01
       1    -1     0     0   512     0  0.000000000E+00  0.000000000E+00  2.924091878E+00  2.924091878E+00  0.000000000E+00  0.00000E+00  9.000E+00
      21    -1     0     0   513   511  0.000000000E+00  0.000000000E+00 -3.350893812E+02  3.350893812E+02  0.000000000E+00  0.00000E+00  9.000E+00
      21     1     1     2   512   511 -1.275733988E+01  6.288288599E+00 -2.443085365E+02  2.447221961E+02  2.697398305E-06  0.00000E+00  9.000E+00
       1     1     1     2   515     0  1.099008637E+01 -1.459154057E+01 -3.246623654E+01  3.725399938E+01  3.300000131E-01  0.00000E+00  9.000E+00
      21     1     1     2   513   515  1.767253502E+00  8.303251972E+00 -5.539051631E+01  5.603727755E+01  0.000000000E+00  0.00000E+00  9.000E+00
</event>
<event>
      5  10001  2.40292E+09  1.80192E+01 -1.00000E+00  1.70151E-01
      21    -1     0     0   514   511  0.000000000E+00  0.000000000E+00  8.754501285E+02  8.754501285E+02  0.000000000E+00  0.00000E+00  9.000E+00
      21    -1     0     0   513   516  0.000000000E+00  0.000000000E+00 -2.536933050E-01  2.536933050E-01  0.000000000E+00  0.00000E+00  9.000E+00
      21     1     1     2   514   516  5.347618306E+00  3.055673091E+00  1.075829711E+02  1.077591287E+02  1.348699152E-06  0.00000E+00  9.000E+00
      21     1     1     2   512   511 -7.927194235E+00  1.969064039E+00  7.116600942E+02  7.117069673E+02  0.000000000E+00  0.00000E+00  9.000E+00
      21     1     1     2   513   512  2.579575930E+00 -5.024737130E+00  5.595336995E+01  5.623772581E+01  1.651812370E-06  0.00000E+00  9.000E+00
</event>
<event>
      5  10001  2.40292E+09  5.93347E+00 -1.00000E+00  2.26147E-01
      21    -1     0     0   515   512  0.000000000E+00  0.000000000E+00  2.282187856E+00  2.282187856E+00  0.000000000E+00  0.00000E+00  9.000E+00
      21    -1     0     0   513   515  0.000000000E+00  0.000000000E+00 -2.224396137E+02  2.224396137E+02  0.000000000E+00  0.00000E+00  9.000E+00
      21     1     1     2   513   517  5.174691301E+00  1.063595021E+01 -1.945732052E+02  1.949323807E+02  2.697398305E-06  0.00000E+00  9.000E+00
      21     1     1     2   517   511 -1.522153726E-01 -9.884321234E+00 -1.397404650E+01  1.711715372E+01  3.371747881E-07  0.00000E+00  9.000E+00
      21     1     1     2   511   512 -5.022475928E+00 -7.516289768E-01 -1.161017415E+01  1.267226713E+01  0.000000000E+00  0.00000E+00  9.000E+00
</event>
<event>
      5  10001  2.40292E+09  9.11386E+00 -1.00000E+00  2.00472E-01
      21    -1     0     0   511   513  0.000000000E+00  0.000000000E+00  1.899340733E+00  1.899340733E+00  0.000000000E+00  0.00000E+00  9.000E+00
       2    -1     0     0   514     0  0.000000000E+00  0.000000000E+00 -2.846950045E+02  2.846950045E+02  0.000000000E+00  0.00000E+00  9.000E+00
      21     1     1     2   514   512  1.082114024E+01  1.273904727E-01 -2.822363967E+01  3.022725824E+01  1.011524364E-06  0.00000E+00  9.000E+00
       2     1     1     2   511     0 -1.680666594E+01 -6.999589459E+00 -2.145152976E+02  2.152867392E+02  3.300000131E-01  0.00000E+00  9.000E+00
      21     1     1     2   512   513  5.985525695E+00  6.872198987E+00 -4.005672648E+01  4.108034777E+01  9.536743164E-07  0.00000E+00  9.000E+00
</event>
<event>
      5  10001  2.40292E+09  1.16045E+01 -1.00000E+00  1.88517E-01
      21    -1     0     0   515   514  0.000000000E+00  0.000000000E+00  1.367896943E+01  1.367896943E+01  0.000000000E+00  0.00000E+00  9.000E+00
      21    -1     0     0   512   513  0.000000000E+00  0.000000000E+00 -3.717206340E+01  3.717206340E+01  0.000000000E+00  0.00000E+00  9.000E+00
      21     1     1     2   515   513  1.277621922E+01  1.254124101E+00 -2.932404522E+01  3.201100175E+01  3.371747881E-07  0.00000E+00  9.000E+00
      -5     1     1     2     0   514 -5.482095357E+00 -9.780064410E-01 -1.418814477E+00  7.487516441E+00  4.800000191E+00  0.00000E+00  9.000E+00
       5     1     1     2   512     0 -7.294123859E+00 -2.761176602E-01  7.249765725E+00  1.135251464E+01  4.800000191E+00  0.00000E+00  9.000E+00
</event>
<event>
      5  10001  2.40292E+09  1.20729E+01 -1.00000E+00  1.86699E-01
       2    -1     0     0   513     0  0.000000000E+00  0.000000000E+00  3.431974406E+02  3.431974406E+02  0.000000000E+00  0.00000E+00  9.000E+00
      21    -1     0     0   516   513  0.000000000E+00  0.000000000E+00 -1.501176194E+00  1.501176194E+00  0.000000000E+00  0.00000E+00  9.000E+00
      21     1     1     2   516   511 -5.436085090E+00  1.331153102E+01  4.134883456E+01  4.377755131E+01  8.259061849E-07  0.00000E+00  9.000E+00
       2     1     1     2   514     0  7.072988523E+00 -2.885138468E+00  1.567108306E+02  1.568972420E+02  3.300000131E-01  0.00000E+00  9.000E+00
      21     1     1     2   511   514 -1.636903434E+00 -1.042639256E+01  1.436365992E+02  1.440238235E+02  1.907348633E-06  0.00000E+00  9.000E+00
</event>
<event>
      5  10001  2.40292E+09  3.42978E+00 -1.00000E+00  2.80147E-01
      21    -1     0     0   513   514  0.000000000E+00  0.000000000E+00  1.698341816E+01  1.698341816E+01  0.000000000E+00  0.00000E+00  9.000E+00
      -1    -1     0     0     0   512  0.000000000E+00  0.000000000E+00 -2.755692344E+01  2.755692344E+01  0.000000000E+00  0.00000E+00  9.000E+00
      -1     1     1     2     0   514  8.905374423E+00 -4.644538976E+00 -1.700125193E+01  1.974914942E+01  3.300000131E-01  0.00000E+00  9.000E+00
      21     1     1     2   515   512 -1.067749418E+01  1.708357177E+00 -5.674943686E+00  1.221197577E+01  2.064765462E-07  0.00000E+00  9.000E+00
      21     1     1     2   513   515  1.772119759E+00  2.936181799E+00  1.210269033E+01  1.257921640E+01  1.685873940E-07  0.00000E+00  9.000E+00
</event>
<event>
      5  10001  2.40292E+09  2.55820E+00 -1.00000E+00  3.19411E-01
      21    -1     0     0   515   514  0.000000000E+00  0.000000000E+00  7.454907661E+01  7.454907661E+01  0.000000000E+00  0.00000E+00  9.000E+00
       2    -1     0     0   514     0  0.000000000E+00  0.000000000E+00 -2.916632590E+00  2.916632590E+00  0.000000000E+00  0.00000E+00  9.000E+00
       2     1     1     2   515     0  1.159433223E+01 -1.004094425E+00  4.547449324E+01  4.694118853E+01  3.300000131E-01  0.00000E+00  9.000E+00
       2     1     1     2   511     0 -1.262533206E+01  3.241590347E+00  1.990311553E+01  2.379390311E+01  3.300000131E-01  0.00000E+00  9.000E+00
      -2     1     1     2     0   511  1.030999823E+00 -2.237495922E+00  6.254835256E+00  6.730617559E+00  3.300000131E-01  0.00000E+00  9.000E+00
</event>
<event>
      5  10001  2.40292E+09  4.90624E+00 -1.00000E+00  2.44092E-01
       1    -1     0     0   513     0  0.000000000E+00  0.000000000E+00  5.496663972E+02  5.496663972E+02  0.000000000E+00  0.00000E+00  9.000E+00
      21    -1     0     0   512   511  0.000000000E+00  0.000000000E+00 -2.288046725E-01  2.288046725E-01  0.000000000E+00  0.00000E+00  9.000E+00
      21     1     1     2   514   511 -4.664319101E+00  4.082301022E+00  7.320406057E+01  7.346601622E+01  0.000000000E+00  0.00000E+00  9.000E+00
       1     1     1     2   512     0  5.074761602E+00 -8.126131690E+00  3.378383856E+02  3.379743642E+02  3.300000131E-01  0.00000E+00  9.000E+00
      21     1     1     2   513   514 -4.104425009E-01  4.043830667E+00  1.383951464E+02  1.384548214E+02  0.000000000E+00  0.00000E+00  9.000E+00
</event>
<event>
      5  10001  2.40292E+09  2.59920E+01 -1.00000E+00  1.57458E-01
      21    -1     0     0   515   511  0.000000000E+00  0.000000000E+00  2.374455155E+01  2.374455155E+01  0.000000000E+00  0.00000E+00  9.000E+00
      21    -1     0     0   516   514  0.000000000E+00  0.000000000E+00 -2.181696910E+01  2.181696910E+01  0.000000000E+00  0.00000E+00  9.000E+00
      21     1     1     2   515   514  1.148554993E+01  8.453777029E+00 -6.439240469E+00  1.564762030E+01  4.214684851E-07  0.00000E+00  9.000E+00
      21     1     1     2   516   512  2.541698745E+00 -1.355610724E+01  3.878279855E+00  1.432722341E+01  9.424321831E-08  0.00000E+00  9.000E+00
      21     1     1     2   512   511 -1.402724868E+01  5.102330212E+00  4.488543055E+00  1.558667694E+01  3.526258339E-07  0.00000E+00  9.000E+00
</event>
<event>
      5  10001  2.40292E+09  1.83603E+01 -1.00000E+00  1.69450E-01
      21    -1     0     0   513   514  0.000000000E+00  0.000000000E+00  1.828163629E+02  1.828163629E+02  0.000000000E+00  0.00000E+00  9.000E+00
      21    -1     0     0   517   511  0.000000000E+00  0.000000000E+00 -1.458509131E+00  1.458509131E+00  0.000000000E+00  0.00000E+00  9.000E+00
      21     1     1     2   513   511  7.753693101E+00  1.605209887E-01  2.224204957E+01  2.355534532E+01  4.129530925E-07  0.00000E+00  9.000E+00
      21     1     1     2   515   514 -1.293601405E+01 -7.771338321E-01  5.633759745E+01  5.780890315E+01  9.536743164E-07  0.00000E+00  9.000E+00
      21     1     1     2   517   515  5.182320944E+00  6.166128434E-01  1.027782068E+02  1.029106236E+02  1.348699152E-06  0.00000E+00  9.000E+00
</event>
<event>
      5  10001  2.40292E+09  1.08053E+01 -1.00000E+00  1.91892E-01
      21    -1     0     0   512   511  0.000000000E+00  0.000000000E+00  1.111494559E+01  1.111494559E+01  0.000000000E+00  0.00000E+00  9.000E+00
      21    -1     0     0   516   512  0.000000000E+00  0.000000000E+00 -1.981231026E+01  1.981231026E+01  0.000000000E+00  0.00000E+00  9.000E+00
      21     1     1     2   516   517  1.463724705E+00  8.834101784E+00 -1.150818439E+01  1.458156893E+01  1.685873940E-07  0.00000E+00  9.000E+00
      21     1     1     2   517   513 -4.019243590E+00 -2.572578129E+00  6.939610194E+00  8.422034606E+00  2.665600750E-07  0.00000E+00  9.000E+00
      21     1     1     2   513   511  2.555518885E+00 -6.261523655E+00 -4.128790479E+00  7.923652319E+00  5.960464478E-08  0.00000E+00  9.000E+00
</event>
<event>
      5  10001  2.40292E+09  4.00166E+00 -1.00000E+00  2.63319E-01
      21    -1     0     0   514   512  0.000000000E+00  0.000000000E+00  6.954693689E+01  6.954693689E+01  0.000000000E+00  0.00000E+00  9.000E+00
      21    -1     0     0   511   514  0.000000000E+00  0.000000000E+00 -1.546461638E+01  1.546461638E+01  0.000000000E+00  0.00000E+00  9.000E+00
      21     1     1     2   511   515 -4.413456546E+00  1.096201939E+01 -1.193668241E+01  1.679669178E+01  2.384185791E-07  0.00000E+00  9.000E+00
      21     1     1     2   515   516  1.021879533E+00 -1.308581323E+01  4.850892913E+01  5.025334766E+01  1.168007728E-06  0.00000E+00  9.000E+00
      21     1     1     2   516   512  3.391577013E+00  2.123793835E+00  1.751007379E+01  1.796151383E+01  2.384185791E-07  0.00000E+00  9.000E+00
</event>
<event>
      5  10001  2.40292E+09  8.27982E+00 -1.00000E+00  2.05673E-01
      21    -1     0     0   513   515  0.000000000E+00  0.000000000E+00  1.337959298E+00  1.337959298E+00  0.000000000E+00  0.00000E+00  9.000E+00
      21    -1     0     0   511   512  0.000000000E+00  0.000000000E+00 -1.241756320E+02  1.241756320E+02  0.000000000E+00  0.00000E+00  9.000E+00
      21     1     1     2   513   512 -8.854273105E+00  3.349556818E+00 -8.272531838E+01  8.326521473E+01  1.651812370E-06  0.00000E+00  9.000E+00
      21     1     1     2   511   514  6.087551502E+00  2.351158121E+00 -1.517782835E+01  1.652128025E+01  4.129530925E-07  0.00000E+00  9.000E+00
      21     1     1     2   514   515  2.766721603E+00 -5.700714940E+00 -2.493452597E+01  2.572709631E+01  3.371747881E-07  0.00000E+00  9.000E+00
</event>
<event>
      5  10001  2.40292E+09  3.94362E+00 -1.00000E+00  2.64822E-01
       1    -1     0     0   513     0  0.000000000E+00  0.000000000E+00  4.149539947E+02  4.149539947E+02  0.000000000E+00  0.00000E+00  9.000E+00
      21    -1     0     0   511   513  0.000000000E+00  0.000000000E+00 -8.141737648E-01  8.141737648E-01  0.000000000E+00  0.00000E+00  9.000E+00
      -4     1     1     2     0   514  2.424089829E+00 -8.695104965E+00  6.183855786E+01  6.251190527E+01  1.500000000E+00  0.00000E+00  9.000E+00
       1     1     1     2   514     0 -5.844709958E+00  1.060536419E+01  3.407755788E+02  3.409908186E+02  3.300000131E-01  0.00000E+00  9.000E+00
       4     1     1     2   511     0  3.420620129E+00 -1.910259227E+00  1.152568425E+01  1.226544454E+01  1.500000000E+00  0.00000E+00  9.000E+00
</event>
<event>
      5  10001  2.40292E+09  1.04925E+01 -1.00000E+00  1.93317E-01
       3    -1     0     0   513     0  0.000000000E+00  0.000000000E+00  1.517764749E+02  1.517764749E+02  0.000000000E+00  0.00000E+00  9.000E+00
      -3    -1     0     0     0   512  0.000000000E+00  0.000000000E+00 -1.335242206E+00  1.335242206E+00  0.000000000E+00  0.00000E+00  9.000E+00
      21     1     1     2   513   511  7.600895631E+00  4.099280168E+00  9.747201711E+01  9.785382890E+01  1.907348633E-06  0.00000E+00  9.000E+00
      -3     1     1     2     0   512 -1.350354984E+00 -6.224226215E+00  1.061421639E+01  1.238854471E+01  5.000000000E-01  0.00000E+00  9.000E+00
       3     1     1     2   511     0 -6.250540647E+00  2.124946047E+00  4.235499918E+01  4.286934347E+01  5.000000000E-01  0.00000E+00  9.000E+00
</event>
<event>
      5  10001  2.40292E+09  1.19354E+01 -1.00000E+00  1.87222E-01
      21    -1     0     0   514   516  0.000000000E+00  0.000000000E+00  2.256720360E+02  2.256720360E+02  0.000000000E+00  0.00000E+00  9.000E+00
      21    -1     0     0   511   515  0.000000000E+00  0.000000000E+00 -2.780811241E+02  2.780811241E+02  0.000000000E+00  0.00000E+00  9.000E+00
      21     1     1     2   514   515 -2.501736514E+00 -1.411779696E+01  2.245781600E+02  2.250353768E+02  3.814697266E-06  0.00000E+00  9.000E+00
      21     1     1     2   511   512  1.128273598E+01  1.589513723E+01 -2.337942013E+02  2.346053795E+02  0.000000000E+00  0.00000E+00  9.000E+00
      21     1     1     2   512   516 -8.780999464E+00 -1.777340274E+00 -4.319304664E+01  4.411240379E+01  8.259061849E-07  0.00000E+00  9.000E+00
</event>
<event>
      5  10001  2.40292E+09  4.12576E+00 -1.00000E+00  2.60237E-01
      -3    -1     0     0     0   513  0.000000000E+00  0.000000000E+00  1.511014501E+01  1.511014501E+01  0.000000000E+00  0.00000E+00  9.000E+00
      21    -1     0     0   512   514  0.000000000E+00  0.000000000E+00 -1.497014741E+01  1.497014741E+01  0.000000000E+00  0.00000E+00  9.000E+00
      21     1     1     2   511   514  5.610166876E+00  7.702553076E-01 -6.311057095E+00  8.479192607E+00  1.884864366E-07  0.00000E+00  9.000E+00
      21     1     1     2   512   513 -1.107276401E+01 -4.246593812E+00  8.722102264E+00  1.472123398E+01  1.685873940E-07  0.00000E+00  9.000E+00
      -3     1     1     2     0   511  5.462597136E+00  3.476338504E+00 -2.271047574E+00  6.879865838E+00  5.000000000E-01  0.00000E+00  9.000E+00
</event>
<event>
      5  10001  2.40292E+09  7.04972E+00 -1.00000E+00  2.15049E-01
      21    -1     0     0   515   512  0.000000000E+00  0.000000000E+00  4.464738237E+02  4.464738237E+02  0.000000000E+00  0.00000E+00  9.000E+00
      21    -1     0     0   513   511  0.000000000E+00  0.000000000E+00 -1.571512393E+01  1.571512393E+01  0.000000000E+00  0.00000E+00  9.000E+00
      21     1     1     2   515   511 -4.285307128E+00 -8.331218419E+00  3.655947072E+02  3.657147290E+02  5.394796609E-06  0.00000E+00  9.000E+00
      21     1     1     2   516   512  3.552711737E+00  1.534277299E+01  7.920888546E+01  8.075933370E+01  2.523185073E-06  0.00000E+00  9.000E+00
      21     1     1     2   513   516  7.325953914E-01 -7.011554571E+00 -1.404489288E+01  1.571488496E+01  7.907449699E-07  0.00000E+00  9.000E+00
</event>
<event>
      5  10001  2.40292E+09  2.44031E+00 -1.00000E+00  3.26859E-01
       1    -1     0     0   511     0  0.000000000E+00  0.000000000E+00  5.546143057E+00  5.546143057E+00  0.000000000E+00  0.00000E+00  9.000E+00
      21    -1     0     0   514   512  0.000000000E+00  0.000000000E+00 -5.457851996E+01  5.457851996E+01  0.000000000E+00  0.00000E+00  9.000E+00
      21     1     1     2   511   516  9.780116031E+00  5.244243846E-01 -1.177465525E+01  1.531561937E+01  3.769728732E-07  0.00000E+00  9.000E+00
       1     1     1     2   514     0 -1.172115644E+01 -2.003009399E+00 -5.759748063E+00  1.321669976E+01  3.300000131E-01  0.00000E+00  9.000E+00
      21     1     1     2   516   512  1.941040407E+00  1.478585014E+00 -3.149797360E+01  3.159234389E+01  5.840038640E-07  0.00000E+00  9.000E+00
</event>
<event>
      5  10001  2.40292E+09  9.50201E+00 -1.00000E+00  1.98297E-01
       3    -1     0     0   511     0  0.000000000E+00  0.000000000E+00  5.632968584E+00  5.632968584E+00  0.000000000E+00  0.00000E+00  9.000E+00
       4    -1     0     0   513     0  0.000000000E+00  0.000000000E+00 -3.060656100E+01  3.060656100E+01  0.000000000E+00  0.00000E+00  9.000E+00
      21     1     1     2   513   514 -3.508903529E+00 -2.168429204E+00 -5.642589291E+00  6.989513796E+00  0.000000000E+00  0.00000E+00  9.000E+00
       4     1     1     2   511     0  9.231429738E+00  6.025372749E+00 -1.936218653E+01  2.233089069E+01  1.500000000E+00  0.00000E+00  9.000E+00
       3     1     1     2   514     0 -5.722526208E+00 -3.856943546E+00  3.118340531E-02  6.919125098E+00  5.000000000E-01  0.00000E+00  9.000E+00
</event>
<event>
      5  10001  2.40292E+09  1.17767E+01 -1.00000E+00  1.87836E-01
      21    -1     0     0   512   514  0.000000000E+00  0.000000000E+00  1.713943296E+01  1.713943296E+01  0.000000000E+00  0.00000E+00  9.000E+00
      21    -1     0     0   513   515  0.000000000E+00  0.000000000E+00 -1.725501749E+01  1.725501749E+01  0.000000000E+00  0.00000E+00  9.000E+00
      21     1     1     2   512   515  3.419251890E+00  1.350462403E+01  3.238221176E+00  1.430217571E+01  0.000000000E+00  0.00000E+00  9.000E+00
      21     1     1     2   513   511  3.627688157E+00 -9.807242169E+00 -5.547966820E+00  1.183731626E+01  1.884864366E-07  0.00000E+00  9.000E+00
      21     1     1     2   511   514 -7.046940047E+00 -3.697381858E+00  2.194161110E+00  8.254958486E+00  1.154238983E-07  0.00000E+00  9.000E+00
</event>
<event>
      5  10001  2.40292E+09  5.70318E+00 -1.00000E+00  2.28868E-01
      21    -1     0     0   516   513  0.000000000E+00  0.000000000E+00  3.708017423E+01  3.708017423E+01  0.000000000E+00  0.00000E+00  9.000E+00
      21    -1     0     0   514   516  0.000000000E+00  0.000000000E+00 -2.597465939E+01  2.597465939E+01  0.000000000E+00  0.00000E+00  9.000E+00
      21     1     1     2   514   517  5.186729583E+00  8.274785172E+00 -2.284569753E+01  2.484552534E+01  0.000000000E+00  0.00000E+00  9.000E+00
      21     1     1     2   517   512 -4.332779949E+00 -4.003606774E+00  3.328404232E+01  3.380280051E+01  0.000000000E+00  0.00000E+00  9.000E+00
      21     1     1     2   512   513 -8.539496341E-01 -4.271178398E+00  6.671700437E-01  4.406507773E+00  5.107860714E-08  0.00000E+00  9.000E+00
</event>
<event>
      5  10001  2.40292E+09  2.32433E+01 -1.00000E+00  1.61119E-01
      21    -1     0     0   511   515  0.000000000E+00  0.000000000E+00  6.533287943E+01  6.533287943E+01  0.000000000E+00  0.00000E+00  9.000E+00
      21    -1     0     0   513   511  0.000000000E+00  0.000000000E+00 -7.453488839E+00  7.453488839E+00  0.000000000E+00  0.00000E+00  9.000E+00
      21     1     1     2   513   514  4.789156703E+00  1.001213658E+01  6.101900913E+00  1.266538967E+01  3.039252468E-07  0.00000E+00  9.000E+00
      21     1     1     2   516   515 -1.542618009E-01 -6.465410094E+00  5.361397739E+01  5.400262860E+01  6.743495762E-07  0.00000E+00  9.000E+00
      21     1     1     2   514   516 -4.634894902E+00 -3.546726482E+00 -1.836487716E+00  6.118349992E+00  1.775678290E-07  0.00000E+00  9.000E+00
</event>
<event>
      5  10001  2.40292E+09  2.06294E+01 -1.00000E+00  1.65225E-01
      21    -1     0     0   512   514  0.000000000E+00  0.000000000E+00  1.957216403E+01  1.957216403E+01  0.000000000E+00  0.00000E+00  9.000E+00
      21    -1     0     0   517   512  0.000000000E+00  0.000000000E+00 -4.582341968E+01  4.582341968E+01  0.000000000E+00  0.00000E+00  9.000E+00
      21     1     1     2   517   513 -8.693476319E+00 -1.696968694E+01 -2.435964004E+01  3.093442852E+01  5.840038640E-07  0.00000E+00  9.000E+00
      21     1     1     2   513   511 -3.425770943E+00  2.028817374E+01  3.350075601E+00  2.084631638E+01  4.519745972E-07  0.00000E+00  9.000E+00
      21     1     1     2   511   514  1.211924726E+01 -3.318486797E+00 -5.241691210E+00  1.361483880E+01  8.429369702E-08  0.00000E+00  9.000E+00
</event>
<event>
      5  10001  2.40292E+09  1.30162E+01 -1.00000E+00  1.83340E-01
      -1    -1     0     0     0   514  0.000000000E+00  0.000000000E+00  6.274888894E+01  6.274888894E+01  0.000000000E+00  0.00000E+00  9.000E+00
      21    -1     0     0   513   512  0.000000000E+00  0.000000000E+00 -2.067458205E+01  2.067458205E+01  0.000000000E+00  0.00000E+00  9.000E+00
      -1     1     1     2     0   512  1.740903843E+01  2.358140172E+00  1.928086065E+01  2.608631694E+01  3.300000131E-01  0.00000E+00  9.000E+00
      21     1     1     2   511   514 -6.354411978E+00  4.512233519E+00  3.715011799E+01  3.795879436E+01  1.066240300E-06  0.00000E+00  9.000E+00
      21     1     1     2   513   511 -1.105462645E+01 -6.870373691E+00 -1.435667175E+01  1.937835969E+01  3.769728732E-07  0.00000E+00  9.000E+00
</event>
<event>
      5  10001  2.40292E+09  8.19676E+00 -1.00000E+00  2.06235E-01
      21    -1     0     0   515   511  0.000000000E+00  0.000000000E+00  1.211898010E+01  1.211898010E+01  0.000000000E+00  0.00000E+00  9.000E+00
      21    -1     0     0   512   515  0.000000000E+00  0.000000000E+00 -1.182145159E+02  1.182145159E+02  0.000000000E+00  0.00000E+00  9.000E+00
      21     1     1     2   513   516  1.457970827E+01  9.703331655E+00 -5.649209824E+01  5.914456612E+01  9.536743164E-07  0.00000E+00  9.000E+00
      21     1     1     2   516   511 -6.416683660E+00 -8.960473712E+00  7.608833225E+00  1.339247032E+01  6.251387883E-07  0.00000E+00  9.000E+00
      21     1     1     2   512   513 -8.163024606E+00 -7.428579431E-01 -5.721227078E+01  5.779645954E+01  6.743495762E-07  0.00000E+00  9.000E+00
</event>
<event>
      5  10001  2.40292E+09  1.62414E+01 -1.00000E+00  1.74145E-01
      21    -1     0     0   512   515  0.000000000E+00  0.000000000E+00  2.415481100E+01  2.415481100E+01  0.000000000E+00  0.00000E+00  9.000E+00
       1    -1     0     0   514     0  0.000000000E+00  0.000000000E+00 -1.047924491E+02  1.047924491E+02  0.000000000E+00  0.00000E+00  9.000E+00
      21     1     1     2   514   511  1.562013725E+01 -3.770941666E+00  5.237914145E+00  1.690101871E+01  2.920019320E-07  0.00000E+00  9.000E+00
       1     1     1     2   512     0 -6.630439643E+00  1.729724404E+01 -9.262399516E+01  9.445883104E+01  3.300000131E-01  0.00000E+00  9.000E+00
      21     1     1     2   511   515 -8.989697609E+00 -1.352630237E+01  6.748442967E+00  1.758741031E+01  2.528810911E-07  0.00000E+00  9.000E+00
</event>
<event>
      5  10001  2.40292E+09  5.31024E+00 -1.00000E+00  2.33952E-01
      21    -1     0     0   512   514  0.000000000E+00  0.000000000E+00  1.185288660E+02  1.185288660E+02  0.000000000E+00  0.00000E+00  9.000E+00
      21    -1     0     0   515   513  0.000000000E+00  0.000000000E+00 -1.017145445E+02  1.017145445E+02  0.000000000E+00  0.00000E+00  9.000E+00
      21     1     1     2   516   514 -8.930996031E+00  3.964029579E-02  2.663280270E+01  2.809039767E+01  9.536743164E-07  0.00000E+00  9.000E+00
      21     1     1     2   515   516  1.232790367E+01  4.041988253E+00 -1.004910644E+02  1.013250655E+02  2.336015456E-06  0.00000E+00  9.000E+00
      21     1     1     2   512   513 -3.396907643E+00 -4.081628549E+00  9.067258322E+01  9.082794735E+01  0.000000000E+00  0.00000E+00  9.000E+00
</event>
<event>
      5  10001  2.40292E+09  1.29613E+01 -1.00000E+00  1.83525E-01
      21    -1     0     0   511   514  0.000000000E+00  0.000000000E+00  4.698297752E+01  4.698297752E+01  0.000000000E+00  0.00000E+00  9.000E+00
       2    -1     0     0   512     0  0.000000000E+00  0.000000000E+00 -7.307163817E+01  7.307163817E+01  0.000000000E+00  0.00000E+00  9.000E+00
      21     1     1     2   512   515 -7.630086672E+00  1.354035107E+01 -2.248692991E+00  1.570401063E+01  7.208220138E-07  0.00000E+00  9.000E+00
       2     1     1     2   511     0  1.022351571E+01 -8.412412033E-01 -6.262331667E+01  6.345877915E+01  3.300000131E-01  0.00000E+00  9.000E+00
      21     1     1     2   515   514 -2.593429037E+00 -1.269910986E+01  3.878334901E+01  4.089182591E+01  6.743495762E-07  0.00000E+00  9.000E+00
</event>
<event>
      5  10001  2.40292E+09  4.80751E+00 -1.00000E+00  2.45876E-01
       2    -1     0     0   512     0  0.000000000E+00  0.000000000E+00  4.406793134E+02  4.406793134E+02  0.000000000E+00  0.00000E+00  9.000E+00
      21    -1     0     0   513   511  0.000000000E+00  0.000000000E+00 -1.557430136E+00  1.557430136E+00  0.000000000E+00  0.00000E+00  9.000E+00
      21     1     1     2   515   511 -7.850404654E+00  1.251633883E+01  3.781293091E+01  4.059686361E+01  9.536743164E-07  0.00000E+00  9.000E+00
       2     1     1     2   513     0  3.343557549E+00 -1.084358541E+01  3.046947711E+02  3.049061744E+02  3.300000131E-01  0.00000E+00  9.000E+00
      21     1     1     2   512   515  4.506847105E+00 -1.672753422E+00  9.661418125E+01  9.673370557E+01  1.907348633E-06  0.00000E+00  9.000E+00
</event>
<event>
      5  10001  2.40292E+09  3.22225E+00 -1.00000E+00  2.87626E-01
      21    -1     0     0   514   511  0.000000000E+00  0.000000000E+00  9.590124801E+01  9.590124801E+01  0.000000000E+00  0.00000E+00  9.000E+00
      21    -1     0     0   513   515  0.000000000E+00  0.000000000E+00 -4.253248927E+00  4.253248927E+00  0.000000000E+00  0.00000E+00  9.000E+00
      21     1     1     2   514   515  2.078493815E+00 -1.386527461E+01  3.419446547E+01  3.695710277E+01  4.768371582E-07  0.00000E+00  9.000E+00
      21     1     1     2   516   511 -1.942807375E+00  1.064588133E+01  5.873948302E+01  5.972801817E+01  9.536743164E-07  0.00000E+00  9.000E+00
      21     1     1     2   513   516 -1.356864401E-01  3.219393280E+00 -1.285949402E+00  3.469375991E+00  4.712160915E-08  0.00000E+00  9.000E+00
</event>
<event>
      5  10001  2.40292E+09  1.53999E+01 -1.00000E+00  1.76267E-01
      -3    -1     0     0     0   512  0.000000000E+00  0.000000000E+00  1.737462107E+00  1.737462107E+00  0.000000000E+00  0.00000E+00  9.000E+00
      21    -1     0     0   512   514  0.000000000E+00  0.000000000E+00 -6.146152855E+02  6.146152855E+02  0.000000000E+00  0.00000E+00  9.000E+00
      -3     1     1     2     0   511  3.101067566E-01 -1.349998858E+01 -3.132260371E+01  3.411306731E+01  5.000000000E-01  0.00000E+00  9.000E+00
      21     1     1     2   511   515  2.587442870E+00  2.048305329E+01 -4.164492152E+02  4.169606687E+02  7.629394531E-06  0.00000E+00  9.000E+00
      21     1     1     2   515   514 -2.897549627E+00 -6.983064713E+00 -1.651060044E+02  1.652790116E+02  1.907348633E-06  0.00000E+00  9.000E+00
</event>
<event>
      5  10001  2.40292E+09  1.74467E+00 -1.00000E+00  3.92971E-01
      21    -1     0     0   513   516  0.000000000E+00  0.000000000E+00  8.050820132E-01  8.050820132E-01  0.000000000E+00  0.00000E+00  9.000E+00
       2    -1     0     0   511     0  0.000000000E+00  0.000000000E+00 -1.377128219E+03  1.377128219E+03  0.000000000E+00  0.00000E+00  9.000E+00
      21     1     1     2   511   512 -9.924403094E+00 -1.117988811E+01 -7.807380543E+02  7.808811645E+02  1.078959322E-05  0.00000E+00  9.000E+00
       2     1     1     2   513     0  1.165576496E+01  1.096545677E+01 -5.949952825E+02  5.952105453E+02  3.300000131E-01  0.00000E+00  9.000E+00
      21     1     1     2   512   516 -1.731361861E+00  2.144313372E-01 -5.898004735E-01  1.841591511E+00  4.857184295E-07  0.00000E+00  9.000E+00
</event>
<event>
      5  10001  2.40292E+09  7.36544E+00 -1.00000E+00  2.12407E-01
      21    -1     0     0   514   512  0.000000000E+00  0.000000000E+00  1.400824352E+03  1.400824352E+03  0.000000000E+00  0.00000E+00  9.000E+00
      21    -1     0     0   515   514  0.000000000E+00  0.000000000E+00 -1.571718895E-01  1.571718895E-01  0.000000000E+00  0.00000E+00  9.000E+00
      21     1     1     2   515   511 -1.115660402E+01  1.801095562E-01  2.848000423E+02  2.850185369E+02  5.394796609E-06  0.00000E+00  9.000E+00
      21     1     1     2   513   512  5.758310596E+00  2.744907596E+00  8.542298806E+02  8.542536986E+02  1.078959322E-05  0.00000E+00  9.000E+00
      21     1     1     2   511   513  5.398293419E+00 -2.925017153E+00  2.616372572E+02  2.617092885E+02  3.814697266E-06  0.00000E+00  9.000E+00
</event>
<event>
      5  10001  2.40292E+09  4.19264E+00 -1.00000E+00  2.58644E-01
      21    -1     0     0   516   513  0.000000000E+00  0.000000000E+00  3.238743620E+01  3.238743620E+01  0.000000000E+00  0.00000E+00  9.000E+00
       1    -1     0     0   511     0  0.000000000E+00  0.000000000E+00 -3.691246924E+02  3.691246924E+02  0.000000000E+00  0.00000E+00  9.000E+00
      21     1     1     2   516   517 -8.127715924E-01 -1.692349669E+01  1.026581563E+01  1.981040909E+01  3.576278687E-07  0.00000E+00  9.000E+00
      21     1     1     2   511   513  2.148577611E+00  1.294936309E+01  1.485251453E+01  1.982169463E+01  4.129530925E-07  0.00000E+00  9.000E+00
       1     1     1     2   517     0 -1.335806019E+00  3.974133601E+00 -3.618555863E+02  3.618800248E+02  3.300000131E-01  0.00000E+00  9.000E+00
</event>
<event>
      5  10001  2.40292E+09  6.96128E+00 -1.00000E+00  2.15823E-01
       2    -1     0     0   514     0  0.000000000E+00  0.000000000E+00  1.924504121E+02  1.924504121E+02  0.000000000E+00  0.00000E+00  9.000E+00
      -4    -1     0     0     0   512  0.000000000E+00  0.000000000E+00 -2.034758419E+01  2.034758419E+01  0.000000000E+00  0.00000E+00  9.000E+00
      -4     1     1     2     0   511  1.156301142E+01  1.363777825E+00 -1.275909779E+01  1.733804197E+01  1.500000000E+00  0.00000E+00  9.000E+00
      21     1     1     2   514   512 -1.275874331E+01  5.492635996E+00  3.988102276E+00  1.445197359E+01  1.115100797E-07  0.00000E+00  9.000E+00
       2     1     1     2   511     0  1.195731883E+00 -6.856413821E+00  1.808738234E+02  1.810079807E+02  3.300000131E-01  0.00000E+00  9.000E+00
</event>
<event>
      5  10001  2.40292E+09  8.30946E+00 -1.00000E+00  2.05474E-01
      21    -1     0     0   513   516  0.000000000E+00  0.000000000E+00  9.576612008E+00  9.576612008E+00  0.000000000E+00  0.00000E+00  9.000E+00
      21    -1     0     0   511   515  0.000000000E+00  0.000000000E+00 -1.314506493E+01  1.314506493E+01  0.000000000E+00  0.00000E+00  9.000E+00
      21     1     1     2   513   515  2.016622027E+00  9.148470667E+00  5.754972943E-01  9.385759270E+00  8.396377913E-08  0.00000E+00  9.000E+00
      21     1     1     2   511   512  2.118160777E+00 -4.851217572E+00 -5.035758699E+00  7.306146911E+00  8.429369702E-08  0.00000E+00  9.000E+00
      21     1     1     2   512   516 -4.134782805E+00 -4.297253095E+00  8.918084831E-01  6.029770756E+00  1.251165243E-07  0.00000E+00  9.000E+00
</event>
<event>
      5  10001  2.40292E+09  6.30890E+00 -1.00000E+00  2.22062E-01
      -2    -1     0     0     0   512  0.000000000E+00  0.000000000E+00  1.420004564E+01  1.420004564E+01  0.000000000E+00  0.00000E+00  9.000E+00
       2    -1     0     0   512     0  0.000000000E+00  0.000000000E+00 -2.322322894E+02  2.322322894E+02  0.000000000E+00  0.00000E+00  9.000E+00
      -2     1     1     2     0   513  1.125925683E+01  8.707986682E-01  1.166067269E+01  1.623605070E+01  3.300000131E-01  0.00000E+00  9.000E+00
      21     1     1     2   513   511 -7.478527351E+00 -5.114081826E+00 -1.669450021E+02  1.671906574E+02  3.303624740E-06  0.00000E+00  9.000E+00
       2     1     1     2   511     0 -3.780729483E+00  4.243283158E+00 -6.274791434E+01  6.300562690E+01  3.300000131E-01  0.00000E+00  9.000E+00
</event>
<event>
      5  10001  2.40292E+09  5.68175E+00 -1.00000E+00  2.29131E-01
      21    -1     0     0   514   511  0.000000000E+00  0.000000000E+00  2.850675548E+02  2.850675548E+02  0.000000000E+00  0.00000E+00  9.000E+00
      21    -1     0     0   512   514  0.000000000E+00  0.000000000E+00 -2.299237021E+00  2.299237021E+00  0.000000000E+00  0.00000E+00  9.000E+00
      21     1     1     2   515   511  1.109809083E+01 -8.800127457E+00  2.574657470E+02  2.578550382E+02  0.000000000E+00  0.00000E+00  9.000E+00
      21     1     1     2   513   515 -4.666970594E+00  1.938074548E+00  4.867132480E+00  7.016104764E+00  1.576990671E-07  0.00000E+00  9.000E+00
      21     1     1     2   512   513 -6.431120233E+00  6.862052909E+00  2.043543829E+01  2.249564882E+01  4.129530925E-07  0.00000E+00  9.000E+00
</event>
<event>
      5  10001  2.40292E+09  2.18542E+01 -1.00000E+00  1.63213E-01
       3    -1     0     0   512     0  0.000000000E+00  0.000000000E+00  1.333012163E+02  1.333012163E+02  0.000000000E+00  0.00000E+00  9.000E+00
       2    -1     0     0   511     0  0.000000000E+00  0.000000000E+00 -2.836673188E+02  2.836673188E+02  0.000000000E+00  0.00000E+00  9.000E+00
      21     1     1     2   512   514 -8.174646992E+00  1.196170048E-02 -5.964915260E+01  6.020669732E+01  0.000000000E+00  0.00000E+00  9.000E+00
       3     1     1     2   511     0  1.676340806E+01  1.984302815E+00  1.323988853E+02  1.334715855E+02  5.000000000E-01  0.00000E+00  9.000E+00
       2     1     1     2   514     0 -8.588761065E+00 -1.996264515E+00 -2.231158353E+02  2.232902522E+02  3.300000131E-01  0.00000E+00  9.000E+00
</event>
<event>
      5  10001  2.40292E+09  2.02095E+01 -1.00000E+00  1.65955E-01
      21    -1     0     0   513   511  0.000000000E+00  0.000000000E+00  6.233221147E+01  6.233221147E+01  0.000000000E+00  0.00000E+00  9.000E+00
      21    -1     0     0   514   515  0.000000000E+00  0.000000000E+00 -5.678736491E+01  5.678736491E+01  0.000000000E+00  0.00000E+00  9.000E+00
      21     1     1     2   513   515  3.272492873E+01  1.204048494E+01 -4.505821572E+01  5.697488079E+01  4.768371582E-07  0.00000E+00  9.000E+00
      21     1     1     2   514   512 -6.235634806E+00 -5.063073529E+00  7.018024818E+00  1.066632680E+01  8.429369702E-08  0.00000E+00  9.000E+00
      21     1     1     2   512   511 -2.648929392E+01 -6.977411411E+00  4.358503746E+01  5.147836878E+01  8.259061849E-07  0.00000E+00  9.000E+00
</event>
<event>
      5  10001  2.40292E+09  1.10043E+01 -1.00000E+00  1.91017E-01
       2    -1     0     0   514     0  0.000000000E+00  0.000000000E+00  9.455298527E+01  9.455298527E+01  0.000000000E+00  0.00000E+00  9.000E+00
      21    -1     0     0   512   516  0.000000000E+00  0.000000000E+00 -1.399752358E+00  1.399752358E+00  0.000000000E+00  0.00000E+00  9.000E+00
      21     1     1     2   514   516 -7.938907800E+00 -7.175685504E+00  4.889973213E+01  5.005697276E+01  6.743495762E-07  0.00000E+00  9.000E+00
       2     1     1     2   513     0  1.761993387E+00  5.379349232E-01  1.846663005E+01  1.856123164E+01  3.300000131E-01  0.00000E+00  9.000E+00
      21     1     1     2   512   513  6.176914414E+00  6.637750581E+00  2.578687073E+01  2.733453323E+01  0.000000000E+00  0.00000E+00  9.000E+00
</event>
<event>
      5  10001  2.40292E+09  5.58139E+00 -1.00000E+00  2.30381E-01
       2    -1     0     0   514     0  0.000000000E+00  0.000000000E+00  2.059795453E+02  2.059795453E+02  0.000000000E+00  0.00000E+00  9.000E+00
      21    -1     0     0   513   514  0.000000000E+00  0.000000000E+00 -5.510044804E+00  5.510044804E+00  0.000000000E+00  0.00000E+00  9.000E+00
      21     1     1     2   513   511  1.079154701E+01 -1.151102429E+00  7.660272016E-01  1.087976661E+01  1.974052384E-07  0.00000E+00  9.000E+00
       2     1     1     2   515     0 -7.497735867E+00 -1.046357364E+00  1.896991197E+02  1.898504038E+02  3.300000131E-01  0.00000E+00  9.000E+00
      21     1     1     2   511   515 -3.293811145E+00  2.197459792E+00  1.000435355E+01  1.075941966E+01  1.685873940E-07  0.00000E+00  9.000E+00
</event>
<event>
      5  10001  2.40292E+09  6.37698E+00 -1.00000E+00  2.21363E-01
      -3    -1     0     0     0   513  0.000000000E+00  0.000000000E+00  2.628944841E+01  2.628944841E+01  0.000000000E+00  0.00000E+00  9.000E+00
      21    -1     0     0   511   516  0.000000000E+00  0.000000000E+00 -1.773537000E+02  1.773537000E+02  0.000000000E+00  0.00000E+00  9.000E+00
      21     1     1     2   512   516 -1.081348603E-01 -7.943213929E+00 -1.455474285E+01  1.658152225E+01  7.725644944E-07  0.00000E+00  9.000E+00
      21     1     1     2   511   513  3.801459199E+00  1.314168465E+01 -1.610862570E+02  1.616661287E+02  1.907348633E-06  0.00000E+00  9.000E+00
      -3     1     1     2     0   512 -3.693324339E+00 -5.198470725E+00  2.457674820E+01  2.539549753E+01  5.000000000E-01  0.00000E+00  9.000E+00
</event>
<event>
      5  10001  2.40292E+09  1.04269E+01 -1.00000E+00  1.93625E-01
       1    -1     0     0   511     0  0.000000000E+00  0.000000000E+00  2.681819381E+02  2.681819381E+02  0.000000000E+00  0.00000E+00  9.000E+00
      -2    -1     0     0     0   515  0.000000000E+00  0.000000000E+00 -5.594996227E+02  5.594996227E+02  0.000000000E+00  0.00000E+00  9.000E+00
      21     1     1     2   511   515 -1.717907017E+01  1.003938978E+01 -5.471106613E+01  5.821692671E+01  6.743495762E-07  0.00000E+00  9.000E+00
       1     1     1     2   514     0  7.129661764E+00 -7.259227436E+00  2.662776449E+02  2.664721777E+02  3.300000131E-01  0.00000E+00  9.000E+00
      -2     1     1     2     0   514  1.004940841E+01 -2.780162344E+00 -5.028842633E+02  5.029924563E+02  3.300000131E-01  0.00000E+00  9.000E+00
</event>
<event>
      5  10001  2.40292E+09  6.16361E+00 -1.00000E+00  2.23595E-01
       1    -1     0     0   511     0  0.000000000E+00  0.000000000E+00  1.149938724E+03  1.149938724E+03  0.000000000E+00  0.00000E+00  9.000E+00
      21    -1     0     0   515   511  0.000000000E+00  0.000000000E+00 -2.398068659E+00  2.398068659E+00  0.000000000E+00  0.00000E+00  9.000E+00
      21     1     1     2   513   512  1.381437701E+01 -9.195289051E+00  2.983826917E+01  3.414253447E+01  3.234066955E-06  0.00000E+00  9.000E+00
       1     1     1     2   512     0 -1.591519184E+01  3.400816982E+00  1.066217367E+03  1.066341615E+03  3.300000131E-01  0.00000E+00  9.000E+00
      21     1     1     2   515   513  2.100814830E+00  5.794472069E+00  5.148501998E+01  5.185264325E+01  0.000000000E+00  0.00000E+00  9.000E+00
</event>
<event>
      5  10001  2.40292E+09  2.16888E+01 -1.00000E+00  1.63476E-01
      21    -1     0     0   514   512  0.000000000E+00  0.000000000E+00  3.828091587E-01  3.828091587E-01  0.000000000E+00  0.00000E+00  9.000E+00
      21    -1     0     0   515   513  0.000000000E+00  0.000000000E+00 -3.668036335E+02  3.668036335E+02  0.000000000E+00  0.00000E+00  9.000E+00
      21     1     1     2   514   513 -1.307781031E+00  1.775164138E+00 -3.455650567E+01  3.462677552E+01  6.743495762E-07  0.00000E+00  9.000E+00
      21     1     1     2   515   511  2.907576735E+00  2.465989525E+00 -3.169222766E+02  3.169452074E+02  0.000000000E+00  0.00000E+00  9.000E+00
      21     1     1     2   511   512 -1.599795703E+00 -4.241153664E+00 -1.494204207E+01  1.561445970E+01  7.907449699E-07  0.00000E+00  9.000E+00
</event>
<event>
      5  10001  2.40292E+09  1.80595E+01 -1.00000E+00  1.70068E-01
      21    -1     0     0   516   513  0.000000000E+00  0.000000000E+00  2.637273360E+01  2.637273360E+01  0.000000000E+00  0.00000E+00  9.000E+00
      21    -1     0     0   517   512  0.000000000E+00  0.000000000E+00 -9.935519769E+00  9.935519769E+00  0.000000000E+00  0.00000E+00  9.000E+00
      21     1     1     2   516   512 -8.857009364E+00 -4.099260384E-01 -2.787531350E+00  9.294352332E+00  1.812804499E-07  0.00000E+00  9.000E+00
      21     1     1     2   514   513  2.188361517E+00 -7.856057327E+00  1.032628212E+01  1.315821664E+01  2.064765462E-07  0.00000E+00  9.000E+00
      21     1     1     2   517   514  6.668647848E+00  8.265983366E+00  8.898463060E+00  1.385568439E+01  2.920019320E-07  0.00000E+00  9.000E+00
</event>
<event>
      5  10001  2.40292E+09  1.65858E+00 -1.00000E+00  4.05548E-01
      21    -1     0     0   512   513  0.000000000E+00  0.000000000E+00  8.698413826E-01  8.698413826E-01  0.000000000E+00  0.00000E+00  9.000E+00
       1    -1     0     0   513     0  0.000000000E+00  0.000000000E+00 -1.691144723E+02  1.691144723E+02  0.000000000E+00  0.00000E+00  9.000E+00
      21     1     1     2   514   511  1.139123352E+00  1.135236628E+01 -6.097158113E+01  6.202989221E+01  9.536743164E-07  0.00000E+00  9.000E+00
       1     1     1     2   511     0 -1.227022140E+00 -9.696470926E+00 -1.007650315E+02  1.012384690E+02  3.300000131E-01  0.00000E+00  9.000E+00
      21     1     1     2   512   514  8.789878737E-02 -1.655895351E+00 -6.508018260E+00  6.715952448E+00  0.000000000E+00  0.00000E+00  9.000E+00
</event>
<event>
      5  10001  2.40292E+09  6.40690E+00 -1.00000E+00  2.21060E-01
      21    -1     0     0   515   514  0.000000000E+00  0.000000000E+00  2.036296340E+02  2.036296340E+02  0.000000000E+00  0.00000E+00  9.000E+00
      21    -1     0     0   513   515  0.000000000E+00  0.000000000E+00 -1.183363739E+00  1.183363739E+00  0.000000000E+00  0.00000E+00  9.000E+00
      21     1     1     2   516   514 -1.279440245E+00 -1.036141916E+01  1.660416699E+02  1.663695649E+02  2.697398305E-06  0.00000E+00  9.000E+00
      21     1     1     2   511   516  3.739997538E+00  6.009039651E+00  2.517624901E+01  2.615223993E+01  3.371747881E-07  0.00000E+00  9.000E+00
      21     1     1     2   513   511 -2.460557293E+00  4.352379513E+00  1.122835135E+01  1.229119293E+01  1.685873940E-07  0.00000E+00  9.000E+00
</event>
<event>
      5  10001  2.40292E+09  5.78234E+00 -1.00000E+00  2.27913E-01
      21    -1     0     0   513   511  0.000000000E+00  0.000000000E+00  7.066773727E+01  7.066773727E+01  0.000000000E+00  0.00000E+00  9.000E+00
      -1    -1     0     0     0   512  0.000000000E+00  0.000000000E+00 -7.332658730E+01  7.332658730E+01  0.000000000E+00  0.00000E+00  9.000E+00
      -1     1     1     2     0   511  4.950422863E+00 -1.088535070E+01 -7.228561273E+01  7.326879455E+01  3.300000131E-01  0.00000E+00  9.000E+00
      21     1     1     2   513   514 -2.181220035E+00  1.626997268E+00  1.755598684E+01  1.776562735E+01  3.371747881E-07  0.00000E+00  9.000E+00
      21     1     1     2   514   512 -2.769202828E+00  9.258353436E+00  5.207077586E+01  5.295990267E+01  1.168007728E-06  0.00000E+00  9.000E+00
</event>
<event>
      5  10001  2.40292E+09  1.10319E+01 -1.00000E+00  1.90897E-01
      -4    -1     0     0     0   515  0.000000000E+00  0.000000000E+00  2.382831967E+00  2.382831967E+00  0.000000000E+00  0.00000E+00  9.000E+00
      21    -1     0     0   515   512  0.000000000E+00  0.000000000E+00 -8.706019445E+01  8.706019445E+01  0.000000000E+00  0.00000E+00  9.000E+00
      -4     1     1     2     0   511  1.009706591E+00 -3.065951845E+00 -2.043259768E+00  4.104202553E+00  1.500000000E+00  0.00000E+00  9.000E+00
      21     1     1     2   514   512  7.157573242E+00  6.341234861E+00 -6.424506053E+01  6.495282840E+01  9.536743164E-07  0.00000E+00  9.000E+00
      21     1     1     2   511   514 -8.167279833E+00 -3.275283016E+00 -1.838904219E+01  2.038599547E+01  4.129530925E-07  0.00000E+00  9.000E+00
</event>
<event>
      5  10001  2.40292E+09  3.91341E+00 -1.00000E+00  2.65620E-01
      21    -1     0     0   513   512  0.000000000E+00  0.000000000E+00  1.217630616E+01  1.217630616E+01  0.000000000E+00  0.00000E+00  9.000E+00
      21    -1     0     0   515   513  0.000000000E+00  0.000000000E+00 -6.018142432E+01  6.018142432E+01  0.000000000E+00  0.00000E+00  9.000E+00
      21     1     1     2   514   512 -5.052866324E+00 -8.886844050E+00  9.029393181E+00  1.363955265E+01  4.129530925E-07  0.00000E+00  9.000E+00
      -2     1     1     2     0   514  7.601546786E+00  7.666084965E+00 -4.949221783E+01  5.065709129E+01  3.300000131E-01  0.00000E+00  9.000E+00
       2     1     1     2   515     0 -2.548680463E+00  1.220759085E+00 -7.542293506E+00  8.061086539E+00  3.300000131E-01  0.00000E+00  9.000E+00
</event>
<event>
      5  10001  2.40292E+09  2.50629E+00 -1.00000E+00  3.22602E-01
       2    -1     0     0   512     0  0.000000000E+00  0.000000000E+00  7.165859446E+01  7.165859446E+01  0.000000000E+00  0.00000E+00  9.000E+00
      21    -1     0     0   511   513  0.000000000E+00  0.000000000E+00 -1.051176193E+01  1.051176193E+01  0.000000000E+00  0.00000E+00  9.000E+00
      21     1     1     2   515   513  5.899799691E+00 -9.100791180E+00 -6.439786570E+00  1.261359931E+01  1.192092896E-07  0.00000E+00  9.000E+00
       2     1     1     2   511     0 -6.714467168E+00  1.147088373E+01  6.234307922E+01  6.374506780E+01  3.300000131E-01  0.00000E+00  9.000E+00
      21     1     1     2   512   515  8.146674771E-01 -2.370092548E+00  5.243539887E+00  5.811689284E+00  0.000000000E+00  0.00000E+00  9.000E+00
</event>
<event>
      5  10001  2.40292E+09  5.96381E+00 -1.00000E+00  2.25802E-01
      21    -1     0     0   514   511  0.000000000E+00  0.000000000E+00  9.054965800E+01  9.054965800E+01  0.000000000E+00  0.00000E+00  9.000E+00
      21    -1     0     0   516   515  0.000000000E+00  0.000000000E+00 -9.398688388E+00  9.398688388E+00  0.000000000E+00  0.00000E+00  9.000E+00
      21     1     1     2   514   515 -3.631159441E+00 -1.729045724E+01  7.509794343E+01  7.714821021E+01  9.536743164E-07  0.00000E+00  9.000E+00
      21     1     1     2   516   513  1.297925592E+00  1.260310039E+01 -2.363051651E+00  1.288824128E+01  4.693274423E-07  0.00000E+00  9.000E+00
      21     1     1     2   513   511  2.333233849E+00  4.687356844E+00  8.416077830E+00  9.911894896E+00  0.000000000E+00  0.00000E+00  9.000E+00
</event>
<event>
      5  10001  2.40292E+09  1.32909E+01 -1.00000E+00  1.82430E-01
       4    -1     0     0   514     0  0.000000000E+00  0.000000000E+00  3.120269137E+00  3.120269137E+00  0.000000000E+00  0.00000E+00  9.000E+00
      21    -1     0     0   513   514  0.000000000E+00  0.000000000E+00 -1.556019466E+02  1.556019466E+02  0.000000000E+00  0.00000E+00  9.000E+00
      21     1     1     2   513   512  3.430367113E+00  9.796192478E+00 -9.690904853E+01  9.746330844E+01  1.348699152E-06  0.00000E+00  9.000E+00
       4     1     1     2   515     0 -6.852875079E+00 -9.997102508E+00 -1.064578407E+01  1.620144049E+01  1.500000000E+00  0.00000E+00  9.000E+00
      21     1     1     2   512   515  3.422507966E+00  2.009100294E-01 -4.492684489E+01  4.505746683E+01  6.743495762E-07  0.00000E+00  9.000E+00
</event>
<event>
      5  10001  2.40292E+09  2.67491E+00 -1.00000E+00  3.12694E-01
      21    -1     0     0   511   515  0.000000000E+00  0.000000000E+00  8.808792207E-01  8.808792207E-01  0.000000000E+00  0.00000E+00  9.000E+00
       2    -1     0     0   512     0  0.000000000E+00  0.000000000E+00 -2.257937547E+02  2.257937547E+02  0.000000000E+00  0.00000E+00  9.000E+00
      21     1     1     2   513   515  6.908840130E+00 -1.762279292E+00 -8.690478856E+01  8.719678879E+01  9.536743164E-07  0.00000E+00  9.000E+00
       2     1     1     2   511     0 -1.105746552E+01  3.348449828E+00 -4.844453088E+01  4.980422805E+01  3.300000131E-01  0.00000E+00  9.000E+00
      21     1     1     2   512   513  4.148625385E+00 -1.586170536E+00 -8.956355608E+01  8.967361712E+01  1.348699152E-06  0.00000E+00  9.000E+00
</event>
<event>
      5  10001  2.40292E+09  8.95107E+00 -1.00000E+00  2.01428E-01
      21    -1     0     0   514   515  0.000000000E+00  0.000000000E+00  1.380904977E+01  1.380904977E+01  0.000000000E+00  0.00000E+00  9.000E+00
      21    -1     0     0   512   513  0.000000000E+00  0.000000000E+00 -4.165635737E+02  4.165635737E+02  0.000000000E+00  0.00000E+00  9.000E+00
      21     1     1     2   514   513 -1.010787786E+01  3.569028754E+00  1.163478432E+01  1.582009378E+01  9.973764736E-07  0.00000E+00  9.000E+00
      21     1     1     2   511   515  3.829322549E+00 -5.281608784E-01 -8.319410061E+01  8.328385823E+01  1.348699152E-06  0.00000E+00  9.000E+00
      21     1     1     2   512   511  6.278555311E+00 -3.040867875E+00 -3.311952076E+02  3.312686715E+02  3.814697266E-06  0.00000E+00  9.000E+00
</event>
<event>
      5  10001  2.40292E+09  3.89782E+00 -1.00000E+00  2.66036E-01
      21    -1     0     0   513   512  0.000000000E+00  0.000000000E+00  2.381015897E+00  2.381015897E+00  0.000000000E+00  0.00000E+00  9.000E+00
       1    -1     0     0   512     0  0.000000000E+00  0.000000000E+00 -5.764930879E+02  5.764930879E+02  0.000000000E+00  0.00000E+00  9.000E+00
      -2     1     1     2     0   514  1.193638788E+01 -3.991051816E+00 -4.096793136E+02  4.098727300E+02  3.300000131E-01  0.00000E+00  9.000E+00
       1     1     1     2   514     0 -8.732343296E+00  1.772072617E+00 -1.648290100E+02  1.650700019E+02  3.300000131E-01  0.00000E+00  9.000E+00
       2     1     1     2   513     0 -3.204044588E+00  2.218979199E+00  3.962516512E-01  3.931371998E+00  3.300000131E-01  0.00000E+00  9.000E+00
</event>
<event>
      5  10001  2.40292E+09  1.16077E+01 -1.00000E+00  1.88505E-01
      -3    -1     0     0     0   511  0.000000000E+00  0.000000000E+00  1.003247435E+02  1.003247435E+02  0.000000000E+00  0.00000E+00  9.000E+00
      21    -1     0     0   514   513  0.000000000E+00  0.000000000E+00 -3.293923891E+01  3.293923891E+01  0.000000000E+00  0.00000E+00  9.000E+00
      -3     1     1     2     0   512  2.199212321E+01 -1.651709364E+01  7.584099101E+01  8.067573230E+01  5.000000000E-01  0.00000E+00  9.000E+00
      21     1     1     2   512   513 -2.623151373E+01  2.732267274E+01 -1.311182197E+01  4.008167454E+01  1.118282261E-06  0.00000E+00  9.000E+00
      21     1     1     2   514   511  4.239390526E+00 -1.080557909E+01  4.656335550E+00  1.250657556E+01  1.884864366E-07  0.00000E+00  9.000E+00
</event>
<event>
      5  10001  2.40292E+09  1.18260E+01 -1.00000E+00  1.87644E-01
       1    -1     0     0   513     0  0.000000000E+00  0.000000000E+00  1.325164705E+01  1.325164705E+01  0.000000000E+00  0.00000E+00  9.000E+00
       2    -1     0     0   514     0  0.000000000E+00  0.000000000E+00 -1.286588393E+02  1.286588393E+02  0.000000000E+00  0.00000E+00  9.000E+00
      21     1     1     2   514   512  2.965318480E+00 -1.167001295E+01  2.471246072E+00  1.229184173E+01  4.460403188E-07  0.00000E+00  9.000E+00
       2     1     1     2   513     0  1.874903323E+00  1.076114351E+01 -1.224226861E+02  1.229094807E+02  3.300000131E-01  0.00000E+00  9.000E+00
       1     1     1     2   512     0 -4.840221803E+00  9.088694373E-01  4.544247870E+00  6.709163842E+00  3.300000131E-01  0.00000E+00  9.000E+00
</event>
<event>
      5  10001  2.40292E+09  6.85865E+00 -1.00000E+00  2.16741E-01
      21    -1     0     0   511   514  0.000000000E+00  0.000000000E+00  8.127706560E+00  8.127706560E+00  0.000000000E+00  0.00000E+00  9.000E+00
      21    -1     0     0   512   515  0.000000000E+00  0.000000000E+00 -4.309380644E+01  4.309380644E+01  0.000000000E+00  0.00000E+00  9.000E+00
      21     1     1     2   511   515 -5.183949410E+00  9.016350173E+00  2.893639663E+00  1.079541812E+01  4.214684851E-08  0.00000E+00  9.000E+00
      21     1     1     2   512   513  7.443398939E-01 -4.211619984E+00 -2.951262695E+01  2.982091437E+01  3.371747881E-07  0.00000E+00  9.000E+00
      21     1     1     2   513   514  4.439609516E+00 -4.804730188E+00 -8.347112593E+00  1.060518050E+01  2.064765462E-07  0.00000E+00  9.000E+00
</event>
<event>
      5  10001  2.40292E+09  6.13031E+00 -1.00000E+00  2.23955E-01
      21    -1     0     0   516   514  0.000000000E+00  0.000000000E+00  8.632844194E+00  8.632844194E+00  0.000000000E+00  0.00000E+00  9.000E+00
      21    -1     0     0   512   516  0.000000000E+00  0.000000000E+00 -1.666805583E+02  1.666805583E+02  0.000000000E+00  0.00000E+00  9.000E+00
      -3     1     1     2     0   511 -1.218862020E+01 -1.684953860E+00 -6.699624470E+01  6.811863428E+01  5.000000000E-01  0.00000E+00  9.000E+00
      21     1     1     2   511   514  1.596749426E+01 -3.140813082E+00 -3.419736217E-01  1.627705519E+01  2.094130117E-07  0.00000E+00  9.000E+00
       3     1     1     2   512     0 -3.778874068E+00  4.825766942E+00 -9.070949575E+01  9.091771299E+01  5.000000000E-01  0.00000E+00  9.000E+00
</event>
<event>
      5  10001  2.40292E+09  3.65911E+01 -1.00000E+00  1.47248E-01
      21    -1     0     0   513   514  0.000000000E+00  0.000000000E+00  1.253688166E+01  1.253688166E+01  0.000000000E+00  0.00000E+00  9.000E+00
      21    -1     0     0   512   513  0.000000000E+00  0.000000000E+00 -3.057016151E+01  3.057016151E+01  0.000000000E+00  0.00000E+00  9.000E+00
      21     1     1     2   515   514  3.562394155E+00 -9.513995239E-01 -2.634094408E+00  4.531475093E+00  3.885747436E-07  0.00000E+00  9.000E+00
      21     1     1     2   511   515 -5.637485785E-01 -7.552999844E+00 -2.457184235E+01  2.571266333E+01  3.371747881E-07  0.00000E+00  9.000E+00
      21     1     1     2   512   511 -2.998645576E+00  8.504399368E+00  9.172656908E+00  1.286290475E+01  4.460403188E-07  0.00000E+00  9.000E+00
</event>
<event>
      5  10001  2.40292E+09  1.76158E+01 -1.00000E+00  1.71006E-01
      21    -1     0     0   516   511  0.000000000E+00  0.000000000E+00  7.982338147E+01  7.982338147E+01  0.000000000E+00  0.00000E+00  9.000E+00
      21    -1     0     0   512   516  0.000000000E+00  0.000000000E+00 -1.074340382E+01  1.074340382E+01  0.000000000E+00  0.00000E+00  9.000E+00
      21     1     1     2   512   517  3.393105191E+00  1.926891359E+01  9.736643633E+00  2.185420836E+01  2.920019320E-07  0.00000E+00  9.000E+00
      21     1     1     2   517   513 -7.555535496E+00 -1.620342231E+01  6.077372415E+01  6.334889548E+01  0.000000000E+00  0.00000E+00  9.000E+00
      21     1     1     2   513   511  4.162430305E+00 -3.065491278E+00 -1.430390134E+00  5.363681455E+00  1.896608183E-07  0.00000E+00  9.000E+00
</event>
<event>
      5  10001  2.40292E+09  3.02473E+00 -1.00000E+00  2.95652E-01
      21    -1     0     0   514   515  0.000000000E+00  0.000000000E+00  2.461337082E+02  2.461337082E+02  0.000000000E+00  0.00000E+00  9.000E+00
       2    -1     0     0   512     0  0.000000000E+00  0.000000000E+00 -1.730089198E+01  1.730089198E+01  0.000000000E+00  0.00000E+00  9.000E+00
      21     1     1     2   514   511  6.062545766E+00 -1.106792367E+01  4.566575813E+01  4.737736655E+01  1.507891493E-06  0.00000E+00  9.000E+00
      21     1     1     2   512   515 -5.711632931E+00  8.063637494E+00  1.993479726E+02  1.995927333E+02  0.000000000E+00  0.00000E+00  9.000E+00
       2     1     1     2   511     0 -3.509128347E-01  3.004286178E+00 -1.618091454E+01  1.646450031E+01  3.300000131E-01  0.00000E+00  9.000E+00
</event>
<event>
      5  10001  2.40292E+09  7.94554E+00 -1.00000E+00  2.07993E-01
      21    -1     0     0   513   512  0.000000000E+00  0.000000000E+00  8.287269904E+02  8.287269904E+02  0.000000000E+00  0.00000E+00  9.000E+00
      21    -1     0     0   514   516  0.000000000E+00  0.000000000E+00 -1.652021110E+00  1.652021110E+00  0.000000000E+00  0.00000E+00  9.000E+00
      21     1     1     2   513   516  1.217411182E+01 -3.994090575E+00  3.550314926E+01  3.774434217E+01  2.654916936E-06  0.00000E+00  9.000E+00
      21     1     1     2   511   512 -1.993284278E+01  2.281264815E+00  7.522821487E+02  7.525496354E+02  0.000000000E+00  0.00000E+00  9.000E+00
      21     1     1     2   514   511  7.758730957E+00  1.712825759E+00  3.928967128E+01  4.008503396E+01  8.259061849E-07  0.00000E+00  9.000E+00
</event>
<event>
      5  10001  2.40292E+09  6.77636E+00 -1.00000E+00  2.17493E-01
      21    -1     0     0   515   511  0.000000000E+00  0.000000000E+00  6.056050976E+01  6.056050976E+01  0.000000000E+00  0.00000E+00  9.000E+00
      21    -1     0     0   511   512  0.000000000E+00  0.000000000E+00 -4.121842954E+00  4.121842954E+00  0.000000000E+00  0.00000E+00  9.000E+00
      -4     1     1     2     0   513 -1.245534110E+01  8.518683612E-01  1.865795934E+01  2.249956996E+01  1.500000000E+00  0.00000E+00  9.000E+00
       4     1     1     2   515     0  1.247233876E+01  2.699041102E+00  3.597166470E+01  3.819757477E+01  1.500000000E+00  0.00000E+00  9.000E+00
      21     1     1     2   513   512 -1.699766730E-02 -3.550909464E+00  1.809042760E+00  3.985207980E+00  7.300048300E-08  0.00000E+00  9.000E+00
</event>
<event>
      5  10001  2.40292E+09  1.97397E+01 -1.00000E+00  1.66798E-01
      21    -1     0     0   514   513  0.000000000E+00  0.000000000E+00  1.812922217E+01  1.812922217E+01  0.000000000E+00  0.00000E+00  9.000E+00
      21    -1     0     0   511   514  0.000000000E+00  0.000000000E+00 -9.614053336E+00  9.614053336E+00  0.000000000E+00  0.00000E+00  9.000E+00
      21     1     1     2   511   512 -2.097932350E+00 -5.212643776E+00  1.524114791E+00  5.822018652E+00  1.365713982E-07  0.00000E+00  9.000E+00
      21     1     1     2   515   513  2.130687415E+00  3.244055349E+00 -6.886405174E+00  7.904827651E+00  1.884864366E-07  0.00000E+00  9.000E+00
      21     1     1     2   512   515 -3.275506517E-02  1.968588428E+00  1.387745922E+01  1.401642921E+01  0.000000000E+00  0.00000E+00  9.000E+00
</event>
<event>
      5  10001  2.40292E+09  5.86730E+00 -1.00000E+00  2.26911E-01
      21    -1     0     0   516   512  0.000000000E+00  0.000000000E+00  1.662429560E+01  1.662429560E+01  0.000000000E+00  0.00000E+00  9.000E+00
      21    -1     0     0   511   513  0.000000000E+00  0.000000000E+00 -1.214680256E+02  1.214680256E+02  0.000000000E+00  0.00000E+00  9.000E+00
      21     1     1     2   516   517 -1.103612347E+01  2.282066254E+00 -3.628242601E+01  3.799234509E+01  1.066240300E-06  0.00000E+00  9.000E+00
      21     1     1     2   511   512  7.361389172E+00 -6.856071552E+00  1.405032122E+01  1.728025735E+01  4.129530925E-07  0.00000E+00  9.000E+00
      21     1     1     2   517   513  3.674734302E+00  4.574005298E+00 -8.261162520E+01  8.281971876E+01  0.000000000E+00  0.00000E+00  9.000E+00
</event>
<event>
      5  10001  2.40292E+09  1.98976E+00 -1.00000E+00  3.63899E-01
      21    -1     0     0   514   512  0.000000000E+00  0.000000000E+00  1.494639182E+01  1.494639182E+01  0.000000000E+00  0.00000E+00  9.000E+00
      21    -1     0     0   517   515  0.000000000E+00  0.000000000E+00 -9.150304802E+00  9.150304802E+00  0.000000000E+00  0.00000E+00  9.000E+00
      21     1     1     2   514   515 -8.279754132E+00 -6.571268284E+00  1.926476258E+00  1.074463616E+01  2.289159819E-07  0.00000E+00  9.000E+00
      21     1     1     2   517   511  6.447898715E+00  7.348076780E+00  9.542880891E-01  9.822438392E+00  1.134838627E-07  0.00000E+00  9.000E+00
      21     1     1     2   511   512  1.831855417E+00 -7.768084963E-01  2.915322669E+00  3.529622072E+00  5.960464478E-08  0.00000E+00  9.000E+00
</event>
<event>
      5  10001  2.40292E+09  1.00657E+01 -1.00000E+00  1.95371E-01
      21    -1     0     0   513   512  0.000000000E+00  0.000000000E+00  1.658133007E+00  1.658133007E+00  0.000000000E+00  0.00000E+00  9.000E+00
      -3    -1     0     0     0   513  0.000000000E+00  0.000000000E+00 -1.506985583E+02  1.506985583E+02  0.000000000E+00  0.00000E+00  9.000E+00
      -3     1     1     2     0   514  4.058577879E+00 -3.755578018E+00 -5.461865672E+01  5.490012826E+01  5.000000000E-01  0.00000E+00  9.000E+00
      21     1     1     2   511   512 -3.787855861E+00  1.361442188E+01 -5.041161752E+01  5.235486144E+01  6.743495762E-07  0.00000E+00  9.000E+00
      21     1     1     2   514   511 -2.707220175E-01 -9.858843862E+00 -4.401015101E+01  4.510170158E+01  4.768371582E-07  0.00000E+00  9.000E+00
</event>
<event>
      5  10001  2.40292E+09  7.73796E+00 -1.00000E+00  2.09512E-01
      21    -1     0     0   515   511  0.000000000E+00  0.000000000E+00  4.207635039E+01  4.207635039E+01  0.000000000E+00  0.00000E+00  9.000E+00
      21    -1     0     0   512   515  0.000000000E+00  0.000000000E+00 -1.212739349E+01  1.212739349E+01  0.000000000E+00  0.00000E+00  9.000E+00
      21     1     1     2   516   517  1.385569396E+01 -5.117683330E+00  1.744544673E+01  2.285857715E+01  6.743495762E-07  0.00000E+00  9.000E+00
      21     1     1     2   517   511 -6.506269051E+00  2.696542408E+00  1.961165638E+01  2.083794481E+01  2.384185791E-07  0.00000E+00  9.000E+00
      21     1     1     2   512   516 -7.349424907E+00  2.421140922E+00 -7.108146216E+00  1.050722192E+01  2.230201594E-07  0.00000E+00  9.000E+00
</event>
<event>
      5  10001  2.40292E+09  1.10065E+01 -1.00000E+00  1.91007E-01
      21    -1     0     0   513   516  0.000000000E+00  0.000000000E+00  1.554595642E+00  1.554595642E+00  0.000000000E+00  0.00000E+00  9.000E+00
      21    -1     0     0   512   514  0.000000000E+00  0.000000000E+00 -8.867966068E+01  8.867966068E+01  0.000000000E+00  0.00000E+00  9.000E+00
      21     1     1     2   513   514 -6.772828817E+00 -7.233819355E+00 -2.306299339E+01  2.510181302E+01  0.000000000E+00  0.00000E+00  9.000E+00
      -4     1     1     2     0   516  1.739274540E+00 -5.326180305E-01 -1.469702942E+01  1.488493976E+01  1.500000000E+00  0.00000E+00  9.000E+00
       4     1     1     2   512     0  5.033554277E+00  7.766437386E+00 -4.936504223E+01  5.024750354E+01  1.500000000E+00  0.00000E+00  9.000E+00
</event>
<event>
      5  10001  2.40292E+09  4.21293E+01 -1.00000E+00  1.43426E-01
       2    -1     0     0   512     0  0.000000000E+00  0.000000000E+00  6.166230911E+02  6.166230911E+02  0.000000000E+00  0.00000E+00  9.000E+00
      21    -1     0     0   511   515  0.000000000E+00  0.000000000E+00 -1.841770092E+01  1.841770092E+01  0.000000000E+00  0.00000E+00  9.000E+00
      21     1     1     2   512   515  4.900607176E+00  1.007376801E+01 -1.645620697E+01  1.990737302E+01  1.450243599E-06  0.00000E+00  9.000E+00
      21     1     1     2   511   513  3.766318604E+00  5.083469934E+00  1.242168571E+02  1.243778695E+02  1.348699152E-06  0.00000E+00  9.000E+00
       2     1     1     2   513     0 -8.666925781E+00 -1.515723794E+01  4.904447401E+02  4.907555496E+02  3.300000131E-01  0.00000E+00  9.000E+00
</event>
<event>
      5  10001  2.40292E+09  5.36523E+00 -1.00000E+00  2.33204E-01
      21    -1     0     0   514   512  0.000000000E+00  0.000000000E+00  2.451805687E+00  2.451805687E+00  0.000000000E+00  0.00000E+00  9.000E+00
      21    -1     0     0   517   516  0.000000000E+00  0.000000000E+00 -5.128101953E+02  5.128101953E+02  0.000000000E+00  0.00000E+00  9.000E+00
      21     1     1     2   514   516  1.265869895E+01 -8.996924737E+00 -2.711151438E+02  2.715595856E+02  5.394796609E-06  0.00000E+00  9.000E+00
      21     1     1     2   517   511 -7.297494753E+00  9.204671950E+00 -2.378758266E+02  2.381656741E+02  6.031565972E-06  0.00000E+00  9.000E+00
      21     1     1     2   511   512 -5.361204193E+00 -2.077472125E-01 -1.367419161E+00  5.536741322E+00  2.965293637E-07  0.00000E+00  9.000E+00
</event>
<event>
      5  10001  2.40292E+09  5.26692E+00 -1.00000E+00  2.34551E-01
      21    -1     0     0   513   512  0.000000000E+00  0.000000000E+00  3.926098655E+00  3.926098655E+00  0.000000000E+00  0.00000E+00  9.000E+00
       1    -1     0     0   512     0  0.000000000E+00  0.000000000E+00 -1.121535087E+03  1.121535087E+03  0.000000000E+00  0.00000E+00  9.000E+00
      21     1     1     2   513   511 -1.044916911E+01  1.556380517E+00 -3.338729095E+00  1.107946603E+01  3.746093836E-07  0.00000E+00  9.000E+00
       1     1     1     2   514     0  4.548439520E+00 -8.853224075E-01 -9.378970048E+02  9.379085098E+02  3.300000131E-01  0.00000E+00  9.000E+00
      21     1     1     2   511   514  5.900729594E+00 -6.710581098E-01 -1.763732542E+02  1.764732097E+02  2.697398305E-06  0.00000E+00  9.000E+00
</event>
<event>
      5  10001  2.40292E+09  6.77443E+00 -1.00000E+00  2.17511E-01
      -1    -1     0     0     0   512  0.000000000E+00  0.000000000E+00  1.252114739E+01  1.252114739E+01  0.000000000E+00  0.00000E+00  9.000E+00
      21    -1     0     0   511   516  0.000000000E+00  0.000000000E+00 -8.706849823E+01  8.706849823E+01  0.000000000E+00  0.00000E+00  9.000E+00
      21     1     1     2   515   516  1.209309128E+01 -5.118032341E-01 -5.151128568E+01  5.291424526E+01  6.743495762E-07  0.00000E+00  9.000E+00
      21     1     1     2   511   512 -1.525602979E+01  6.502279718E+00 -3.163818940E+01  3.572115781E+01  3.371747881E-07  0.00000E+00  9.000E+00
      -1     1     1     2     0   515  3.162938516E+00 -5.990476484E+00  8.602124232E+00  1.095424255E+01  3.300000131E-01  0.00000E+00  9.000E+00
</event>
<event>
      5  10001  2.40292E+09  1.30082E+01 -1.00000E+00  1.83367E-01
      21    -1     0     0   511   512  0.000000000E+00  0.000000000E+00  2.132541702E+01  2.132541702E+01  0.000000000E+00  0.00000E+00  9.000E+00
       1    -1     0     0   512     0  0.000000000E+00  0.000000000E+00 -5.459894535E+01  5.459894535E+01  0.000000000E+00  0.00000E+00  9.000E+00
      21     1     1     2   511   514 -2.712397049E+00  7.586576182E+00  5.533160347E+00  9.773898882E+00  0.000000000E+00  0.00000E+00  9.000E+00
       1     1     1     2   513     0 -4.005498295E+00 -1.295556526E+01 -5.012936526E+01  5.193219473E+01  3.300000131E-01  0.00000E+00  9.000E+00
      21     1     1     2   514   513  6.717895344E+00  5.368989076E+00  1.132267659E+01  1.421826876E+01  0.000000000E+00  0.00000E+00  9.000E+00
</event>
<event>
      5  10001  2.40292E+09  3.01749E+01 -1.00000E+00  1.52830E-01
       2    -1     0     0   514     0  0.000000000E+00  0.000000000E+00  6.738709193E+00  6.738709193E+00  0.000000000E+00  0.00000E+00  9.000E+00
      21    -1     0     0   515   513  0.000000000E+00  0.000000000E+00 -7.296748667E+01  7.296748667E+01  0.000000000E+00  0.00000E+00  9.000E+00
      21     1     1     2   514   511  3.196187661E+00 -7.175012879E+00  4.668367458E-01  7.868567972E+00  1.519626234E-07  0.00000E+00  9.000E+00
       2     1     1     2   515     0  5.185660794E+00  1.184914237E+01 -1.777925658E+01  2.198872705E+01  3.300000131E-01  0.00000E+00  9.000E+00
      21     1     1     2   511   513 -8.381848455E+00 -4.674129489E+00 -4.891635764E+01  4.984890084E+01  0.000000000E+00  0.00000E+00  9.000E+00
</event>
<event>
      5  10001  2.40292E+09  1.36315E+01 -1.00000E+00  1.81339E-01
      21    -1     0     0   512   511  0.000000000E+00  0.000000000E+00  1.095464980E+01  1.095464980E+01  0.000000000E+00  0.00000E+00  9.000E+00
      21    -1     0     0   516   512  0.000000000E+00  0.000000000E+00 -6.493564127E+01  6.493564127E+01  0.000000000E+00  0.00000E+00  9.000E+00
      21     1     1     2   516   513 -1.459674371E+01 -1.202835938E+01 -4.051764549E+01  4.471494105E+01  6.743495762E-07  0.00000E+00  9.000E+00
      21     1     1     2   514   511  7.367770783E+00  9.780108803E+00  3.385220680E+00  1.270410538E+01  5.575503985E-07  0.00000E+00  9.000E+00
      21     1     1     2   513   514  7.228972931E+00  2.248250578E+00 -1.684856666E+01  1.847124465E+01  0.000000000E+00  0.00000E+00  9.000E+00
</event>
<event>
      5  10001  2.40292E+09  5.30739E+00 -1.00000E+00  2.33992E-01
      21    -1     0     0   515   514  0.000000000E+00  0.000000000E+00  7.382599198E+01  7.382599198E+01  0.000000000E+00  0.00000E+00  9.000E+00
      21    -1     0     0   513   511  0.000000000E+00  0.000000000E+00 -2.852764321E+01  2.852764321E+01  0.000000000E+00  0.00000E+00  9.000E+00
      21     1     1     2   515   517  1.459684197E+01 -9.551109400E+00  6.599429366E+01  6.826081073E+01  9.536743164E-07  0.00000E+00  9.000E+00
      21     1     1     2   513   514 -1.652268376E+01  4.605455835E+00 -5.525155989E+00  1.802045091E+01  5.430241572E-07  0.00000E+00  9.000E+00
      21     1     1     2   517   511  1.925841789E+00  4.945653565E+00 -1.517078890E+01  1.607237356E+01  0.000000000E+00  0.00000E+00  9.000E+00
</event>
<event>
      5  10001  2.40292E+09  1.75333E+01 -1.00000E+00  1.71184E-01
      21    -1     0     0   512   511  0.000000000E+00  0.000000000E+00  2.951473950E+02  2.951473950E+02  0.000000000E+00  0.00000E+00  9.000E+00
      21    -1     0     0   517   516  0.000000000E+00  0.000000000E+00 -5.737182353E-01  5.737182353E-01  0.000000000E+00  0.00000E+00  9.000E+00
      21     1     1     2   512   516  8.546413461E-02  1.022404866E+01  1.365542423E+02  1.369364800E+02  2.697398305E-06  0.00000E+00  9.000E+00
      21     1     1     2   517   513  4.274392683E+00 -1.058031524E+00  7.797284574E+01  7.809708404E+01  9.536743164E-07  0.00000E+00  9.000E+00
      21     1     1     2   513   511 -4.359856818E+00 -9.166017139E+00  8.004658871E+01  8.068754914E+01  0.000000000E+00  0.00000E+00  9.000E+00
</event>
<event>
      5  10001  2.40292E+09  1.20996E+01 -1.00000E+00  1.86599E-01
      21    -1     0     0   514   516  0.000000000E+00  0.000000000E+00  7.820116654E+00  7.820116654E+00  0.000000000E+00  0.00000E+00  9.000E+00
      21    -1     0     0   515   512  0.000000000E+00  0.000000000E+00 -1.487013944E+02  1.487013944E+02  0.000000000E+00  0.00000E+00  9.000E+00
      21     1     1     2   514   511 -2.764408888E+01 -1.660660816E+01 -6.191367575E+01  6.980886999E+01  9.536743164E-07  0.00000E+00  9.000E+00
      21     1     1     2   515   516  2.157029290E+01  6.141963038E+00 -3.939669175E+01  4.533321704E+01  6.743495762E-07  0.00000E+00  9.000E+00
      21     1     1     2   511   512  6.073795985E+00  1.046464512E+01 -3.957091020E+01  4.137942398E+01  0.000000000E+00  0.00000E+00  9.000E+00
</event>
<event>
      5  10001  2.40292E+09  5.43353E+00 -1.00000E+00  2.32292E-01
      -1    -1     0     0     0   513  0.000000000E+00  0.000000000E+00  1.337878166E+02  1.337878166E+02  0.000000000E+00  0.00000E+00  9.000E+00
      21    -1     0     0   514   515  0.000000000E+00  0.000000000E+00 -4.351491186E+00  4.351491186E+00  0.000000000E+00  0.00000E+00  9.000E+00
      -1     1     1     2     0   512 -2.563919996E+00  7.278334149E+00  1.033191791E+02  1.036074780E+02  3.300000131E-01  0.00000E+00  9.000E+00
      21     1     1     2   514   513  2.448601753E+00 -1.271032315E+01  2.606078525E+01  2.909832458E+01  0.000000000E+00  0.00000E+00  9.000E+00
      21     1     1     2   512   515  1.153182438E-01  5.431989002E+00  5.636114011E-02  5.433505259E+00  1.553174116E-07  0.00000E+00  9.000E+00
</event>
<event>
      5  10001  2.40292E+09  4.28455E+00 -1.00000E+00  2.56528E-01
       1    -1     0     0   512     0  0.000000000E+00  0.000000000E+00  1.997999549E-01  1.997999549E-01  0.000000000E+00  0.00000E+00  9.000E+00
      21    -1     0     0   511   515  0.000000000E+00  0.000000000E+00 -5.884112641E+02  5.884112641E+02  0.000000000E+00  0.00000E+00  9.000E+00
      21     1     1     2   512   515  4.727220160E+00 -8.345189338E+00 -2.089393225E+02  2.091593394E+02  3.814697266E-06  0.00000E+00  9.000E+00
       1     1     1     2   513     0 -3.436274032E+00  7.567741756E+00 -1.995725103E+02  1.997457745E+02  3.300000131E-01  0.00000E+00  9.000E+00
      21     1     1     2   511   513 -1.290946129E+00  7.774475826E-01 -1.796996314E+02  1.797059501E+02  2.697398305E-06  0.00000E+00  9.000E+00
</event>
<event>
      5  10001  2.40292E+09  3.32656E+01 -1.00000E+00  1.49953E-01
      21    -1     0     0   514   513  0.000000000E+00  0.000000000E+00  7.857978578E+00  7.857978578E+00  0.000000000E+00  0.00000E+00  9.000E+00
      21    -1     0     0   511   516  0.000000000E+00  0.000000000E+00 -6.229323284E+01  6.229323284E+01  0.000000000E+00  0.00000E+00  9.000E+00
      21     1     1     2   514   516  2.690074443E+00  3.531975046E+00 -2.970958603E-01  4.449675739E+00  4.217482737E-07  0.00000E+00  9.000E+00
      21     1     1     2   511   512 -2.643052452E+00  3.462222282E+00 -5.769193565E+01  5.785613319E+01  0.000000000E+00  0.00000E+00  9.000E+00
      21     1     1     2   512   513 -4.702199088E-02 -6.994197328E+00  3.553777251E+00  7.845402480E+00  2.493441184E-07  0.00000E+00  9.000E+00
</event>
<event>
      5  10001  2.40292E+09  1.09144E+01 -1.00000E+00  1.91409E-01
      21    -1     0     0   515   512  0.000000000E+00  0.000000000E+00  1.323847550E+02  1.323847550E+02  0.000000000E+00  0.00000E+00  9.000E+00
      -1    -1     0     0     0   515  0.000000000E+00  0.000000000E+00 -1.321817254E+01  1.321817254E+01  0.000000000E+00  0.00000E+00  9.000E+00
      21     1     1     2   511   512 -1.119569240E-01 -1.525582375E+01  3.674852339E+01  3.978952957E+01  4.768371582E-07  0.00000E+00  9.000E+00
      21     1     1     2   513   511 -7.841632205E+00  7.781911456E+00  9.115934603E+01  9.182633452E+01  1.348699152E-06  0.00000E+00  9.000E+00
      -1     1     1     2     0   513  7.953589129E+00  7.473912291E+00 -8.741286982E+00  1.398706342E+01  3.300000131E-01  0.00000E+00  9.000E+00
</event>
<event>
      5  10001  2.40292E+09  9.15473E+00 -1.00000E+00  2.00237E-01
       2    -1     0     0   511     0  0.000000000E+00  0.000000000E+00  5.519726485E+02  5.519726485E+02  0.000000000E+00  0.00000E+00  9.000E+00
      21    -1     0     0   513   511  0.000000000E+00  0.000000000E+00 -6.062311834E+00  6.062311834E+00  0.000000000E+00  0.00000E+00  9.000E+00
      21     1     1     2   512   514  1.417540995E+01 -7.135672812E+00  6.321470111E+00  1.708277080E+01  1.000932194E-06  0.00000E+00  9.000E+00
       2     1     1     2   514     0 -7.694033844E+00  7.762931938E+00  5.232401833E+02  5.233544302E+02  3.300000131E-01  0.00000E+00  9.000E+00
      21     1     1     2   513   512 -6.481376105E+00 -6.272591259E-01  1.634868325E+01  1.759775935E+01  0.000000000E+00  0.00000E+00  9.000E+00
</event>
<event>
      5  10001  2.40292E+09  1.03120E+01 -1.00000E+00  1.94170E-01
      21    -1     0     0   514   513  0.000000000E+00  0.000000000E+00  2.198665216E+02  2.198665216E+02  0.000000000E+00  0.00000E+00  9.000E+00
      -3    -1     0     0     0   512  0.000000000E+00  0.000000000E+00 -2.591240382E+02  2.591240382E+02  0.000000000E+00  0.00000E+00  9.000E+00
      -3     1     1     2     0   511  7.301381515E+00  7.431749543E+00 -2.427970718E+02  2.430210056E+02  5.000000000E-01  0.00000E+00  9.000E+00
      21     1     1     2   511   513 -7.709158697E+00 -1.773563753E+01 -1.028019667E+01  2.190128786E+01  9.386548846E-07  0.00000E+00  9.000E+00
      21     1     1     2   514   512  4.077771815E-01  1.030388799E+01  2.138197518E+02  2.140682663E+02  2.697398305E-06  0.00000E+00  9.000E+00
</event>
<event>
      5  10001  2.40292E+09  1.42727E+01 -1.00000E+00  1.79393E-01
       1    -1     0     0   512     0  0.000000000E+00  0.000000000E+00  1.048841162E+01  1.048841162E+01  0.000000000E+00  0.00000E+00  9.000E+00
      21    -1     0     0   511   512  0.000000000E+00  0.000000000E+00 -2.242778856E+01  2.242778856E+01  0.000000000E+00  0.00000E+00  9.000E+00
      21     1     1     2   513   514 -1.943199040E+00  9.738080848E+00  1.739017115E+00  1.008119148E+01  1.332800375E-07  0.00000E+00  9.000E+00
       1     1     1     2   514     0 -1.392600026E+00 -1.053130855E+01 -2.197337378E+00  1.085287917E+01  3.300000131E-01  0.00000E+00  9.000E+00
      21     1     1     2   511   513  3.335799065E+00  7.932277056E-01 -1.148105668E+01  1.198212953E+01  1.685873940E-07  0.00000E+00  9.000E+00
</event>
<event>
      5  10001  2.40292E+09  1.20502E+01 -1.00000E+00  1.86785E-01
      21    -1     0     0   515   514  0.000000000E+00  0.000000000E+00  5.386557767E+02  5.386557767E+02  0.000000000E+00  0.00000E+00  9.000E+00
      21    -1     0     0   512   513  0.000000000E+00  0.000000000E+00 -3.507410901E+00  3.507410901E+00  0.000000000E+00  0.00000E+00  9.000E+00
      21     1     1     2   515   513 -8.258930571E+00 -6.165006637E+00  2.166680006E+02  2.169129773E+02  7.629394531E-06  0.00000E+00  9.000E+00
      21     1     1     2   511   514  1.970706803E+01  2.403572497E+00  3.097114763E+02  3.103471351E+02  0.000000000E+00  0.00000E+00  9.000E+00
      21     1     1     2   512   511 -1.144813746E+01  3.761434141E+00  8.768888857E+00  1.490307518E+01  7.052516679E-07  0.00000E+00  9.000E+00
</event>
<event>
      5  10001  2.40292E+09  6.78039E+00 -1.00000E+00  2.17456E-01
      21    -1     0     0   513   511  0.000000000E+00  0.000000000E+00  3.409271300E+02  3.409271300E+02  0.000000000E+00  0.00000E+00  9.000E+00
      21    -1     0     0   512   517  0.000000000E+00  0.000000000E+00 -2.022645882E+00  2.022645882E+00  0.000000000E+00  0.00000E+00  9.000E+00
      21     1     1     2   516   517  8.907804361E+00  1.119731505E+00  1.170645332E+01  1.475275657E+01  4.129530925E-07  0.00000E+00  9.000E+00
      21     1     1     2   512   511 -1.555048922E+01 -2.479323592E+00  1.411829044E+02  1.420583587E+02  2.697398305E-06  0.00000E+00  9.000E+00
      21     1     1     2   513   516  6.642684856E+00  1.359592087E+00  1.860151264E+02  1.861386607E+02  2.697398305E-06  0.00000E+00  9.000E+00
</event>
<event>
      5  10001  2.40292E+09  1.41308E+01 -1.00000E+00  1.79812E-01
       3    -1     0     0   515     0  0.000000000E+00  0.000000000E+00  2.400898308E+02  2.400898308E+02  0.000000000E+00  0.00000E+00  9.000E+00
      21    -1     0     0   514   515  0.000000000E+00  0.000000000E+00 -8.301645403E+00  8.301645403E+00  0.000000000E+00  0.00000E+00  9.000E+00
      21     1     1     2   514   513 -1.024478898E+01 -9.728562077E-01 -4.723069814E+00  1.132296511E+01  5.127385418E-07  0.00000E+00  9.000E+00
       3     1     1     2   511     0  8.651763920E+00 -4.096123682E+00  1.011925479E+02  1.016455262E+02  5.000000000E-01  0.00000E+00  9.000E+00
      21     1     1     2   513   511  1.593025059E+00  5.068979889E+00  1.353187074E+02  1.354229849E+02  1.907348633E-06  0.00000E+00  9.000E+00
</event>
<event>
      5  10001  2.40292E+09  4.01953E+00 -1.00000E+00  2.62865E-01
      21    -1     0     0   512   514  0.000000000E+00  0.000000000E+00  7.580271222E+00  7.580271222E+00  0.000000000E+00  0.00000E+00  9.000E+00
       1    -1     0     0   513     0  0.000000000E+00  0.000000000E+00 -3.348042614E+02  3.348042614E+02  0.000000000E+00  0.00000E+00  9.000E+00
      21     1     1     2   513   511 -1.330104201E+01  1.055136612E+01 -9.013998213E+01  9.172494439E+01  2.523185073E-06  0.00000E+00  9.000E+00
       1     1     1     2   512     0  9.649975873E+00 -1.223241343E+01 -2.430044375E+02  2.435036334E+02  3.300000131E-01  0.00000E+00  9.000E+00
      21     1     1     2   511   514  3.651066139E+00  1.681047316E+00  5.920429432E+00  7.155954771E+00  6.474721725E-07  0.00000E+00  9.000E+00
</event>
<event>
      5  10001  2.40292E+09  3.43938E+00 -1.00000E+00  2.79822E-01
      21    -1     0     0   512   513  0.000000000E+00  0.000000000E+00  1.481813447E+00  1.481813447E+00  0.000000000E+00  0.00000E+00  9.000E+00
      21    -1     0     0   511   514  0.000000000E+00  0.000000000E+00 -2.047421116E+02  2.047421116E+02  0.000000000E+00  0.00000E+00  9.000E+00
      21     1     1     2   515   514 -9.070171933E+00  8.344565968E+00 -4.242000916E+01  4.417416641E+01  1.348699152E-06  0.00000E+00  9.000E+00
      21     1     1     2   511   513  1.102491826E+01 -5.514670137E+00 -1.529057523E+02  1.534018563E+02  0.000000000E+00  0.00000E+00  9.000E+00
      21     1     1     2   512   515 -1.954746322E+00 -2.829895831E+00 -7.934536665E+00  8.647902386E+00  1.460009660E-07  0.00000E+00  9.000E+00
</event>
<event>
      5  10001  2.40292E+09  7.34817E+00 -1.00000E+00  2.12547E-01
      21    -1     0     0   516   511  0.000000000E+00  0.000000000E+00  2.070407714E+02  2.070407714E+02  0.000000000E+00  0.00000E+00  9.000E+00
      21    -1     0     0   515   516  0.000000000E+00  0.000000000E+00 -1.466308589E+00  1.466308589E+00  0.000000000E+00  0.00000E+00  9.000E+00
      -2     1     1     2     0   511  1.083047584E+01 -3.522966091E+00  1.600675785E+02  1.604725804E+02  3.300000131E-01  0.00000E+00  9.000E+00
       2     1     1     2   513     0 -1.100576817E+01 -4.142462732E-01  3.787353912E+01  3.944378783E+01  3.300000131E-01  0.00000E+00  9.000E+00
      21     1     1     2   515   513  1.752923286E-01  3.937212364E+00  7.633345269E+00  8.590711763E+00  2.528810911E-07  0.00000E+00  9.000E+00
</event>
<event>
      5  10001  2.40292E+09  1.02044E+01 -1.00000E+00  1.94689E-01
       5    -1     0     0   514     0  0.000000000E+00  0.000000000E+00  2.095761005E+01  2.095761005E+01  0.000000000E+00  0.00000E+00  9.000E+00
      21    -1     0     0   513   514  0.000000000E+00  0.000000000E+00 -4.587779003E+01  4.587779003E+01  0.000000000E+00  0.00000E+00  9.000E+00
      21     1     1     2   513   512  4.051231707E+00 -1.698284257E+01 -3.685886179E+01  4.078486377E+01  6.743495762E-07  0.00000E+00  9.000E+00
       5     1     1     2   511     0  3.690881561E+00  1.231043977E+01  9.492204545E+00  1.668267014E+01  4.800000191E+00  0.00000E+00  9.000E+00
      21     1     1     2   512   511 -7.742113269E+00  4.672402804E+00  2.446477264E+00  9.367866184E+00  5.960464478E-08  0.00000E+00  9.000E+00
</event>
<event>
      5  10001  2.40292E+09  1.39547E+01 -1.00000E+00  1.80342E-01
      21    -1     0     0   515   511  0.000000000E+00  0.000000000E+00  2.065368702E+02  2.065368702E+02  0.000000000E+00  0.00000E+00  9.000E+00
      21    -1     0     0   512   516  0.000000000E+00  0.000000000E+00 -7.096828355E-01  7.096828355E-01  0.000000000E+00  0.00000E+00  9.000E+00
      21     1     1     2   515   516  5.169314657E+00 -3.334928293E+00  3.504062751E+01  3.557652508E+01  4.768371582E-07  0.00000E+00  9.000E+00
      21     1     1     2   513   511 -1.114542663E+00  5.731746023E+00  1.568572240E+02  1.569658684E+02  4.264961200E-06  0.00000E+00  9.000E+00
      21     1     1     2   512   513 -4.054771994E+00 -2.396817730E+00  1.392933587E+01  1.470415958E+01  1.685873940E-07  0.00000E+00  9.000E+00
</event>
<event>
      5  10001  2.40292E+09  1.53650E+01 -1.00000E+00  1.76359E-01
       5    -1     0     0   515     0  0.000000000E+00  0.000000000E+00  3.873903267E+01  3.873903267E+01  0.000000000E+00  0.00000E+00  9.000E+00
      21    -1     0     0   513   515  0.000000000E+00  0.000000000E+00 -3.676197790E+01  3.676197790E+01  0.000000000E+00  0.00000E+00  9.000E+00
      21     1     1     2   511   514  1.459164749E+01  2.237935128E+00 -8.796915431E+00  1.718459343E+01  2.920019320E-07  0.00000E+00  9.000E+00
       5     1     1     2   514     0 -2.828087919E+01 -1.805263410E+01  1.485480288E+01  3.700555223E+01  4.800000191E+00  0.00000E+00  9.000E+00
      21     1     1     2   513   511  1.368923169E+01  1.581469897E+01 -4.080832675E+00  2.131086491E+01  4.951133646E-07  0.00000E+00  9.000E+00
</event>
<event>
      5  10001  2.40292E+09  7.09360E+00 -1.00000E+00  2.14671E-01
       2    -1     0     0   513     0  0.000000000E+00  0.000000000E+00  4.386098419E+02  4.386098419E+02  0.000000000E+00  0.00000E+00  9.000E+00
       1    -1     0     0   512     0  0.000000000E+00  0.000000000E+00 -2.377605769E+01  2.377605769E+01  0.000000000E+00  0.00000E+00  9.000E+00
      21     1     1     2   513   515 -3.374110237E+00  6.064353749E+00  3.087231351E+00  7.595525242E+00  9.108011001E-07  0.00000E+00  9.000E+00
       2     1     1     2   512     0  4.155728764E+00 -1.311471602E+01  4.325702820E+02  4.327891214E+02  3.300000131E-01  0.00000E+00  9.000E+00
       1     1     1     2   515     0 -7.816185268E-01  7.050362272E+00 -2.082372912E+01  2.200125293E+01  3.300000131E-01  0.00000E+00  9.000E+00
</event>
<event>
      5  10001  2.40292E+09  1.11351E+01 -1.00000E+00  1.90455E-01
       5    -1     0     0   511     0  0.000000000E+00  0.000000000E+00  4.600067687E-01  4.600067687E-01  0.000000000E+00  0.00000E+00  9.000E+00
       2    -1     0     0   513     0  0.000000000E+00  0.000000000E+00 -4.759154328E+02  4.759154328E+02  0.000000000E+00  0.00000E+00  9.000E+00
       2     1     1     2   511     0  6.049093111E+00  7.052413866E+00 -3.648413556E+02  3.649597946E+02  3.300000131E-01  0.00000E+00  9.000E+00
      21     1     1     2   513   512 -3.614429401E+00  8.330647726E-01 -2.563467606E+01  2.590163535E+01  8.920806376E-07  0.00000E+00  9.000E+00
       5     1     1     2   512     0 -2.434663710E+00 -7.885478639E+00 -8.497939442E+01  8.551400960E+01  4.800000191E+00  0.00000E+00  9.000E+00
</event>
<event>
      5  10001  2.40292E+09  2.71598E+00 -1.00000E+00  3.10469E-01
      21    -1     0     0   511   513  0.000000000E+00  0.000000000E+00  2.744661588E+02  2.744661588E+02  0.000000000E+00  0.00000E+00  9.000E+00
      21    -1     0     0   516   515  0.000000000E+00  0.000000000E+00 -3.233136166E+01  3.233136166E+01  0.000000000E+00  0.00000E+00  9.000E+00
      21     1     1     2   514   515 -1.121264211E+01  3.618689207E+00  1.822912474E+01  2.170528147E+01  3.371747881E-07  0.00000E+00  9.000E+00
      21     1     1     2   516   513  1.340647966E+01 -2.017562903E+00 -2.908363773E+01  3.208835054E+01  7.539457465E-07  0.00000E+00  9.000E+00
      21     1     1     2   511   514 -2.193837545E+00 -1.601126303E+00  2.529893101E+02  2.530038884E+02  3.814697266E-06  0.00000E+00  9.000E+00
</event>
<event>
      5  10001  2.40292E+09  5.14207E+01 -1.00000E+00  1.38356E-01
      21    -1     0     0   512   513  0.000000000E+00  0.000000000E+00  2.055593199E+01  2.055593199E+01  0.000000000E+00  0.00000E+00  9.000E+00
       2    -1     0     0   511     0  0.000000000E+00  0.000000000E+00 -3.307045383E+02  3.307045383E+02  0.000000000E+00  0.00000E+00  9.000E+00
      21     1     1     2   515   513 -1.286748103E+00  3.349850437E+00  2.102289707E+00  4.158947059E+00  9.424321831E-08  0.00000E+00  9.000E+00
       2     1     1     2   512     0  5.162595704E+01 -7.341829624E-01 -2.853144587E+02  2.899486639E+02  3.300000131E-01  0.00000E+00  9.000E+00
      21     1     1     2   511   515 -5.033920894E+01 -2.615667475E+00 -2.693643734E+01  5.715285933E+01  2.078484985E-06  0.00000E+00  9.000E+00
</event>
<event>
      5  10001  2.40292E+09  3.54285E+00 -1.00000E+00  2.76421E-01
       1    -1     0     0   511     0  0.000000000E+00  0.000000000E+00  2.167033073E+02  2.167033073E+02  0.000000000E+00  0.00000E+00  9.000E+00
      21    -1     0     0   514   512  0.000000000E+00  0.000000000E+00 -8.431338848E-01  8.431338848E-01  0.000000000E+00  0.00000E+00  9.000E+00
      21     1     1     2   511   512  8.658850327E+00 -4.645289042E+00  3.485111848E+01  3.620987239E+01  6.743495762E-07  0.00000E+00  9.000E+00
       1     1     1     2   513     0 -5.611131494E+00  1.081158133E+00  1.252251474E+02  1.253558939E+02  3.300000131E-01  0.00000E+00  9.000E+00
      21     1     1     2   514   513 -3.047718833E+00  3.564130909E+00  5.578390755E+01  5.598067489E+01  6.743495762E-07  0.00000E+00  9.000E+00
</event>
<event>
      5  10001  2.40292E+09  3.08084E+01 -1.00000E+00  1.52207E-01
       1    -1     0     0   511     0  0.000000000E+00  0.000000000E+00  6.271839100E+01  6.271839100E+01  0.000000000E+00  0.00000E+00  9.000E+00
      21    -1     0     0   513   511  0.000000000E+00  0.000000000E+00 -3.076593892E+01  3.076593892E+01  0.000000000E+00  0.00000E+00  9.000E+00
      21     1     1     2   513   515  8.163896706E+00  8.044436725E+00 -2.506663923E+01  2.756263003E+01  4.768371582E-07  0.00000E+00  9.000E+00
       1     1     1     2   512     0 -1.036792306E+01  1.003303045E+01  3.062084540E+01  3.385115362E+01  3.300000131E-01  0.00000E+00  9.000E+00
      21     1     1     2   515   512  2.204026350E+00 -1.807746717E+01  2.639824591E+01  3.207054628E+01  6.743495762E-07  0.00000E+00  9.000E+00
</event>
<event>
      5  10001  2.40292E+09  3.45132E+00 -1.00000E+00  2.79420E-01
      21    -1     0     0   514   512  0.000000000E+00  0.000000000E+00  1.260510164E+02  1.260510164E+02  0.000000000E+00  0.00000E+00  9.000E+00
      21    -1     0     0   513   511  0.000000000E+00  0.000000000E+00 -1.779222606E+00  1.779222606E+00  0.000000000E+00  0.00000E+00  9.000E+00
      21     1     1     2   514   516 -3.616411809E+00 -1.005596600E+01  7.169361561E+01  7.248569105E+01  1.651812370E-06  0.00000E+00  9.000E+00
      21     1     1     2   513   512  7.001126898E+00  1.073073342E+01  4.754901317E+01  4.924503093E+01  9.536743164E-07  0.00000E+00  9.000E+00
      21     1     1     2   516   511 -3.384715090E+00 -6.747674141E-01  5.029164983E+00  6.099517008E+00  1.685873940E-07  0.00000E+00  9.000E+00
</event>
<event>
      5  10001  2.40292E+09  8.86089E+00 -1.00000E+00  2.01969E-01
      21    -1     0     0   515   513  0.000000000E+00  0.000000000E+00  3.037335706E+01  3.037335706E+01  0.000000000E+00  0.00000E+00  9.000E+00
      21    -1     0     0   517   515  0.000000000E+00  0.000000000E+00 -1.927447065E+01  1.927447065E+01  0.000000000E+00  0.00000E+00  9.000E+00
      21     1     1     2   517   511  1.382852882E+01 -3.795861700E+00 -1.259613061E+01  1.908662573E+01  2.920019320E-07  0.00000E+00  9.000E+00
      21     1     1     2   511   512 -6.410234210E+00  1.957300657E-01  2.088867846E+01  2.185100228E+01  4.768371582E-07  0.00000E+00  9.000E+00
      21     1     1     2   512   513 -7.418294610E+00  3.600131634E+00  2.806338574E+00  8.710199705E+00  8.940696716E-08  0.00000E+00  9.000E+00
</event>
<event>
      5  10001  2.40292E+09  7.06740E+00 -1.00000E+00  2.14896E-01
      21    -1     0     0   512   513  0.000000000E+00  0.000000000E+00  2.263400548E+01  2.263400548E+01  0.000000000E+00  0.00000E+00  9.000E+00
      21    -1     0     0   513   514  0.000000000E+00  0.000000000E+00 -9.394684017E+00  9.394684017E+00  0.000000000E+00  0.00000E+00  9.000E+00
      -2     1     1     2     0   514  9.326855196E+00 -3.958271557E+00 -3.234232632E+00  1.064083184E+01  3.300000131E-01  0.00000E+00  9.000E+00
       2     1     1     2   511     0 -7.288627410E+00 -1.429254202E+00  1.190520467E+01  1.403601280E+01  3.300000131E-01  0.00000E+00  9.000E+00
      21     1     1     2   512   511 -2.038227785E+00  5.387525758E+00  4.568349426E+00  7.351844855E+00  1.884864366E-07  0.00000E+00  9.000E+00
</event>
<event>
      5  10001  2.40292E+09  3.23449E+00 -1.00000E+00  2.87160E-01
      21    -1     0     0   515   511  0.000000000E+00  0.000000000E+00  2.647394456E+00  2.647394456E+00  0.000000000E+00  0.00000E+00  9.000E+00
       1    -1     0     0   512     0  0.000000000E+00  0.000000000E+00 -3.458925330E+02  3.458925330E+02  0.000000000E+00  0.00000E+00  9.000E+00
      21     1     1     2   512   513  5.386101593E+00  3.768612685E+00 -3.561366014E+00  7.476353377E+00  7.492187673E-07  0.00000E+00  9.000E+00
       1     1     1     2   515     0 -6.674748687E+00 -8.028322328E+00 -3.321449699E+02  3.323091876E+02  3.300000131E-01  0.00000E+00  9.000E+00
      21     1     1     2   513   511  1.288647094E+00  4.259709644E+00 -7.538802612E+00  8.754386467E+00  1.685873940E-07  0.00000E+00  9.000E+00
</event>
<event>
      5  10001  2.40292E+09  2.87355E+00 -1.00000E+00  3.02516E-01
      21    -1     0     0   512   511  0.000000000E+00  0.000000000E+00  5.335390133E+01  5.335390133E+01  0.000000000E+00  0.00000E+00  9.000E+00
      -1    -1     0     0     0   515  0.000000000E+00  0.000000000E+00 -2.556184683E+01  2.556184683E+01  0.000000000E+00  0.00000E+00  9.000E+00
      -1     1     1     2     0   511  1.321633347E+01 -6.431936272E+00 -1.607655208E+01  2.178544701E+01  3.300000131E-01  0.00000E+00  9.000E+00
      21     1     1     2   512   514 -1.130303340E+01  8.575802736E+00  4.912875916E+01  5.113646383E+01  6.743495762E-07  0.00000E+00  9.000E+00
      21     1     1     2   514   515 -1.913300069E+00 -2.143866464E+00 -5.260152591E+00  5.993837322E+00  5.960464478E-08  0.00000E+00  9.000E+00
</event>
<event>
      5  10001  2.40292E+09  3.16857E+00 -1.00000E+00  2.89712E-01
      21    -1     0     0   512   511  0.000000000E+00  0.000000000E+00  1.318804256E+01  1.318804256E+01  0.000000000E+00  0.00000E+00  9.000E+00
      21    -1     0     0   516   513  0.000000000E+00  0.000000000E+00 -6.984427410E+01  6.984427410E+01  0.000000000E+00  0.00000E+00  9.000E+00
      21     1     1     2   516   515 -1.176566761E+01 -7.941123474E+00 -6.364465538E+01  6.520839314E+01  6.743495762E-07  0.00000E+00  9.000E+00
      21     1     1     2   515   511  8.646394181E+00  8.497884017E+00  7.968043717E+00  1.450737350E+01  8.429369702E-08  0.00000E+00  9.000E+00
      21     1     1     2   512   513  3.119273424E+00 -5.567605433E-01 -9.796198773E-01  3.316550030E+00  4.592846336E-08  0.00000E+00  9.000E+00
</event>
<event>
      5  10001  2.40292E+09  8.64797E+00 -1.00000E+00  2.03281E-01
      21    -1     0     0   514   515  0.000000000E+00  0.000000000E+00  3.365690666E+01  3.365690666E+01  0.000000000E+00  0.00000E+00  9.000E+00
      21    -1     0     0   517   511  0.000000000E+00  0.000000000E+00 -5.210595341E+01  5.210595341E+01  0.000000000E+00  0.00000E+00  9.000E+00
      21     1     1     2   517   513 -2.089630360E+00  1.129799228E+01 -2.228161384E+01  2.506953330E+01  3.371747881E-07  0.00000E+00  9.000E+00
      21     1     1     2   513   515 -6.157252596E+00 -1.390111928E+01  2.972898387E+01  3.339109700E+01  3.371747881E-07  0.00000E+00  9.000E+00
      21     1     1     2   514   511  8.246882956E+00  2.603127004E+00 -2.589641678E+01  2.730222977E+01  0.000000000E+00  0.00000E+00  9.000E+00
</event>
<event>
      5  10001  2.40292E+09  3.29584E+01 -1.00000E+00  1.50222E-01
      21    -1     0     0   513   515  0.000000000E+00  0.000000000E+00  9.777669942E+01  9.777669942E+01  0.000000000E+00  0.00000E+00  9.000E+00
      -4    -1     0     0     0   511  0.000000000E+00  0.000000000E+00 -1.054043559E+02  1.054043559E+02  0.000000000E+00  0.00000E+00  9.000E+00
      -4     1     1     2     0   515  1.229255538E+01 -1.306616069E+01 -9.153652405E+01  9.328996038E+01  1.500000000E+00  0.00000E+00  9.000E+00
      21     1     1     2   512   511  1.337646477E+01  3.373552583E+01  5.586558778E+01  6.661816127E+01  0.000000000E+00  0.00000E+00  9.000E+00
      21     1     1     2   513   512 -2.566902015E+01 -2.066936514E+01  2.804327977E+01  4.327293370E+01  6.743495762E-07  0.00000E+00  9.000E+00
</event>
<event>
      5  10001  2.40292E+09  1.05071E+01 -1.00000E+00  1.93249E-01
      21    -1     0     0   514   512  0.000000000E+00  0.000000000E+00  4.391919850E+01  4.391919850E+01  0.000000000E+00  0.00000E+00  9.000E+00
      21    -1     0     0   515   516  0.000000000E+00  0.000000000E+00 -5.288396480E+00  5.288396480E+00  0.000000000E+00  0.00000E+00  9.000E+00
      21     1     1     2   514   516 -5.268966342E+00  9.335133981E+00  3.272381045E+00  1.120781917E+01  1.931411236E-07  0.00000E+00  9.000E+00
      21     1     1     2   515   511  6.087354545E-01 -6.807470511E+00  1.012802063E+01  1.221838842E+01  1.192092896E-07  0.00000E+00  9.000E+00
      21     1     1     2   511   512  4.660230888E+00 -2.527663470E+00  2.523040035E+01  2.578138740E+01  0.000000000E+00  0.00000E+00  9.000E+00
</event>
<event>
      5  10001  2.40292E+09  6.21801E+00 -1.00000E+00  2.23014E-01
      21    -1     0     0   513   514  0.000000000E+00  0.000000000E+00  1.333819140E+02  1.333819140E+02  0.000000000E+00  0.00000E+00  9.000E+00
      21    -1     0     0   517   512  0.000000000E+00  0.000000000E+00 -5.798710869E+01  5.798710869E+01  0.000000000E+00  0.00000E+00  9.000E+00
      21     1     1     2   513   512  1.659823868E+01  1.522277073E+01 -4.782086275E+01  5.285895563E+01  6.743495762E-07  0.00000E+00  9.000E+00
      21     1     1     2   517   515 -1.718049868E+01 -9.032079581E+00  4.883852923E+00  2.001499477E+01  3.097148194E-07  0.00000E+00  9.000E+00
      21     1     1     2   515   514  5.822600015E-01 -6.190691149E+00  1.183318152E+02  1.184950723E+02  1.907348633E-06  0.00000E+00  9.000E+00
</event>
<event>
      5  10001  2.40292E+09  6.73754E+00 -1.00000E+00  2.17853E-01
       2    -1     0     0   511     0  0.000000000E+00  0.000000000E+00  1.570465737E+00  1.570465737E+00  0.000000000E+00  0.00000E+00  9.000E+00
       1    -1     0     0   513     0  0.000000000E+00  0.000000000E+00 -1.576671726E+02  1.576671726E+02  0.000000000E+00  0.00000E+00  9.000E+00
       1     1     1     2   511     0  4.685475678E-02 -1.004200579E+01 -1.381746108E+02  1.385394386E+02  3.300000131E-01  0.00000E+00  9.000E+00
      21     1     1     2   513   512 -3.819986454E-01  1.658706082E+00 -5.054789915E+00  5.333678835E+00  8.429369702E-08  0.00000E+00  9.000E+00
       2     1     1     2   512     0  3.351438886E-01  8.383299706E+00 -1.286730617E+01  1.536452093E+01  3.300000131E-01  0.00000E+00  9.000E+00
</event>
<event>
      5  10001  2.40292E+09  1.64437E+01 -1.00000E+00  1.73659E-01
      21    -1     0     0   514   512  0.000000000E+00  0.000000000E+00  2.319347901E+00  2.319347901E+00  0.000000000E+00  0.00000E+00  9.000E+00
      21    -1     0     0   515   514  0.000000000E+00  0.000000000E+00 -2.425087660E+02  2.425087660E+02  0.000000000E+00  0.00000E+00  9.000E+00
      21     1     1     2   513   512  5.114642584E+00 -8.777625934E+00 -1.087534758E+01  1.488218636E+01  4.915124924E-07  0.00000E+00  9.000E+00
      21     1     1     2   515   511 -8.362933074E+00  2.013609323E+00 -8.426764136E+01  8.470554087E+01  1.651812370E-06  0.00000E+00  9.000E+00
      21     1     1     2   511   513  3.248290490E+00  6.764016611E+00 -1.450464292E+02  1.452403867E+02  1.907348633E-06  0.00000E+00  9.000E+00
</event>
<event>
      5  10001  2.40292E+09  1.16820E+01 -1.00000E+00  1.88209E-01
      21    -1     0     0   513   516  0.000000000E+00  0.000000000E+00  1.980475446E+01  1.980475446E+01  0.000000000E+00  0.00000E+00  9.000E+00
      -2    -1     0     0     0   513  0.000000000E+00  0.000000000E+00 -3.689647974E+01  3.689647974E+01  0.000000000E+00  0.00000E+00  9.000E+00
      -2     1     1     2     0   512 -3.628886317E+00  3.189552757E+00 -3.289119813E+01  3.324577984E+01  3.300000131E-01  0.00000E+00  9.000E+00
      21     1     1     2   511   516  5.368505228E+00 -8.756353255E+00  1.397699558E+01  1.734505625E+01  2.384185791E-07  0.00000E+00  9.000E+00
      21     1     1     2   512   511 -1.739618911E+00  5.566800498E+00  1.822477261E+00  6.110398114E+00  1.618680431E-07  0.00000E+00  9.000E+00
</event>
<event>
      5  10001  2.40292E+09  8.36124E+00 -1.00000E+00  2.05130E-01
      21    -1     0     0   514   511  0.000000000E+00  0.000000000E+00  3.448207052E+01  3.448207052E+01  0.000000000E+00  0.00000E+00  9.000E+00
      -1    -1     0     0     0   513  0.000000000E+00  0.000000000E+00 -2.202389979E+01  2.202389979E+01  0.000000000E+00  0.00000E+00  9.000E+00
      -4     1     1     2     0   513 -8.193847174E-01 -9.911302244E+00  2.319710862E+01  2.528361429E+01  1.500000000E+00  0.00000E+00  9.000E+00
      -1     1     1     2     0   511 -7.350870105E+00  1.155380297E+01 -1.614742324E+01  2.117483959E+01  3.300000131E-01  0.00000E+00  9.000E+00
       4     1     1     2   514     0  8.170254823E+00 -1.642500727E+00  5.408485358E+00  1.004751643E+01  1.500000000E+00  0.00000E+00  9.000E+00
</event>
<event>
      5  10001  2.40292E+09  2.83278E+00 -1.00000E+00  3.04490E-01
       4    -1     0     0   512     0  0.000000000E+00  0.000000000E+00  8.071628585E+00  8.071628585E+00  0.000000000E+00  0.00000E+00  9.000E+00
       2    -1     0     0   513     0  0.000000000E+00  0.000000000E+00 -1.259893101E+02  1.259893101E+02  0.000000000E+00  0.00000E+00  9.000E+00
       2     1     1     2   512     0 -1.242718850E+01 -6.006220418E+00 -2.675881152E+00  1.406338997E+01  3.300000131E-01  0.00000E+00  9.000E+00
       4     1     1     2   511     0  1.232064056E+01  3.179199215E+00 -1.504686840E+01  1.976268555E+01  1.500000000E+00  0.00000E+00  9.000E+00
      21     1     1     2   513   511  1.065479315E-01  2.827021203E+00 -1.001949319E+02  1.002348631E+02  0.000000000E+00  0.00000E+00  9.000E+00
</event>
<event>
      5  10001  2.40292E+09  1.49817E+01 -1.00000E+00  1.77386E-01
      21    -1     0     0   514   515  0.000000000E+00  0.000000000E+00  4.905071803E+01  4.905071803E+01  0.000000000E+00  0.00000E+00  9.000E+00
      21    -1     0     0   512   514  0.000000000E+00  0.000000000E+00 -4.049352885E+01  4.049352885E+01  0.000000000E+00  0.00000E+00  9.000E+00
      21     1     1     2   511   515 -6.275291030E+00  7.783644143E+00  1.287520146E+01  1.630138664E+01  2.384185791E-07  0.00000E+00  9.000E+00
      21     1     1     2   513   511  6.098780692E+00 -2.276433971E+01  2.861005007E+01  3.706676751E+01  0.000000000E+00  0.00000E+00  9.000E+00
      21     1     1     2   512   513  1.765103383E-01  1.498069557E+01 -3.292806235E+01  3.617609274E+01  6.743495762E-07  0.00000E+00  9.000E+00
</event>
<event>
      5  10001  2.40292E+09  1.76887E+01 -1.00000E+00  1.70849E-01
       1    -1     0     0   512     0  0.000000000E+00  0.000000000E+00  2.612450370E+00  2.612450370E+00  0.000000000E+00  0.00000E+00  9.000E+00
      21    -1     0     0   516   513  0.000000000E+00  0.000000000E+00 -1.033232244E+03  1.033232244E+03  0.000000000E+00  0.00000E+00  9.000E+00
      21     1     1     2   512   513 -6.109450855E+00  5.951290693E+00 -8.660354192E+02  8.660774161E+02  0.000000000E+00  0.00000E+00  9.000E+00
       1     1     1     2   511     0  8.943628146E+00  3.754313789E-01 -5.456881155E+00  1.048884575E+01  3.300000131E-01  0.00000E+00  9.000E+00
      21     1     1     2   516   511 -2.834177291E+00 -6.326722072E+00 -1.591274929E+02  1.592784322E+02  1.907348633E-06  0.00000E+00  9.000E+00
</event>
<event>
      5  10001  2.40292E+09  3.90875E+00 -1.00000E+00  2.65744E-01
      21    -1     0     0   514   511  0.000000000E+00  0.000000000E+00  3.835746098E+01  3.835746098E+01  0.000000000E+00  0.00000E+00  9.000E+00
      21    -1     0     0   516   512  0.000000000E+00  0.000000000E+00 -2.168654428E+01  2.168654428E+01  0.000000000E+00  0.00000E+00  9.000E+00
      21     1     1     2   514   515  5.970019674E+00 -9.658618498E+00  3.042721189E+01  3.247684205E+01  5.840038640E-07  0.00000E+00  9.000E+00
      21     1     1     2   516   511 -7.341986064E+00  5.998557927E+00  3.322937162E+00  1.004636093E+01  2.827296549E-07  0.00000E+00  9.000E+00
      21     1     1     2   515   512  1.371966390E+00  3.660060571E+00 -1.707923235E+01  1.752080228E+01  0.000000000E+00  0.00000E+00  9.000E+00
</event>
<event>
      5  10001  2.40292E+09  1.25513E+01 -1.00000E+00  1.84948E-01
      21    -1     0     0   513   512  0.000000000E+00  0.000000000E+00  1.058769079E+01  1.058769079E+01  0.000000000E+00  0.00000E+00  9.000E+00
      21    -1     0     0   515   517  0.000000000E+00  0.000000000E+00 -1.004198770E+02  1.004198770E+02  0.000000000E+00  0.00000E+00  9.000E+00
      21     1     1     2   513   517  2.243217384E+01 -1.535645016E+01 -7.042110982E+01  7.548612915E+01  0.000000000E+00  0.00000E+00  9.000E+00
      21     1     1     2   511   512 -1.107196217E+01  1.142316684E+01 -1.695791290E+01  2.325183641E+01  4.129530925E-07  0.00000E+00  9.000E+00
      21     1     1     2   515   511 -1.136021167E+01  3.933283327E+00 -2.453163453E+00  1.226960219E+01  5.960464478E-08  0.00000E+00  9.000E+00
</event>
<event>
      5  10001  2.40292E+09  2.85925E+01 -1.00000E+00  1.54468E-01
      21    -1     0     0   511   512  0.000000000E+00  0.000000000E+00  4.548178902E+00  4.548178902E+00  0.000000000E+00  0.00000E+00  9.000E+00
       1    -1     0     0   512     0  0.000000000E+00  0.000000000E+00 -2.882511165E+02  2.882511165E+02  0.000000000E+00  0.00000E+00  9.000E+00
      21     1     1     2   511   514  5.729192706E+00  3.232942631E+01 -1.051650921E+02  1.101712851E+02  1.907348633E-06  0.00000E+00  9.000E+00
      21     1     1     2   514   513  1.053138398E+00 -1.076562937E+01 -2.254790193E+01  2.500831378E+01  2.384185791E-07  0.00000E+00  9.000E+00
       1     1     1     2   513     0 -6.782331104E+00 -2.156379694E+01 -1.559899435E+02  1.576196965E+02  3.300000131E-01  0.00000E+00  9.000E+00
</event>
<event>
      5  10001  2.40292E+09  7.50460E+00 -1.00000E+00  2.11299E-01
      21    -1     0     0   515   514  0.000000000E+00  0.000000000E+00  4.159713480E+01  4.159713480E+01  0.000000000E+00  0.00000E+00  9.000E+00
      21    -1     0     0   512   516  0.000000000E+00  0.000000000E+00 -1.211046746E+01  1.211046746E+01  0.000000000E+00  0.00000E+00  9.000E+00
      21     1     1     2   515   516 -8.830256340E+00  4.763552917E+00 -7.826061530E+00  1.272446865E+01  3.674277069E-07  0.00000E+00  9.000E+00
      21     1     1     2   511   514  3.179141966E+00 -4.273618096E+00  3.399924042E+01  3.441393765E+01  4.768371582E-07  0.00000E+00  9.000E+00
      21     1     1     2   512   511  5.651114374E+00 -4.899348206E-01  3.313488455E+00  6.569195958E+00  1.576990671E-07  0.00000E+00  9.000E+00
</event>
<event>
      5  10001  2.40292E+09  6.82216E+00 -1.00000E+00  2.17073E-01
      21    -1     0     0   511   513  0.000000000E+00  0.000000000E+00  6.770246826E+00  6.770246826E+00  0.000000000E+00  0.00000E+00  9.000E+00
       5    -1     0     0   513     0  0.000000000E+00  0.000000000E+00 -8.566752286E+01  8.566752286E+01  0.000000000E+00  0.00000E+00  9.000E+00
      21     1     1     2   511   512 -1.041547017E+01  9.343424703E+00 -2.193542017E+00  1.416309396E+01  5.144678504E-07  0.00000E+00  9.000E+00
      21     1     1     2   512   514  4.295105272E+00 -1.935308699E+00 -1.866589030E+01  1.925120281E+01  0.000000000E+00  0.00000E+00  9.000E+00
       5     1     1     2   514     0  6.120364896E+00 -7.408116004E+00 -5.803784371E+01  5.902347291E+01  4.800000191E+00  0.00000E+00  9.000E+00
</event>
<event>
      5  10001  2.40292E+09  2.90705E+00 -1.00000E+00  3.00935E-01
       1    -1     0     0   512     0  0.000000000E+00  0.000000000E+00  3.150819300E+01  3.150819300E+01  0.000000000E+00  0.00000E+00  9.000E+00
      21    -1     0     0   511   515  0.000000000E+00  0.000000000E+00 -3.963221313E+01  3.963221313E+01  0.000000000E+00  0.00000E+00  9.000E+00
      21     1     1     2   512   515 -8.385778127E+00 -4.741072444E+00 -2.899652542E+01  3.055482825E+01  3.371747881E-07  0.00000E+00  9.000E+00
       1     1     1     2   514     0  1.084876305E+01  3.196972264E+00  2.943939403E+01  3.153891426E+01  3.300000131E-01  0.00000E+00  9.000E+00
      21     1     1     2   511   514 -2.462984927E+00  1.544100180E+00 -8.566888735E+00  9.046663623E+00  1.685873940E-07  0.00000E+00  9.000E+00
</event>
<event>
      5  10001  2.40292E+09  1.83414E+01 -1.00000E+00  1.69489E-01
      21    -1     0     0   513   514  0.000000000E+00  0.000000000E+00  2.027216755E+01  2.027216755E+01  0.000000000E+00  0.00000E+00  9.000E+00
      21    -1     0     0   511   516  0.000000000E+00  0.000000000E+00 -7.210934243E+01  7.210934243E+01  0.000000000E+00  0.00000E+00  9.000E+00
      21     1     1     2   513   516 -1.192183971E+01  2.553356805E+00 -5.981942458E+01  6.104927068E+01  0.000000000E+00  0.00000E+00  9.000E+00
      21     1     1     2   511   512  1.693152351E+01  7.333207663E+00  8.327463401E+00  2.024349450E+01  4.616955931E-07  0.00000E+00  9.000E+00
      21     1     1     2   512   514 -5.009683799E+00 -9.886564469E+00 -3.452136984E-01  1.108874480E+01  2.609033331E-07  0.00000E+00  9.000E+00
</event>
<event>
      5  10001  2.40292E+09  7.71865E+00 -1.00000E+00  2.09657E-01
      21    -1     0     0   513   511  0.000000000E+00  0.000000000E+00  4.123274059E+01  4.123274059E+01  0.000000000E+00  0.00000E+00  9.000E+00
      21    -1     0     0   517   514  0.000000000E+00  0.000000000E+00 -1.407779354E+02  1.407779354E+02  0.000000000E+00  0.00000E+00  9.000E+00
      21     1     1     2   515   514 -5.700166746E+00 -1.198161890E+01 -3.008853825E+01  3.288420938E+01  5.840038640E-07  0.00000E+00  9.000E+00
      21     1     1     2   517   511  9.228709734E+00  1.884652757E+01 -1.078970677E+02  1.099187786E+02  1.907348633E-06  0.00000E+00  9.000E+00
      21     1     1     2   513   515 -3.528542988E+00 -6.864908664E+00  3.844041113E+01  3.920768795E+01  9.536743164E-07  0.00000E+00  9.000E+00
</event>
<event>
      5  10001  2.40292E+09  7.23169E+00 -1.00000E+00  2.13504E-01
      21    -1     0     0   512   514  0.000000000E+00  0.000000000E+00  5.487795137E+00  5.487795137E+00  0.000000000E+00  0.00000E+00  9.000E+00
      21    -1     0     0   516   512  0.000000000E+00  0.000000000E+00 -2.204002329E+01  2.204002329E+01  0.000000000E+00  0.00000E+00  9.000E+00
      21     1     1     2   516   515 -9.565957250E+00 -4.112702780E+00 -1.198572075E+01  1.587700740E+01  1.685873940E-07  0.00000E+00  9.000E+00
      21     1     1     2   511   514  7.410778090E-01  9.576676178E-01 -1.166033276E+00  1.681058353E+00  0.000000000E+00  0.00000E+00  9.000E+00
      21     1     1     2   515   511  8.824879440E+00  3.155035163E+00 -3.400474129E+00  9.969752671E+00  2.190014490E-07  0.00000E+00  9.000E+00
</event>
<event>
      5  10001  2.40292E+09  4.50047E+00 -1.00000E+00  2.51864E-01
      -1    -1     0     0     0   513  0.000000000E+00  0.000000000E+00  2.774240062E+00  2.774240062E+00  0.000000000E+00  0.00000E+00  9.000E+00
      21    -1     0     0   513   512  0.000000000E+00  0.000000000E+00 -1.508993825E+02  1.508993825E+02  0.000000000E+00  0.00000E+00  9.000E+00
      -1     1     1     2     0   514 -4.743000595E+00 -8.952305207E+00 -7.406685907E+00  1.255419130E+01  3.300000131E-01  0.00000E+00  9.000E+00
      21     1     1     2   516   512  3.062050034E+00  2.944002629E+00 -4.599437963E+01  4.619010998E+01  6.743495762E-07  0.00000E+00  9.000E+00
      21     1     1     2   514   516  1.680950561E+00  6.008302579E+00 -9.472407688E+01  9.492932126E+01  1.348699152E-06  0.00000E+00  9.000E+00
</event>
<event>
      5  10001  2.40292E+09  1.01338E+01 -1.00000E+00  1.95034E-01
      21    -1     0     0   511   514  0.000000000E+00  0.000000000E+00  2.080343861E+02  2.080343861E+02  0.000000000E+00  0.00000E+00  9.000E+00
      21    -1     0     0   512   515  0.000000000E+00  0.000000000E+00 -8.530545306E+00  8.530545306E+00  0.000000000E+00  0.00000E+00  9.000E+00
      21     1     1     2   511   515  1.271601870E+01 -8.759461793E+00  1.948035439E+02  1.954145491E+02  2.697398305E-06  0.00000E+00  9.000E+00
      21     1     1     2   513   514 -2.635239298E+00  9.795115286E+00  4.275441201E+00  1.100764130E+01  4.460403188E-07  0.00000E+00  9.000E+00
      21     1     1     2   512   513 -1.008077941E+01 -1.035653494E+00  4.248556877E-01  1.014274095E+01  2.856595742E-07  0.00000E+00  9.000E+00
</event>
<event>
      5  10001  2.40292E+09  7.81682E+00 -1.00000E+00  2.08928E-01
      21    -1     0     0   516   513  0.000000000E+00  0.000000000E+00  1.084593443E+02  1.084593443E+02  0.000000000E+00  0.00000E+00  9.000E+00
      21    -1     0     0   512   517  0.000000000E+00  0.000000000E+00 -4.147001506E+00  4.147001506E+00  0.000000000E+00  0.00000E+00  9.000E+00
      21     1     1     2   516   517 -1.632079491E+01 -6.774557969E-01  8.655592160E+01  8.808379452E+01  1.348699152E-06  0.00000E+00  9.000E+00
      21     1     1     2   511   513  4.314533991E+00  1.714110007E+00  6.811876698E+00  8.243484750E+00  8.429369702E-08  0.00000E+00  9.000E+00
      21     1     1     2   512   511  1.200626092E+01 -1.036654210E+00  1.094454450E+01  1.627906654E+01  3.371747881E-07  0.00000E+00  9.000E+00
</event>
<event>
      5  10001  2.40292E+09  4.59402E+00 -1.00000E+00  2.49965E-01
      -2    -1     0     0     0   514  0.000000000E+00  0.000000000E+00  3.269645856E+01  3.269645856E+01  0.000000000E+00  0.00000E+00  9.000E+00
      21    -1     0     0   513   511  0.000000000E+00  0.000000000E+00 -3.931326778E+00  3.931326778E+00  0.000000000E+00  0.00000E+00  9.000E+00
      -2     1     1     2     0   511  5.887930511E+00  7.910224796E+00  2.212836887E+01  2.422835097E+01  3.300000131E-01  0.00000E+00  9.000E+00
      21     1     1     2   513   515 -3.541689713E+00 -1.989773234E+00  3.138071528E+00  5.133250088E+00  1.032382731E-07  0.00000E+00  9.000E+00
      21     1     1     2   515   514 -2.346240797E+00 -5.920451562E+00  3.498691388E+00  7.266184281E+00  1.931411236E-07  0.00000E+00  9.000E+00
</event>
<event>
      5  10001  2.40292E+09  5.17243E+00 -1.00000E+00  2.35886E-01
      21    -1     0     0   511   514  0.000000000E+00  0.000000000E+00  1.589744367E+02  1.589744367E+02  0.000000000E+00  0.00000E+00  9.000E+00
      -3    -1     0     0     0   512  0.000000000E+00  0.000000000E+00 -8.483207528E+00  8.483207528E+00  0.000000000E+00  0.00000E+00  9.000E+00
      -3     1     1     2     0   515  5.071081531E+00  6.247919780E+00 -4.719204219E+00  9.342015732E+00  5.000000000E-01  0.00000E+00  9.000E+00
      21     1     1     2   515   514 -9.956079687E+00 -7.947298828E+00  2.757430824E+01  3.037475196E+01  0.000000000E+00  0.00000E+00  9.000E+00
      21     1     1     2   511   512  4.884998156E+00  1.699379049E+00  1.276361251E+02  1.277408765E+02  0.000000000E+00  0.00000E+00  9.000E+00
</event>
<event>
      5  10001  2.40292E+09  9.68039E+00 -1.00000E+00  1.97343E-01
       2    -1     0     0   513     0  0.000000000E+00  0.000000000E+00  2.172230422E+02  2.172230422E+02  0.000000000E+00  0.00000E+00  9.000E+00
       2    -1     0     0   511     0  0.000000000E+00  0.000000000E+00 -8.667118612E+01  8.667118612E+01  0.000000000E+00  0.00000E+00  9.000E+00
      21     1     1     2   513   512  8.649326520E+00 -5.444893591E+00  1.082344254E+00  1.027760597E+01  1.625524776E-07  0.00000E+00  9.000E+00
       2     1     1     2   511     0 -1.817887808E+01  7.146949774E+00  2.108040551E+02  2.117073666E+02  3.300000131E-01  0.00000E+00  9.000E+00
       2     1     1     2   512     0  9.529551560E+00 -1.702056183E+00 -8.133454330E+01  8.190925578E+01  3.300000131E-01  0.00000E+00  9.000E+00
</event>
<event>
      5  10001  2.40292E+09  1.09388E+01 -1.00000E+00  1.91302E-01
       2    -1     0     0   511     0  0.000000000E+00  0.000000000E+00  1.395957571E+03  1.395957571E+03  0.000000000E+00  0.00000E+00  9.000E+00
      21    -1     0     0   514   515  0.000000000E+00  0.000000000E+00 -4.522468562E-01  4.522468562E-01  0.000000000E+00  0.00000E+00  9.000E+00
      21     1     1     2   511   515 -3.953269042E+00 -1.164093374E+01  9.491485322E+01  9.570772715E+01  1.907348633E-06  0.00000E+00  9.000E+00
       2     1     1     2   513     0  6.545229830E+00  2.664589875E+00  7.394730492E+02  7.395068894E+02  3.300000131E-01  0.00000E+00  9.000E+00
      21     1     1     2   514   513 -2.591960788E+00  8.976343868E+00  5.611174221E+02  5.611952017E+02  0.000000000E+00  0.00000E+00  9.000E+00
</event>
<event>
      5  10001  2.40292E+09  7.09006E+00 -1.00000E+00  2.14701E-01
      21    -1     0     0   512   513  0.000000000E+00  0.000000000E+00  3.130332501E+01  3.130332501E+01  0.000000000E+00  0.00000E+00  9.000E+00
      21    -1     0     0   514   516  0.000000000E+00  0.000000000E+00 -8.579265590E+01  8.579265590E+01  0.000000000E+00  0.00000E+00  9.000E+00
      21     1     1     2   512   516 -3.775842322E+00 -9.302459965E+00  2.878955126E+01  3.048985091E+01  4.768371582E-07  0.00000E+00  9.000E+00
      21     1     1     2   511   513  4.932377899E-01  5.167294333E+00 -8.044818864E+01  8.061547786E+01  0.000000000E+00  0.00000E+00  9.000E+00
      21     1     1     2   514   511  3.282604532E+00  4.135165631E+00 -2.830693510E+00  5.990652140E+00  8.429369702E-08  0.00000E+00  9.000E+00
</event>
<event>
      5  10001  2.40292E+09  1.45710E+01 -1.00000E+00  1.78531E-01
      21    -1     0     0   514   511  0.000000000E+00  0.000000000E+00  8.502747694E+00  8.502747694E+00  0.000000000E+00  0.00000E+00  9.000E+00
      -3    -1     0     0     0   512  0.000000000E+00  0.000000000E+00 -8.151065082E+01  8.151065082E+01  0.000000000E+00  0.00000E+00  9.000E+00
      -3     1     1     2     0   511  1.756038976E+01 -1.526419782E+01 -4.693702229E+01  5.238985670E+01  5.000000000E-01  0.00000E+00  9.000E+00
      21     1     1     2   514   515 -5.872869237E+00  6.565111521E+00 -1.325747390E+00  8.907799308E+00  2.123088665E-07  0.00000E+00  9.000E+00
      21     1     1     2   515   512 -1.168752052E+01  8.699086299E+00 -2.474513345E+01  2.871574251E+01  4.768371582E-07  0.00000E+00  9.000E+00
</event>
<event>
      5  10001  2.40292E+09  7.10590E+00 -1.00000E+00  2.14565E-01
      21    -1     0     0   513   515  0.000000000E+00  0.000000000E+00  1.634049169E+02  1.634049169E+02  0.000000000E+00  0.00000E+00  9.000E+00
      21    -1     0     0   516   513  0.000000000E+00  0.000000000E+00 -1.049529423E+01  1.049529423E+01  0.000000000E+00  0.00000E+00  9.000E+00
      21     1     1     2   512   515 -3.353376577E+00 -1.077024557E+01  1.591902009E+02  1.595893586E+02  1.907348633E-06  0.00000E+00  9.000E+00
      21     1     1     2   516   511  2.318060793E+00  7.419406627E+00 -8.134955813E-01  7.815547044E+00  2.446242446E-07  0.00000E+00  9.000E+00
      21     1     1     2   511   512  1.035315784E+00  3.350838944E+00 -5.467082648E+00  6.495305465E+00  2.598106231E-07  0.00000E+00  9.000E+00
</event>
<event>
      5  10001  2.40292E+09  1.34840E+01 -1.00000E+00  1.81807E-01
      -1    -1     0     0     0   512  0.000000000E+00  0.000000000E+00  5.510732743E+01  5.510732743E+01  0.000000000E+00  0.00000E+00  9.000E+00
      21    -1     0     0   512   513  0.000000000E+00  0.000000000E+00 -1.061591126E+01  1.061591126E+01  0.000000000E+00  0.00000E+00  9.000E+00
      21     1     1     2   514   511 -5.945764143E+00 -9.283655385E+00  1.432444461E+01  1.807562120E+01  1.685873940E-07  0.00000E+00  9.000E+00
      21     1     1     2   511   513  1.454365482E+01  1.003006635E+01  1.525865259E+00  1.773269273E+01  8.161702119E-08  0.00000E+00  9.000E+00
      -1     1     1     2     0   514 -8.597890677E+00 -7.464109665E-01  2.864110630E+01  2.991492476E+01  3.300000131E-01  0.00000E+00  9.000E+00
</event>
<event>
      5  10001  2.40292E+09  1.75688E+01 -1.00000E+00  1.71107E-01
      21    -1     0     0   515   511  0.000000000E+00  0.000000000E+00  3.871047295E+01  3.871047295E+01  0.000000000E+00  0.00000E+00  9.000E+00
      21    -1     0     0   512   514  0.000000000E+00  0.000000000E+00 -4.014334367E+00  4.014334367E+00  0.000000000E+00  0.00000E+00  9.000E+00
      21     1     1     2   515   514 -3.350720580E+00 -2.615211715E+00  4.225155274E+00  5.993212645E+00  1.884864366E-07  0.00000E+00  9.000E+00
      21     1     1     2   513   511  9.417039942E+00 -5.780525094E-01  2.782874050E+01  2.938458071E+01  3.371747881E-07  0.00000E+00  9.000E+00
      21     1     1     2   512   513 -6.066319362E+00  3.193264225E+00  2.642242809E+00  7.347013956E+00  6.664001875E-08  0.00000E+00  9.000E+00
</event>
<event>
      5  10001  2.40292E+09  5.74230E+00 -1.00000E+00  2.28393E-01
      21    -1     0     0   516   513  0.000000000E+00  0.000000000E+00  6.593770202E+01  6.593770202E+01  0.000000000E+00  0.00000E+00  9.000E+00
      21    -1     0     0   512   517  0.000000000E+00  0.000000000E+00 -3.871616258E+00  3.871616258E+00  0.000000000E+00  0.00000E+00  9.000E+00
      21     1     1     2   516   517 -1.089042183E+01 -2.836820196E+00  6.996415069E+00  1.325136447E+01  2.920019320E-07  0.00000E+00  9.000E+00
      21     1     1     2   511   513  4.667060684E+00  4.309428900E+00  3.162583365E+01  3.225749506E+01  4.768371582E-07  0.00000E+00  9.000E+00
      21     1     1     2   512   511  6.223361150E+00 -1.472608704E+00  2.344383704E+01  2.430045875E+01  5.840038640E-07  0.00000E+00  9.000E+00
</event>
<event>
      5  10001  2.40292E+09  6.86420E+00 -1.00000E+00  2.16691E-01
      21    -1     0     0   512   511  0.000000000E+00  0.000000000E+00  3.350227892E+01  3.350227892E+01  0.000000000E+00  0.00000E+00  9.000E+00
       1    -1     0     0   514     0  0.000000000E+00  0.000000000E+00 -8.204171819E+01  8.204171819E+01  0.000000000E+00  0.00000E+00  9.000E+00
      21     1     1     2   513   511  1.035283626E+01 -3.451569685E-01  3.092814072E+01  3.261671719E+01  0.000000000E+00  0.00000E+00  9.000E+00
       1     1     1     2   512     0 -1.248220471E+01  6.870644163E+00 -6.866430797E+01  7.012779246E+01  3.300000131E-01  0.00000E+00  9.000E+00
      21     1     1     2   514   513  2.129368451E+00 -6.525487194E+00 -1.080327202E+01  1.279948747E+01  2.384185791E-07  0.00000E+00  9.000E+00
</event>
<event>
      5  10001  2.40292E+09  2.10247E+00 -1.00000E+00  3.53038E-01
       1    -1     0     0   513     0  0.000000000E+00  0.000000000E+00  1.543725066E+01  1.543725066E+01  0.000000000E+00  0.00000E+00  9.000E+00
       3    -1     0     0   511     0  0.000000000E+00  0.000000000E+00 -2.151599068E+01  2.151599068E+01  0.000000000E+00  0.00000E+00  9.000E+00
       1     1     1     2   514     0  1.377548774E+01 -1.711861372E+00  8.087579943E+00  1.606898818E+01  3.300000131E-01  0.00000E+00  9.000E+00
       3     1     1     2   513     0 -1.199711615E+01  2.832066137E+00 -8.894754292E+00  1.520914358E+01  5.000000000E-01  0.00000E+00  9.000E+00
      21     1     1     2   511   514 -1.778371589E+00 -1.120204765E+00 -5.271565664E+00  5.675109583E+00  8.429369702E-08  0.00000E+00  9.000E+00
</event>
<event>
      5  10001  2.40292E+09  3.24516E+00 -1.00000E+00  2.86756E-01
      21    -1     0     0   511   514  0.000000000E+00  0.000000000E+00  9.803094941E+00  9.803094941E+00  0.000000000E+00  0.00000E+00  9.000E+00
      -4    -1     0     0     0   512  0.000000000E+00  0.000000000E+00 -7.782486506E+01  7.782486506E+01  0.000000000E+00  0.00000E+00  9.000E+00
      -4     1     1     2     0   513  1.502062003E+01 -6.464053475E+00 -6.167145987E+01  6.382023171E+01  1.500000000E+00  0.00000E+00  9.000E+00
      21     1     1     2   511   512 -1.740299728E+01  8.376920814E+00 -3.498822476E+00  1.962852198E+01  1.788139343E-07  0.00000E+00  9.000E+00
      21     1     1     2   513   514  2.382377245E+00 -1.912867340E+00 -2.851487768E+00  4.179206299E+00  0.000000000E+00  0.00000E+00  9.000E+00
</event>
<event>
      5  10001  2.40292E+09  9.89493E+00 -1.00000E+00  1.96230E-01
      -1    -1     0     0     0   512  0.000000000E+00  0.000000000E+00  8.999191360E+01  8.999191360E+01  0.000000000E+00  0.00000E+00  9.000E+00
      21    -1     0     0   514   515  0.000000000E+00  0.000000000E+00 -1.481098604E+03  1.481098604E+03  0.000000000E+00  0.00000E+00  9.000E+00
      21     1     1     2   516   512 -8.488299898E+00 -1.442637161E+01 -1.443342173E+01  2.210192516E+01  1.039242493E-06  0.00000E+00  9.000E+00
      21     1     1     2   514   516  9.598916420E+00  2.425877754E+01 -1.462429787E+03  1.462662473E+03  4.315837288E-05  0.00000E+00  9.000E+00
      -1     1     1     2     0   515 -1.110616522E+00 -9.832405927E+00  8.575651809E+01  8.632611986E+01  3.300000131E-01  0.00000E+00  9.000E+00
</event>
<event>
      5  10001  2.40292E+09  5.94458E+00 -1.00000E+00  2.26021E-01
      21    -1     0     0   511   514  0.000000000E+00  0.000000000E+00  4.170841629E+01  4.170841629E+01  0.000000000E+00  0.00000E+00  9.000E+00
      21    -1     0     0   512   513  0.000000000E+00  0.000000000E+00 -9.277042241E+00  9.277042241E+00  0.000000000E+00  0.00000E+00  9.000E+00
      21     1     1     2   511   513  1.574756018E+01 -6.210283261E+00  5.325548692E+00  1.774583722E+01  4.380028980E-07  0.00000E+00  9.000E+00
      21     1     1     2   512   516 -9.811753346E+00  7.826659214E+00  2.160980976E+01  2.499021760E+01  4.129530925E-07  0.00000E+00  9.000E+00
      21     1     1     2   516   514 -5.935806834E+00 -1.616375953E+00  5.496015600E+00  8.249403704E+00  1.685873940E-07  0.00000E+00  9.000E+00
</event>
<event>
      5  10001  2.40292E+09  6.09208E+00 -1.00000E+00  2.24372E-01
      21    -1     0     0   515   511  0.000000000E+00  0.000000000E+00  2.363702097E+00  2.363702097E+00  0.000000000E+00  0.00000E+00  9.000E+00
       2    -1     0     0   514     0  0.000000000E+00  0.000000000E+00 -1.126456747E+03  1.126456747E+03  0.000000000E+00  0.00000E+00  9.000E+00
      21     1     1     2   514   512 -3.276613608E+00 -1.483312281E+01 -3.575875221E+01  3.885159055E+01  2.336015456E-06  0.00000E+00  9.000E+00
       2     1     1     2   515     0  2.998222303E+00  8.747475897E+00 -1.077496480E+03  1.077536208E+03  3.300000131E-01  0.00000E+00  9.000E+00
      21     1     1     2   512   511  2.783913053E-01  6.085646909E+00 -1.083781300E+01  1.243265019E+01  6.078504936E-07  0.00000E+00  9.000E+00
</event>
<event>
      5  10001  2.40292E+09  3.75497E+01 -1.00000E+00  1.46531E-01
       2    -1     0     0   512     0  0.000000000E+00  0.000000000E+00  5.882671648E+02  5.882671648E+02  0.000000000E+00  0.00000E+00  9.000E+00
      21    -1     0     0   513   515  0.000000000E+00  0.000000000E+00 -3.513469056E+00  3.513469056E+00  0.000000000E+00  0.00000E+00  9.000E+00
      21     1     1     2   512   515 -1.875870877E+01 -9.367799109E+00  3.541731727E+01  4.115861001E+01  1.507891493E-06  0.00000E+00  9.000E+00
      21     1     1     2   513   514  1.689896602E+01 -7.550736014E+00  1.948560867E+02  1.957331938E+02  0.000000000E+00  0.00000E+00  9.000E+00
       2     1     1     2   514     0  1.859742754E+00  1.691853512E+01  3.544802918E+02  3.548888300E+02  3.300000131E-01  0.00000E+00  9.000E+00
</event>
<event>
      5  10001  2.40292E+09  6.72709E+00 -1.00000E+00  2.17951E-01
      21    -1     0     0   512   513  0.000000000E+00  0.000000000E+00  5.884031539E+01  5.884031539E+01  0.000000000E+00  0.00000E+00  9.000E+00
      -1    -1     0     0     0   511  0.000000000E+00  0.000000000E+00 -1.314978628E+01  1.314978628E+01  0.000000000E+00  0.00000E+00  9.000E+00
      -1     1     1     2     0   513  1.322324398E+01 -1.030644658E+01 -2.147168740E+00  1.690550964E+01  3.300000131E-01  0.00000E+00  9.000E+00
      21     1     1     2   514   511 -6.829806647E+00  1.239784502E+01  1.181047964E+01  1.843475655E+01  4.460403188E-07  0.00000E+00  9.000E+00
      21     1     1     2   512   514 -6.393437333E+00 -2.091398434E+00  3.602721822E+01  3.664983548E+01  8.259061849E-07  0.00000E+00  9.000E+00
</event>
<event>
      5  10001  2.40292E+09  8.46604E+00 -1.00000E+00  2.04443E-01
      21    -1     0     0   514   513  0.000000000E+00  0.000000000E+00  3.671015915E+01  3.671015915E+01  0.000000000E+00  0.00000E+00  9.000E+00
       2    -1     0     0   511     0  0.000000000E+00  0.000000000E+00 -8.880152444E+02  8.880152444E+02  0.000000000E+00  0.00000E+00  9.000E+00
      21     1     1     2   514   515 -3.928675039E+01  1.614732889E+00  2.475273821E+01  4.646239520E+01  9.536743164E-07  0.00000E+00  9.000E+00
       2     1     1     2   515     0  3.955932133E+01 -1.007637669E+01 -8.473509412E+02  8.483337785E+02  3.300000131E-01  0.00000E+00  9.000E+00
      21     1     1     2   511   513 -2.725709451E-01  8.461643806E+00 -2.870688221E+01  2.992922981E+01  3.371747881E-07  0.00000E+00  9.000E+00
</event>
<event>
      5  10001  2.40292E+09  2.88311E+00 -1.00000E+00  3.02061E-01
      21    -1     0     0   514   516  0.000000000E+00  0.000000000E+00  4.500225567E+00  4.500225567E+00  0.000000000E+00  0.00000E+00  9.000E+00
      21    -1     0     0   511   512  0.000000000E+00  0.000000000E+00 -2.471311049E+02  2.471311049E+02  0.000000000E+00  0.00000E+00  9.000E+00
      21     1     1     2   513   516  2.487916958E+00  1.216688236E+01 -1.754075530E+01  2.149187878E+01  1.305872339E-06  0.00000E+00  9.000E+00
      21     1     1     2   511   513 -4.723442254E+00 -1.398753397E+01 -2.264647057E+02  2.269454229E+02  5.394796609E-06  0.00000E+00  9.000E+00
      21     1     1     2   514   512  2.235525296E+00  1.820651606E+00  1.374581664E+00  3.194028861E+00  2.537576313E-07  0.00000E+00  9.000E+00
</event>
<event>
      5  10001  2.40292E+09  1.03516E+01 -1.00000E+00  1.93981E-01
      -1    -1     0     0     0   515  0.000000000E+00  0.000000000E+00  1.624691949E+02  1.624691949E+02  0.000000000E+00  0.00000E+00  9.000E+00
      21    -1     0     0   513   512  0.000000000E+00  0.000000000E+00 -9.590864808E-01  9.590864808E-01  0.000000000E+00  0.00000E+00  9.000E+00
      -1     1     1     2     0   511  7.766883332E+00 -1.626173467E+00  5.755154746E+01  5.809697437E+01  3.300000131E-01  0.00000E+00  9.000E+00
      21     1     1     2   513   515 -8.126917847E+00 -2.296872342E-02  1.031321809E+02  1.034518925E+02  1.907348633E-06  0.00000E+00  9.000E+00
      21     1     1     2   511   512  3.600345143E-01  1.649142190E+00  8.263800028E-01  1.879414463E+00  1.264405455E-07  0.00000E+00  9.000E+00
</event>
<event>
      5  10001  2.40292E+09  6.46454E+00 -1.00000E+00  2.20482E-01
      21    -1     0     0   514   512  0.000000000E+00  0.000000000E+00  9.972774572E+00  9.972774572E+00  0.000000000E+00  0.00000E+00  9.000E+00
      21    -1     0     0   513   516  0.000000000E+00  0.000000000E+00 -4.077637211E+01  4.077637211E+01  0.000000000E+00  0.00000E+00  9.000E+00
      21     1     1     2   514   516 -9.519771271E+00 -9.485854617E+00 -8.159882791E+00  1.572231440E+01  4.298152060E-07  0.00000E+00  9.000E+00
      21     1     1     2   511   512  1.089124532E+01  3.168473676E+00  1.401287719E-01  1.134363637E+01  1.969477518E-07  0.00000E+00  9.000E+00
      21     1     1     2   513   511 -1.371474051E+00  6.317380941E+00 -2.278384352E+01  2.368319591E+01  3.371747881E-07  0.00000E+00  9.000E+00
</event>
<event>
      5  10001  2.40292E+09  1.63768E+00 -1.00000E+00  4.08838E-01
      21    -1     0     0   513   511  0.000000000E+00  0.000000000E+00  1.862757990E-01  1.862757990E-01  0.000000000E+00  0.00000E+00  9.000E+00
       3    -1     0     0   512     0  0.000000000E+00  0.000000000E+00 -6.261907373E+02  6.261907373E+02  0.000000000E+00  0.00000E+00  9.000E+00
      21     1     1     2   512   514  6.807913353E+00 -6.067914749E+00 -2.574741933E+02  2.576356487E+02  3.814697266E-06  0.00000E+00  9.000E+00
       3     1     1     2   513     0 -7.965990728E+00  6.630343531E+00 -3.545860224E+02  3.547378127E+02  5.000000000E-01  0.00000E+00  9.000E+00
      21     1     1     2   514   511  1.158077376E+00 -5.624287821E-01 -1.394424578E+01  1.400355169E+01  2.384185791E-07  0.00000E+00  9.000E+00
</event>
<event>
      5  10001  2.40292E+09  1.04487E+01 -1.00000E+00  1.93522E-01
      21    -1     0     0   515   511  0.000000000E+00  0.000000000E+00  3.594197389E+01  3.594197389E+01  0.000000000E+00  0.00000E+00  9.000E+00
      -1    -1     0     0     0   515  0.000000000E+00  0.000000000E+00 -2.772109280E+02  2.772109280E+02  0.000000000E+00  0.00000E+00  9.000E+00
      -1     1     1     2     0   513  1.330515890E+01  1.727447405E+01 -1.903289728E+02  1.915741671E+02  3.300000131E-01  0.00000E+00  9.000E+00
      21     1     1     2   512   511 -2.604775351E+01 -3.057145929E+01  2.238221783E+01  4.597894367E+01  2.384185791E-07  0.00000E+00  9.000E+00
      21     1     1     2   513   512  1.274259461E+01  1.329698525E+01 -7.332219918E+01  7.559979118E+01  0.000000000E+00  0.00000E+00  9.000E+00
</event>
<event>
      5  10001  2.40292E+09  4.31624E+00 -1.00000E+00  2.55817E-01
      21    -1     0     0   514   511  0.000000000E+00  0.000000000E+00  8.889551387E+01  8.889551387E+01  0.000000000E+00  0.00000E+00  9.000E+00
      21    -1     0     0   515   514  0.000000000E+00  0.000000000E+00 -1.897473066E+02  1.897473066E+02  0.000000000E+00  0.00000E+00  9.000E+00
      21     1     1     2   512   511 -1.093026974E+01  3.702723924E+00  6.438633483E+01  6.541239235E+01  9.536743164E-07  0.00000E+00  9.000E+00
      21     1     1     2   516   512  7.424307507E+00 -6.220294357E+00  2.299303209E+01  2.494978814E+01  4.768371582E-07  0.00000E+00  9.000E+00
      21     1     1     2   515   516  3.505962228E+00  2.517570433E+00 -1.882311596E+02  1.882806400E+02  0.000000000E+00  0.00000E+00  9.000E+00
</event>
<event>
      5  10001  2.40292E+09  3.75308E+00 -1.00000E+00  2.70051E-01
       2    -1     0     0   511     0  0.000000000E+00  0.000000000E+00  2.198653406E+02  2.198653406E+02  0.000000000E+00  0.00000E+00  9.000E+00
      21    -1     0     0   513   514  0.000000000E+00  0.000000000E+00 -3.715840674E+01  3.715840674E+01  0.000000000E+00  0.00000E+00  9.000E+00
      21     1     1     2   515   514  6.015324801E+00 -8.619915873E+00 -3.576149638E+01  3.727427672E+01  1.907348633E-06  0.00000E+00  9.000E+00
       2     1     1     2   513     0 -9.410299525E+00  7.020028727E+00  2.115737718E+02  2.118995148E+02  3.300000131E-01  0.00000E+00  9.000E+00
      21     1     1     2   511   515  3.394974725E+00  1.599887146E+00  6.894658466E+00  7.849955900E+00  0.000000000E+00  0.00000E+00  9.000E+00
</event>
<event>
      5  10001  2.40292E+09  1.99453E+01 -1.00000E+00  1.66426E-01
      21    -1     0     0   515   513  0.000000000E+00  0.000000000E+00  1.618901248E+01  1.618901248E+01  0.000000000E+00  0.00000E+00  9.000E+00
      21    -1     0     0   512   515  0.000000000E+00  0.000000000E+00 -2.770518797E+01  2.770518797E+01  0.000000000E+00  0.00000E+00  9.000E+00
      21     1     1     2   514   513 -3.557471305E+00 -1.382299069E+01  6.836444350E+00  1.582616963E+01  1.685873940E-07  0.00000E+00  9.000E+00
       1     1     1     2   512     0  9.321908140E+00  5.424055794E+00 -1.159638256E+01  1.583992869E+01  3.300000131E-01  0.00000E+00  9.000E+00
      -1     1     1     2     0   514 -5.764436835E+00  8.398934897E+00 -6.756237286E+00  1.222810213E+01  3.300000131E-01  0.00000E+00  9.000E+00
</event>
<event>
      5  10001  2.40292E+09  6.22170E+00 -1.00000E+00  2.22975E-01
      21    -1     0     0   511   514  0.000000000E+00  0.000000000E+00  8.639449784E+01  8.639449784E+01  0.000000000E+00  0.00000E+00  9.000E+00
      -3    -1     0     0     0   511  0.000000000E+00  0.000000000E+00 -9.927774925E+00  9.927774925E+00  0.000000000E+00  0.00000E+00  9.000E+00
      -3     1     1     2     0   512  9.979775960E+00 -1.743241961E+01  9.867387479E+00  2.238527457E+01  5.000000000E-01  0.00000E+00  9.000E+00
      21     1     1     2   515   514 -1.462462571E+01  2.145482407E+01  5.423681979E+01  6.013170357E+01  9.536743164E-07  0.00000E+00  9.000E+00
      21     1     1     2   512   515  4.644849753E+00 -4.022404455E+00  1.236251564E+01  1.380529463E+01  2.384185791E-07  0.00000E+00  9.000E+00
</event>
<event>
      5  10001  2.40292E+09  9.65594E+00 -1.00000E+00  1.97472E-01
      21    -1     0     0   513   514  0.000000000E+00  0.000000000E+00  2.462256186E+01  2.462256186E+01  0.000000000E+00  0.00000E+00  9.000E+00
      21    -1     0     0   516   513  0.000000000E+00  0.000000000E+00 -1.324755675E+01  1.324755675E+01  0.000000000E+00  0.00000E+00  9.000E+00
      21     1     1     2   515   514  1.040010767E+01 -1.109082443E+00  1.666610078E+01  1.967615864E+01  3.371747881E-07  0.00000E+00  9.000E+00
      21     1     1     2   511   515 -4.614870456E+00 -1.838911885E+00 -9.313766344E+00  1.055579792E+01  0.000000000E+00  0.00000E+00  9.000E+00
      21     1     1     2   516   511 -5.785237216E+00  2.947994328E+00  4.022670668E+00  7.638162050E+00  5.960464478E-08  0.00000E+00  9.000E+00
</event>
<event>
      5  10001  2.40292E+09  1.45271E+01 -1.00000E+00  1.78656E-01
       4    -1     0     0   513     0  0.000000000E+00  0.000000000E+00  6.349195640E+00  6.349195640E+00  0.000000000E+00  0.00000E+00  9.000E+00
      21    -1     0     0   512   511  0.000000000E+00  0.000000000E+00 -1.005875024E+02  1.005875024E+02  0.000000000E+00  0.00000E+00  9.000E+00
      21     1     1     2   514   511  4.392296107E+00 -1.162746218E+01 -2.031984726E+00  1.259440764E+01  3.625608999E-07  0.00000E+00  9.000E+00
       4     1     1     2   512     0 -4.506602385E+00  1.487574735E+01 -6.099520599E+01  6.296238939E+01  1.500000000E+00  0.00000E+00  9.000E+00
      21     1     1     2   513   514  1.143062788E-01 -3.248285163E+00 -3.121111603E+01  3.137990099E+01  5.840038640E-07  0.00000E+00  9.000E+00
</event>
<event>
      5  10001  2.40292E+09  2.72893E+00 -1.00000E+00  3.09780E-01
       1    -1     0     0   511     0  0.000000000E+00  0.000000000E+00  2.918114977E+01  2.918114977E+01  0.000000000E+00  0.00000E+00  9.000E+00
      21    -1     0     0   512   511  0.000000000E+00  0.000000000E+00 -6.447942060E+01  6.447942060E+01  0.000000000E+00  0.00000E+00  9.000E+00
      21     1     1     2   515   513  5.381836723E+00  7.366665292E+00 -2.622682327E+00  9.492649084E+00  1.397852826E-07  0.00000E+00  9.000E+00
       1     1     1     2   513     0 -7.123504805E+00 -9.467481001E+00  2.434765688E+01  2.707941677E+01  3.300000131E-01  0.00000E+00  9.000E+00
      21     1     1     2   512   515  1.741668082E+00  2.100815709E+00 -5.702324537E+01  5.708850451E+01  9.536743164E-07  0.00000E+00  9.000E+00
</event>
<event>
      5  10001  2.40292E+09  6.54345E+00 -1.00000E+00  2.19704E-01
      21    -1     0     0   511   515  0.000000000E+00  0.000000000E+00  2.143851338E+01  2.143851338E+01  0.000000000E+00  0.00000E+00  9.000E+00
      21    -1     0     0   512   514  0.000000000E+00  0.000000000E+00 -2.467477618E+02  2.467477618E+02  0.000000000E+00  0.00000E+00  9.000E+00
      21     1     1     2   516   515 -1.503464673E+01  6.235594954E+00 -2.694708882E+01  3.148124589E+01  4.768371582E-07  0.00000E+00  9.000E+00
      21     1     1     2   512   516  9.063234543E+00 -8.911225800E+00 -2.167836335E+02  2.171559254E+02  2.697398305E-06  0.00000E+00  9.000E+00
      21     1     1     2   511   514  5.971412190E+00  2.675630846E+00  1.842147390E+01  1.954910393E+01  1.066240300E-06  0.00000E+00  9.000E+00
</event>
<event>
      5  10001  2.40292E+09  1.83496E+01 -1.00000E+00  1.69472E-01
      21    -1     0     0   513   514  0.000000000E+00  0.000000000E+00  4.598304157E+01  4.598304157E+01  0.000000000E+00  0.00000E+00  9.000E+00
      21    -1     0     0   517   513  0.000000000E+00  0.000000000E+00 -2.102848753E+01  2.102848753E+01  0.000000000E+00  0.00000E+00  9.000E+00
      21     1     1     2   512   514 -9.115960037E+00 -5.055516421E+00  4.255403457E+01  4.381215393E+01  4.768371582E-07  0.00000E+00  9.000E+00
      21     1     1     2   515   512  1.255994647E+00  5.780531216E+00 -3.070860284E+00  6.665001619E+00  1.397852826E-07  0.00000E+00  9.000E+00
      21     1     1     2   517   515  7.859965390E+00 -7.250147954E-01 -1.452862024E+01  1.653437355E+01  6.078504936E-07  0.00000E+00  9.000E+00
</event>
<event>
      5  10001  2.40292E+09  4.22699E+00 -1.00000E+00  2.57844E-01
      21    -1     0     0   512   515  0.000000000E+00  0.000000000E+00  5.387810550E+02  5.387810550E+02  0.000000000E+00  0.00000E+00  9.000E+00
      21    -1     0     0   514   516  0.000000000E+00  0.000000000E+00 -4.117960905E+00  4.117960905E+00  0.000000000E+00  0.00000E+00  9.000E+00
      21     1     1     2   511   516  8.705124116E-01 -1.292271147E+01  5.119191237E+01  5.280498230E+01  6.743495762E-07  0.00000E+00  9.000E+00
      21     1     1     2   514   515  1.984481519E-01  8.833123828E+00  2.607934450E+00  9.212208222E+00  2.107342426E-07  0.00000E+00  9.000E+00
      21     1     1     2   512   511 -1.068960564E+00  4.089587644E+00  4.808632472E+02  4.808818253E+02  5.394796609E-06  0.00000E+00  9.000E+00
</event>
<event>
      5  10001  2.40292E+09  3.86584E+00 -1.00000E+00  2.66899E-01
      21    -1     0     0   513   514  0.000000000E+00  0.000000000E+00  3.987279831E+00  3.987279831E+00  0.000000000E+00  0.00000E+00  9.000E+00
      21    -1     0     0   517   511  0.000000000E+00  0.000000000E+00 -1.055806436E+02  1.055806436E+02  0.000000000E+00  0.00000E+00  9.000E+00
      21     1     1     2   513   511  1.005899922E+01 -4.681136057E+00 -5.540779660E+00  1.240148133E+01  1.192092896E-07  0.00000E+00  9.000E+00
      21     1     1     2   517   515 -7.834487855E+00  6.685674792E+00 -8.751478035E+01  8.811875071E+01  1.348699152E-06  0.00000E+00  9.000E+00
      21     1     1     2   515   514 -2.224511363E+00 -2.004538735E+00 -8.537803752E+00  9.047691377E+00  1.685873940E-07  0.00000E+00  9.000E+00
</event>
<event>
      5  10001  2.40292E+09  2.42997E+00 -1.00000E+00  3.27547E-01
      21    -1     0     0   511   514  0.000000000E+00  0.000000000E+00  1.072606026E+00  1.072606026E+00  0.000000000E+00  0.00000E+00  9.000E+00
       1    -1     0     0   515     0  0.000000000E+00  0.000000000E+00 -9.539973820E+02  9.539973820E+02  0.000000000E+00  0.00000E+00  9.000E+00
      21     1     1     2   515   514 -8.740553656E+00  1.239951336E+01 -7.255409806E+01  7.412315667E+01  0.000000000E+00  0.00000E+00  9.000E+00
       1     1     1     2   512     0  1.038756882E+01 -1.061296031E+01 -8.740342968E+02  8.741605101E+02  3.300000131E-01  0.00000E+00  9.000E+00
      21     1     1     2   511   512 -1.647015159E+00 -1.786553045E+00 -6.336381125E+00  6.786321277E+00  0.000000000E+00  0.00000E+00  9.000E+00
</event>
<event>
      5  10001  2.40292E+09  2.15238E+01 -1.00000E+00  1.63740E-01
      21    -1     0     0   513   512  0.000000000E+00  0.000000000E+00  1.591920873E+02  1.591920873E+02  0.000000000E+00  0.00000E+00  9.000E+00
      21    -1     0     0   514   516  0.000000000E+00  0.000000000E+00 -2.713873393E+00  2.713873393E+00  0.000000000E+00  0.00000E+00  9.000E+00
      21     1     1     2   513   516 -1.461999773E+01  5.510919157E+00  5.316965248E+01  5.541774543E+01  9.536743164E-07  0.00000E+00  9.000E+00
      21     1     1     2   514   515  6.626477938E+00 -4.595252208E+00  1.005925326E+01  1.289244464E+01  1.192092896E-07  0.00000E+00  9.000E+00
      21     1     1     2   515   512  7.993519793E+00 -9.156669487E-01  9.324930819E+01  9.359577064E+01  0.000000000E+00  0.00000E+00  9.000E+00
</event>
<event>
      5  10001  2.40292E+09  1.12634E+01 -1.00000E+00  1.89913E-01
       2    -1     0     0   513     0  0.000000000E+00  0.000000000E+00  2.084489874E+01  2.084489874E+01  0.000000000E+00  0.00000E+00  9.000E+00
      21    -1     0     0   515   513  0.000000000E+00  0.000000000E+00 -4.453077321E+01  4.453077321E+01  0.000000000E+00  0.00000E+00  9.000E+00
      21     1     1     2   514   511 -9.553293297E+00 -5.031404504E+00 -2.027140771E+01  2.296759488E+01  4.768371582E-07  0.00000E+00  9.000E+00
       2     1     1     2   511     0  7.305122544E+00  7.907460607E+00  1.784180406E+01  2.084062429E+01  3.300000131E-01  0.00000E+00  9.000E+00
      21     1     1     2   515   514  2.248170752E+00 -2.876056103E+00 -2.125627081E+01  2.156745278E+01  3.371747881E-07  0.00000E+00  9.000E+00
</event>
<event>
      5  10001  2.40292E+09  4.10087E+01 -1.00000E+00  1.44142E-01
      21    -1     0     0   514   515  0.000000000E+00  0.000000000E+00  4.335477878E+00  4.335477878E+00  0.000000000E+00  0.00000E+00  9.000E+00
      -1    -1     0     0     0   512  0.000000000E+00  0.000000000E+00 -3.883525669E+02  3.883525669E+02  0.000000000E+00  0.00000E+00  9.000E+00
      -1     1     1     2     0   511  1.309108269E+01 -4.561185110E+00 -8.349250906E+01  8.463621462E+01  3.300000131E-01  0.00000E+00  9.000E+00
      21     1     1     2   514   512 -5.048506721E+00  2.524503829E+01 -4.726467449E+01  5.382145328E+01  6.743495762E-07  0.00000E+00  9.000E+00
      21     1     1     2   511   515 -8.042575969E+00 -2.068385318E+01 -2.532599054E+02  2.542303769E+02  2.697398305E-06  0.00000E+00  9.000E+00
</event>
<event>
      5  10001  2.40292E+09  4.04995E+00 -1.00000E+00  2.62099E-01
       1    -1     0     0   511     0  0.000000000E+00  0.000000000E+00  7.610747350E+01  7.610747350E+01  0.000000000E+00  0.00000E+00  9.000E+00
      21    -1     0     0   513   512  0.000000000E+00  0.000000000E+00 -7.471059557E+01  7.471059557E+01  0.000000000E+00  0.00000E+00  9.000E+00
      21     1     1     2   511   514  4.725103628E+00 -2.606665944E+00 -3.339306442E+01  3.382629248E+01  4.768371582E-07  0.00000E+00  9.000E+00
       1     1     1     2   513     0 -9.804538386E+00  9.738499715E+00  7.478384981E+01  7.605064393E+01  3.300000131E-01  0.00000E+00  9.000E+00
      21     1     1     2   514   512  5.079434758E+00 -7.131833771E+00 -3.999390746E+01  4.094113267E+01  0.000000000E+00  0.00000E+00  9.000E+00
</event>
<event>
      5  10001  2.40292E+09  3.34093E+00 -1.00000E+00  2.83242E-01
      21    -1     0     0   515   516  0.000000000E+00  0.000000000E+00  9.425195288E-01  9.425195288E-01  0.000000000E+00  0.00000E+00  9.000E+00
       2    -1     0     0   516     0  0.000000000E+00  0.000000000E+00 -1.288875070E+03  1.288875070E+03  0.000000000E+00  0.00000E+00  9.000E+00
      -1     1     1     2     0   511  1.149320668E+01 -3.614874502E+00 -1.250490160E+02  1.256285255E+02  3.300000131E-01  0.00000E+00  9.000E+00
       1     1     1     2   515     0 -1.004385048E+01  6.624642597E+00 -5.505142253E+01  5.635186638E+01  3.300000131E-01  0.00000E+00  9.000E+00
       2     1     1     2   511     0 -1.449356203E+00 -3.009768095E+00 -1.107832112E+03  1.107837198E+03  3.300000131E-01  0.00000E+00  9.000E+00
</event>
<event>
      5  10001  2.40292E+09  1.62156E+01 -1.00000E+00  1.74208E-01
      21    -1     0     0   515   516  0.000000000E+00  0.000000000E+00  8.475223708E+00  8.475223708E+00  0.000000000E+00  0.00000E+00  9.000E+00
      21    -1     0     0   513   512  0.000000000E+00  0.000000000E+00 -1.746511259E+03  1.746511259E+03  0.000000000E+00  0.00000E+00  9.000E+00
      21     1     1     2   514   516 -5.497963691E-01  1.093418661E+01 -1.138697672E+02  1.143948539E+02  6.468133910E-06  0.00000E+00  9.000E+00
      21     1     1     2   513   514 -1.447598234E+01 -4.837351423E+00 -1.624303746E+03  1.624375454E+03  0.000000000E+00  0.00000E+00  9.000E+00
      21     1     1     2   515   512  1.502577871E+01 -6.096835191E+00  1.374786121E-01  1.621617481E+01  8.638798804E-07  0.00000E+00  9.000E+00
</event>
<event>
      5  10001  2.40292E+09  1.57282E+01 -1.00000E+00  1.75419E-01
      21    -1     0     0   511   512  0.000000000E+00  0.000000000E+00  6.223730722E+01  6.223730722E+01  0.000000000E+00  0.00000E+00  9.000E+00
      21    -1     0     0   516   517  0.000000000E+00  0.000000000E+00 -5.954386850E+01  5.954386850E+01  0.000000000E+00  0.00000E+00  9.000E+00
      21     1     1     2   511   517  1.192117364E+01  1.401410386E+01 -5.062725448E+01  5.386676511E+01  6.743495762E-07  0.00000E+00  9.000E+00
      21     1     1     2   516   513 -7.649662564E+00 -6.218461880E+00  5.732387454E+01  5.816539519E+01  1.651812370E-06  0.00000E+00  9.000E+00
      21     1     1     2   513   512 -4.271511075E+00 -7.795641976E+00 -4.003181339E+00  9.749015412E+00  2.308477966E-07  0.00000E+00  9.000E+00
</event>
<event>
      5  10001  2.40292E+09  1.63438E+01 -1.00000E+00  1.73898E-01
      21    -1     0     0   514   516  0.000000000E+00  0.000000000E+00  2.242739399E+02  2.242739399E+02  0.000000000E+00  0.00000E+00  9.000E+00
      21    -1     0     0   515   512  0.000000000E+00  0.000000000E+00 -4.461556115E+00  4.461556115E+00  0.000000000E+00  0.00000E+00  9.000E+00
      21     1     1     2   514   512 -8.329127990E+00 -1.060361921E+01  1.976145187E+02  1.980739991E+02  3.814697266E-06  0.00000E+00  9.000E+00
      21     1     1     2   511   516  1.009577700E+01  9.531765663E+00  2.412551839E+01  2.783558707E+01  0.000000000E+00  0.00000E+00  9.000E+00
      21     1     1     2   515   511 -1.766649011E+00  1.071853542E+00 -1.927653360E+00  2.825909804E+00  2.972772322E-07  0.00000E+00  9.000E+00
</event>
<event>
      5  10001  2.40292E+09  1.01301E+01 -1.00000E+00  1.95052E-01
      21    -1     0     0   513   511  0.000000000E+00  0.000000000E+00  3.798346695E+01  3.798346695E+01  0.000000000E+00  0.00000E+00  9.000E+00
      21    -1     0     0   515   517  0.000000000E+00  0.000000000E+00 -1.091122160E+01  1.091122160E+01  0.000000000E+00  0.00000E+00  9.000E+00
      21     1     1     2   513   517 -5.320582789E-01  1.383780638E+01 -3.287414442E+00  1.423288674E+01  2.980232239E-07  0.00000E+00  9.000E+00
      21     1     1     2   512   511  2.911786109E+00 -3.540508152E+00  1.710938826E+01  1.771284458E+01  0.000000000E+00  0.00000E+00  9.000E+00
      21     1     1     2   515   512 -2.379727830E+00 -1.029729823E+01  1.325027154E+01  1.694895723E+01  1.685873940E-07  0.00000E+00  9.000E+00
</event>
<event>
      5  10001  2.40292E+09  6.33299E+00 -1.00000E+00  2.21814E-01
      21    -1     0     0   514   513  0.000000000E+00  0.000000000E+00  9.546946098E+01  9.546946098E+01  0.000000000E+00  0.00000E+00  9.000E+00
      21    -1     0     0   515   514  0.000000000E+00  0.000000000E+00 -3.814745753E+01  3.814745753E+01  0.000000000E+00  0.00000E+00  9.000E+00
      21     1     1     2   512   511 -7.927761840E+00 -6.192405502E+00  8.770125932E+01  8.827630588E+01  1.907348633E-06  0.00000E+00  9.000E+00
      21     1     1     2   515   512  1.190555632E+01  1.264534561E+00 -3.532915398E+01  3.730268676E+01  1.168007728E-06  0.00000E+00  9.000E+00
      21     1     1     2   511   513 -3.977794475E+00  4.927870941E+00  4.949898104E+00  8.037925861E+00  5.960464478E-08  0.00000E+00  9.000E+00
</event>
<event>
      5  10001  2.40292E+09  8.64677E+00 -1.00000E+00  2.03289E-01
      21    -1     0     0   516   511  0.000000000E+00  0.000000000E+00  6.497353221E+01  6.497353221E+01  0.000000000E+00  0.00000E+00  9.000E+00
      21    -1     0     0   512   516  0.000000000E+00  0.000000000E+00 -7.672300231E+01  7.672300231E+01  0.000000000E+00  0.00000E+00  9.000E+00
      21     1     1     2   513   517 -3.130702931E+00 -1.253841966E+01  2.081638289E+00  1.308993837E+01  1.999200562E-07  0.00000E+00  9.000E+00
      21     1     1     2   517   511 -4.930794244E+00  9.411306702E+00  5.662941548E+01  5.761749841E+01  0.000000000E+00  0.00000E+00  9.000E+00
      21     1     1     2   512   513  8.061497175E+00  3.127112962E+00 -7.046052388E+01  7.098909773E+01  9.536743164E-07  0.00000E+00  9.000E+00
</event>
<event>
      5  10001  2.40292E+09  1.21871E+01 -1.00000E+00  1.86272E-01
      21    -1     0     0   514   511  0.000000000E+00  0.000000000E+00  7.030168902E+02  7.030168902E+02  0.000000000E+00  0.00000E+00  9.000E+00
      21    -1     0     0   512   514  0.000000000E+00  0.000000000E+00 -1.989117703E+00  1.989117703E+00  0.000000000E+00  0.00000E+00  9.000E+00
      21     1     1     2   515   511 -3.192475040E-01 -1.018586771E+01  6.852517725E+02  6.853275462E+02  1.078959322E-05  0.00000E+00  9.000E+00
      21     1     1     2   516   515 -2.161302871E+00  2.346701726E+00  6.767472921E+00  7.481773107E+00  3.475518164E-07  0.00000E+00  9.000E+00
      21     1     1     2   512   516  2.480550375E+00  7.839165982E+00  9.008527077E+00  1.219668863E+01  2.064765462E-07  0.00000E+00  9.000E+00
</event>
<event>
      5  10001  2.40292E+09  6.47608E+00 -1.00000E+00  2.20367E-01
      21    -1     0     0   514   512  0.000000000E+00  0.000000000E+00  2.246655905E+02  2.246655905E+02  0.000000000E+00  0.00000E+00  9.000E+00
      21    -1     0     0   511   517  0.000000000E+00  0.000000000E+00 -1.051082788E+01  1.051082788E+01  0.000000000E+00  0.00000E+00  9.000E+00
      21     1     1     2   513   517  9.185494029E+00  1.146063655E+01  3.110405581E-01  1.469068538E+01  1.028342079E-07  0.00000E+00  9.000E+00
      21     1     1     2   511   512 -7.517375676E+00 -5.203084332E+00  3.116413778E+00  9.658936715E+00  2.493441184E-07  0.00000E+00  9.000E+00
      21     1     1     2   514   513 -1.668118353E+00 -6.257552220E+00  2.107273083E+02  2.108267963E+02  3.814697266E-06  0.00000E+00  9.000E+00
</event>
<event>
      5  10001  2.40292E+09  4.66794E+00 -1.00000E+00  2.48512E-01
      21    -1     0     0   512   511  0.000000000E+00  0.000000000E+00  8.538323254E+00  8.538323254E+00  0.000000000E+00  0.00000E+00  9.000E+00
      21    -1     0     0   516   513  0.000000000E+00  0.000000000E+00 -7.230790060E+01  7.230790060E+01  0.000000000E+00  0.00000E+00  9.000E+00
      21     1     1     2   515   513  1.129561099E+01  4.491621318E+00 -5.288049517E+01  5.425967433E+01  9.536743164E-07  0.00000E+00  9.000E+00
      21     1     1     2   516   511 -1.363838409E+01 -8.529078280E+00 -1.370727151E+01  2.113385884E+01  4.460403188E-07  0.00000E+00  9.000E+00
      21     1     1     2   512   515  2.342773107E+00  4.037456962E+00  2.818189335E+00  5.452690682E+00  9.424321831E-08  0.00000E+00  9.000E+00
</event>
<event>
      5  10001  2.40292E+09  6.17318E+00 -1.00000E+00  2.23492E-01
      21    -1     0     0   511   513  0.000000000E+00  0.000000000E+00  8.463893574E+00  8.463893574E+00  0.000000000E+00  0.00000E+00  9.000E+00
      21    -1     0     0   517   514  0.000000000E+00  0.000000000E+00 -8.634213830E+01  8.634213830E+01  0.000000000E+00  0.00000E+00  9.000E+00
      21     1     1     2   517   515 -5.204448921E+00  1.645018977E+01 -6.881666057E+01  7.094665464E+01  1.348699152E-06  0.00000E+00  9.000E+00
      21     1     1     2   515   513  6.014229431E+00 -1.033034860E+01 -1.207413201E+01  1.699034201E+01  3.769728732E-07  0.00000E+00  9.000E+00
      21     1     1     2   511   514 -8.097805101E-01 -6.119841164E+00  3.012547854E+00  6.869035225E+00  1.685873940E-07  0.00000E+00  9.000E+00
</event>
<event>
      5  10001  2.40292E+09  6.39156E+00 -1.00000E+00  2.21215E-01
       2    -1     0     0   511     0  0.000000000E+00  0.000000000E+00  9.197386240E+01  9.197386240E+01  0.000000000E+00  0.00000E+00  9.000E+00
      -2    -1     0     0     0   511  0.000000000E+00  0.000000000E+00 -1.028936593E+02  1.028936593E+02  0.000000000E+00  0.00000E+00  9.000E+00
      -2     1     1     2     0   512 -1.354937937E+00 -1.658604997E+01 -1.013915708E+02  1.027486858E+02  3.300000131E-01  0.00000E+00  9.000E+00
       2     1     1     2   513     0  4.867449689E-01  3.752515675E+00  3.341184564E+01  3.362705197E+01  3.300000131E-01  0.00000E+00  9.000E+00
      21     1     1     2   512   513  8.681929678E-01  1.283353430E+01  5.705992830E+01  5.849178386E+01  6.743495762E-07  0.00000E+00  9.000E+00
</event>
<event>
      5  10001  2.40292E+09  7.50090E+00 -1.00000E+00  2.11328E-01
      21    -1     0     0   511   513  0.000000000E+00  0.000000000E+00  4.309994967E+00  4.309994967E+00  0.000000000E+00  0.00000E+00  9.000E+00
       1    -1     0     0   512     0  0.000000000E+00  0.000000000E+00 -8.424471276E+02  8.424471276E+02  0.000000000E+00  0.00000E+00  9.000E+00
      21     1     1     2   512   513  9.607587221E+00 -7.029412649E+00 -1.353158031E+02  1.358384516E+02  5.394796609E-06  0.00000E+00  9.000E+00
       1     1     1     2   514     0 -1.212501105E+01 -3.635761244E-02 -7.032981085E+02  7.034026980E+02  3.300000131E-01  0.00000E+00  9.000E+00
      21     1     1     2   511   514  2.517423831E+00  7.065770261E+00  4.767789031E-01  7.515973008E+00  7.124173325E-07  0.00000E+00  9.000E+00
</event>
<event>
      5  10001  2.40292E+09  1.04603E+01 -1.00000E+00  1.93468E-01
      21    -1     0     0   515   513  0.000000000E+00  0.000000000E+00  1.113158523E+02  1.113158523E+02  0.000000000E+00  0.00000E+00  9.000E+00
      21    -1     0     0   516   515  0.000000000E+00  0.000000000E+00 -8.222255875E+01  8.222255875E+01  0.000000000E+00  0.00000E+00  9.000E+00
      21     1     1     2   516   512  2.388044986E+01  5.870155536E+00 -7.808852940E+01  8.186912138E+01  1.348699152E-06  0.00000E+00  9.000E+00
      21     1     1     2   517   513 -1.930614546E+01 -1.261022636E+01  8.350512394E+01  8.663054188E+01  0.000000000E+00  0.00000E+00  9.000E+00
      21     1     1     2   512   517 -4.574304400E+00  6.740070825E+00  2.367669904E+01  2.503874783E+01  4.768371582E-07  0.00000E+00  9.000E+00
</event>
<event>
      5  10001  2.40292E+09  6.95539E+00 -1.00000E+00  2.15875E-01
      21    -1     0     0   511   516  0.000000000E+00  0.000000000E+00  7.938300751E+01  7.938300751E+01  0.000000000E+00  0.00000E+00  9.000E+00
      21    -1     0     0   512   514  0.000000000E+00  0.000000000E+00 -2.068762726E+01  2.068762726E+01  0.000000000E+00  0.00000E+00  9.000E+00
      21     1     1     2   511   514 -6.917675707E+00 -6.496195601E+00  7.294395116E+01  7.355864874E+01  1.348699152E-06  0.00000E+00  9.000E+00
      21     1     1     2   513   516  2.832623578E+00  4.973190522E+00 -1.912958504E+01  1.996740855E+01  2.384185791E-07  0.00000E+00  9.000E+00
      21     1     1     2   512   513  4.085052129E+00  1.523005079E+00  4.881014141E+00  6.544577481E+00  1.192092896E-07  0.00000E+00  9.000E+00
</event>
<event>
      5  10001  2.40292E+09  5.89322E+00 -1.00000E+00  2.26610E-01
      21    -1     0     0   515   513  0.000000000E+00  0.000000000E+00  7.678548788E+01  7.678548788E+01  0.000000000E+00  0.00000E+00  9.000E+00
      21    -1     0     0   512   515  0.000000000E+00  0.000000000E+00 -3.629360589E+00  3.629360589E+00  0.000000000E+00  0.00000E+00  9.000E+00
      21     1     1     2   512   517  6.537377746E-01  1.388132934E+01  5.121946079E+01  5.307119596E+01  0.000000000E+00  0.00000E+00  9.000E+00
      21     1     1     2   511   513  1.861535897E+00 -8.833302705E+00  7.143523026E+00  1.151184059E+01  3.153981341E-07  0.00000E+00  9.000E+00
      21     1     1     2   517   511 -2.515273672E+00 -5.048026639E+00  1.479314348E+01  1.583181192E+01  1.685873940E-07  0.00000E+00  9.000E+00
</event>
<event>
      5  10001  2.40292E+09  6.38593E+00 -1.00000E+00  2.21272E-01
      -1    -1     0     0     0   514  0.000000000E+00  0.000000000E+00  2.768932621E+02  2.768932621E+02  0.000000000E+00  0.00000E+00  9.000E+00
      21    -1     0     0   513   515  0.000000000E+00  0.000000000E+00 -1.134182794E+01  1.134182794E+01  0.000000000E+00  0.00000E+00  9.000E+00
      -1     1     1     2     0   512  1.136400935E+01  4.091114110E+00  2.630475273E+02  2.633248724E+02  3.300000131E-01  0.00000E+00  9.000E+00
      21     1     1     2   512   515 -1.726785984E+01 -1.657206732E+00 -1.436334644E+00  1.740656126E+01  4.786961795E-07  0.00000E+00  9.000E+00
      21     1     1     2   513   514  5.903850485E+00 -2.433907378E+00  3.940241506E+00  7.503656362E+00  1.837138534E-07  0.00000E+00  9.000E+00
</event>
<event>
      5  10001  2.40292E+09  8.54655E+00 -1.00000E+00  2.03924E-01
      21    -1     0     0   511   512  0.000000000E+00  0.000000000E+00  3.473048387E+01  3.473048387E+01  0.000000000E+00  0.00000E+00  9.000E+00
      21    -1     0     0   513   514  0.000000000E+00  0.000000000E+00 -1.094385494E+01  1.094385494E+01  0.000000000E+00  0.00000E+00  9.000E+00
      21     1     1     2   511   514 -1.446089250E+01  7.224457547E+00  2.394786143E+01  2.889308336E+01  4.768371582E-07  0.00000E+00  9.000E+00
      21     1     1     2   513   515  3.570902510E+00 -2.301099809E+00  1.899924418E+00  4.653613420E+00  1.115100797E-07  0.00000E+00  9.000E+00
      21     1     1     2   515   512  1.088998999E+01 -4.923357739E+00 -2.061156922E+00  1.212764203E+01  5.153303285E-07  0.00000E+00  9.000E+00
</event>
<event>
      5  10001  2.40292E+09  5.01812E+00 -1.00000E+00  2.38154E-01
      21    -1     0     0   516   515  0.000000000E+00  0.000000000E+00  1.423018703E+02  1.423018703E+02  0.000000000E+00  0.00000E+00  9.000E+00
      21    -1     0     0   512   516  0.000000000E+00  0.000000000E+00 -8.142903860E-01  8.142903860E-01  0.000000000E+00  0.00000E+00  9.000E+00
      21     1     1     2   513   515 -2.034802428E+00  9.643929145E+00  7.928281748E+01  7.989312197E+01  0.000000000E+00  0.00000E+00  9.000E+00
      21     1     1     2   511   513 -6.507834197E-01 -6.205771596E+00  4.674038900E+01  4.715505365E+01  9.536743164E-07  0.00000E+00  9.000E+00
      21     1     1     2   512   511  2.685585848E+00 -3.438157549E+00  1.546437344E+01  1.606798508E+01  0.000000000E+00  0.00000E+00  9.000E+00
</event>
<event>
      5  10001  2.40292E+09  3.82416E+00 -1.00000E+00  2.68045E-01
      21    -1     0     0   514   513  0.000000000E+00  0.000000000E+00  1.321969992E+01  1.321969992E+01  0.000000000E+00  0.00000E+00  9.000E+00
      21    -1     0     0   512   514  0.000000000E+00  0.000000000E+00 -4.788188649E+01  4.788188649E+01  0.000000000E+00  0.00000E+00  9.000E+00
      21     1     1     2   511   513  6.093275883E+00  7.407638261E+00  1.025930397E+01  1.404472974E+01  2.920019320E-07  0.00000E+00  9.000E+00
      21     1     1     2   512   515 -4.551620359E+00 -4.583510383E+00 -4.260573376E+01  4.309262541E+01  0.000000000E+00  0.00000E+00  9.000E+00
      21     1     1     2   515   511 -1.541655524E+00 -2.824127878E+00 -2.315756785E+00  3.964231264E+00  4.214684851E-08  0.00000E+00  9.000E+00
</event>
<event>
      5  10001  2.40292E+09  3.24961E+01 -1.00000E+00  1.50634E-01
      21    -1     0     0   516   511  0.000000000E+00  0.000000000E+00  2.569231846E+01  2.569231846E+01  0.000000000E+00  0.00000E+00  9.000E+00
      21    -1     0     0   517   516  0.000000000E+00  0.000000000E+00 -7.298088929E+02  7.298088929E+02  0.000000000E+00  0.00000E+00  9.000E+00
      21     1     1     2   512   511 -5.569464020E+00  2.376087958E+01  1.949614043E+01  3.123616205E+01  1.831327855E-06  0.00000E+00  9.000E+00
      21     1     1     2   517   513 -3.240983670E-01 -1.354663223E+01 -1.743587665E+02  1.748845212E+02  1.907348633E-06  0.00000E+00  9.000E+00
      21     1     1     2   513   512  5.893562387E+00 -1.021424735E+01 -5.492539484E+02  5.493805282E+02  7.629394531E-06  0.00000E+00  9.000E+00
</event>
<event>
      5  10001  2.40292E+09  2.43079E+00 -1.00000E+00  3.27493E-01
       3    -1     0     0   513     0  0.000000000E+00  0.000000000E+00  2.596608203E+00  2.596608203E+00  0.000000000E+00  0.00000E+00  9.000E+00
       2    -1     0     0   511     0  0.000000000E+00  0.000000000E+00 -1.397779953E+02  1.397779953E+02  0.000000000E+00  0.00000E+00  9.000E+00
       2     1     1     2   513     0 -1.021392003E+01 -1.873391486E+00 -1.278625194E+02  1.282839293E+02  3.300000131E-01  0.00000E+00  9.000E+00
       3     1     1     2   514     0  3.378198045E+00  1.479470650E+00 -3.335090693E+00  4.997387854E+00  5.000000000E-01  0.00000E+00  9.000E+00
      21     1     1     2   511   514  6.835721987E+00  3.939208357E-01 -5.983776994E+00  9.093286305E+00  3.576278687E-07  0.00000E+00  9.000E+00
</event>
<event>
      5  10001  2.40292E+09  4.84369E+00 -1.00000E+00  2.45215E-01
       2    -1     0     0   512     0  0.000000000E+00  0.000000000E+00  3.378508870E+02  3.378508870E+02  0.000000000E+00  0.00000E+00  9.000E+00
      21    -1     0     0   511   515  0.000000000E+00  0.000000000E+00 -4.351838005E+00  4.351838005E+00  0.000000000E+00  0.00000E+00  9.000E+00
      21     1     1     2   512   515  8.289216452E+00  7.850027364E+00  2.742083880E+01  2.970246521E+01  3.371747881E-07  0.00000E+00  9.000E+00
      21     1     1     2   511   514 -9.443614837E+00 -1.255403599E+01  1.614560494E+01  2.252701133E+01  4.129530925E-07  0.00000E+00  9.000E+00
       2     1     1     2   514     0  1.154398385E+00  4.704008625E+00  2.899326053E+02  2.899732485E+02  3.300000131E-01  0.00000E+00  9.000E+00
</event>
<event>
      5  10001  2.40292E+09  9.96564E+00 -1.00000E+00  1.95872E-01
      21    -1     0     0   513   511  0.000000000E+00  0.000000000E+00  1.654277425E+01  1.654277425E+01  0.000000000E+00  0.00000E+00  9.000E+00
       2    -1     0     0   514     0  0.000000000E+00  0.000000000E+00 -3.770859748E+02  3.770859748E+02  0.000000000E+00  0.00000E+00  9.000E+00
      21     1     1     2   512   511  1.330502837E+01  8.249932008E+00  1.101469805E+01  1.914180585E+01  6.419616708E-07  0.00000E+00  9.000E+00
       2     1     1     2   513     0 -7.200819694E+00 -1.331117333E+01 -3.608258378E+02  3.611432310E+02  3.300000131E-01  0.00000E+00  9.000E+00
      21     1     1     2   514   512 -6.104208680E+00  5.061241320E+00 -1.073206078E+01  1.334371222E+01  1.192092896E-07  0.00000E+00  9.000E+00
</event>
<event>
      5  10001  2.40292E+09  3.73605E+00 -1.00000E+00  2.70543E-01
      21    -1     0     0   514   515  0.000000000E+00  0.000000000E+00  3.516007191E-01  3.516007191E-01  0.000000000E+00  0.00000E+00  9.000E+00
       2    -1     0     0   511     0  0.000000000E+00  0.000000000E+00 -9.246367770E+02  9.246367770E+02  0.000000000E+00  0.00000E+00  9.000E+00
      21     1     1     2   511   515  1.050829212E+01  2.500832823E+00 -9.583048418E+01  9.643733751E+01  0.000000000E+00  0.00000E+00  9.000E+00
      21     1     1     2   514   513 -9.429285194E+00  4.848565878E-01 -6.250258097E+02  6.250971199E+02  1.525878906E-05  0.00000E+00  9.000E+00
       2     1     1     2   513     0 -1.079006928E+00 -2.985689411E+00 -2.034288824E+02  2.034539203E+02  3.300000131E-01  0.00000E+00  9.000E+00
</event>
<event>
      5  10001  2.40292E+09  1.37286E+01 -1.00000E+00  1.81036E-01
       1    -1     0     0   512     0  0.000000000E+00  0.000000000E+00  5.441308740E+02  5.441308740E+02  0.000000000E+00  0.00000E+00  9.000E+00
      21    -1     0     0   516   512  0.000000000E+00  0.000000000E+00 -2.471323984E+01  2.471323984E+01  0.000000000E+00  0.00000E+00  9.000E+00
      21     1     1     2   517   511  2.136322289E+01 -7.510250749E+00  3.168365891E+01  3.894413179E+01  4.768371582E-07  0.00000E+00  9.000E+00
      21     1     1     2   516   517 -7.638579007E+00  7.180748447E+00 -1.968102520E+01  2.229918812E+01  2.384185791E-07  0.00000E+00  9.000E+00
       1     1     1     2   511     0 -1.372464389E+01  3.295023021E-01  5.074150004E+02  5.076007939E+02  3.300000131E-01  0.00000E+00  9.000E+00
</event>
<event>
      5  10001  2.40292E+09  1.63374E+01 -1.00000E+00  1.73913E-01
      21    -1     0     0   513   516  0.000000000E+00  0.000000000E+00  1.165128186E+01  1.165128186E+01  0.000000000E+00  0.00000E+00  9.000E+00
      21    -1     0     0   514   513  0.000000000E+00  0.000000000E+00 -6.981420407E+01  6.981420407E+01  0.000000000E+00  0.00000E+00  9.000E+00
      21     1     1     2   515   516 -1.467564938E+01  5.078658706E-01  4.946331507E+00  1.549512207E+01  2.980232239E-07  0.00000E+00  9.000E+00
      21     1     1     2   514   512  9.920442355E+00  3.387831347E-01 -1.760540259E+01  2.021089189E+01  2.384185791E-07  0.00000E+00  9.000E+00
      21     1     1     2   512   515  4.755207028E+00 -8.466490053E-01 -4.550385112E+01  4.575947198E+01  0.000000000E+00  0.00000E+00  9.000E+00
</event>
<event>
      5  10001  2.40292E+09  7.61593E+00 -1.00000E+00  2.10436E-01
       2    -1     0     0   513     0  0.000000000E+00  0.000000000E+00  4.938055796E+02  4.938055796E+02  0.000000000E+00  0.00000E+00  9.000E+00
      21    -1     0     0   512   514  0.000000000E+00  0.000000000E+00 -2.119436933E+00  2.119436933E+00  0.000000000E+00  0.00000E+00  9.000E+00
      21     1     1     2   512   511 -6.712468520E+00 -3.384370464E+00  8.818666974E+00  1.158792839E+01  1.899883443E-06  0.00000E+00  9.000E+00
       2     1     1     2   511     0  1.155173247E+01  9.264917218E+00  4.599285064E+02  4.601669491E+02  3.300000131E-01  0.00000E+00  9.000E+00
      21     1     1     2   513   514 -4.839263947E+00 -5.880546754E+00  2.293896930E+01  2.417013898E+01  5.840038640E-07  0.00000E+00  9.000E+00
</event>
<event>
      5  10001  2.40292E+09  7.60169E+00 -1.00000E+00  2.10545E-01
       3    -1     0     0   511     0  0.000000000E+00  0.000000000E+00  9.246495085E+01  9.246495085E+01  0.000000000E+00  0.00000E+00  9.000E+00
      21    -1     0     0   513   512  0.000000000E+00  0.000000000E+00 -2.465446638E+01  2.465446638E+01  0.000000000E+00  0.00000E+00  9.000E+00
      21     1     1     2   511   514 -1.424711996E+01 -8.920745168E+00 -1.754765291E+01  2.429979926E+01  7.152557373E-07  0.00000E+00  9.000E+00
       3     1     1     2   513     0  6.736271829E+00  7.750481179E+00  8.455286932E+01  8.517561286E+01  5.000000000E-01  0.00000E+00  9.000E+00
      21     1     1     2   514   512  7.510848129E+00  1.170263989E+00  8.052680664E-01  7.644005107E+00  8.296615426E-08  0.00000E+00  9.000E+00
</event>
<event>
      5  10001  2.40292E+09  1.26445E+01 -1.00000E+00  1.84619E-01
      21    -1     0     0   515   513  0.000000000E+00  0.000000000E+00  3.656947726E+00  3.656947726E+00  0.000000000E+00  0.00000E+00  9.000E+00
       1    -1     0     0   514     0  0.000000000E+00  0.000000000E+00 -1.175828734E+02  1.175828734E+02  0.000000000E+00  0.00000E+00  9.000E+00
      21     1     1     2   514   511 -3.220303373E+00  1.009092142E+00  1.271485010E+00  3.606285470E+00  2.430305843E-07  0.00000E+00  9.000E+00
       1     1     1     2   515     0  3.546812275E+00 -1.053107741E+01 -9.019082441E+01  9.087341292E+01  3.300000131E-01  0.00000E+00  9.000E+00
      21     1     1     2   511   513 -3.265089021E-01  9.521985266E+00 -2.500658625E+01  2.676012271E+01  4.768371582E-07  0.00000E+00  9.000E+00
</event>
<event>
      5  10001  2.40292E+09  7.77505E+00 -1.00000E+00  2.09236E-01
       2    -1     0     0   511     0  0.000000000E+00  0.000000000E+00  2.313818520E+02  2.313818520E+02  0.000000000E+00  0.00000E+00  9.000E+00
      21    -1     0     0   512   515  0.000000000E+00  0.000000000E+00 -1.467395939E+02  1.467395939E+02  0.000000000E+00  0.00000E+00  9.000E+00
      21     1     1     2   511   515 -9.481396760E+00  4.236279542E+00 -1.440633979E+02  1.444372028E+02  3.303624740E-06  0.00000E+00  9.000E+00
       2     1     1     2   514     0  6.003083860E+00 -7.969371678E-01  2.287122452E+02  2.287926401E+02  3.300000131E-01  0.00000E+00  9.000E+00
      21     1     1     2   512   514  3.478312900E+00 -3.439342374E+00 -6.589279745E-03  4.891603011E+00  6.441976240E-08  0.00000E+00  9.000E+00
</event>
<event>
      5  10001  2.40292E+09  4.73759E+00 -1.00000E+00  2.47180E-01
      21    -1     0     0   513   511  0.000000000E+00  0.000000000E+00  7.576950103E+01  7.576950103E+01  0.000000000E+00  0.00000E+00  9.000E+00
      21    -1     0     0   512   516  0.000000000E+00  0.000000000E+00 -3.344620002E+01  3.344620002E+01  0.000000000E+00  0.00000E+00  9.000E+00
      21     1     1     2   513   516 -8.972955765E+00 -6.726839968E+00 -7.428389354E+00  1.345159022E+01  2.230201594E-07  0.00000E+00  9.000E+00
      21     1     1     2   512   514  1.262391353E+01  3.707689429E+00 -2.103941433E+01  2.481465512E+01  4.768371582E-07  0.00000E+00  9.000E+00
      21     1     1     2   514   511 -3.650957769E+00  3.019150539E+00  7.079110469E+01  7.094945571E+01  9.536743164E-07  0.00000E+00  9.000E+00
</event>
<event>
      5  10001  2.40292E+09  6.17860E+00 -1.00000E+00  2.23434E-01
      21    -1     0     0   515   512  0.000000000E+00  0.000000000E+00  1.165839836E+00  1.165839836E+00  0.000000000E+00  0.00000E+00  9.000E+00
      21    -1     0     0   517   511  0.000000000E+00  0.000000000E+00 -2.579568433E+02  2.579568433E+02  0.000000000E+00  0.00000E+00  9.000E+00
      21     1     1     2   515   511 -8.647177765E+00  1.388129076E+01 -1.255720138E+02  1.266325178E+02  1.907348633E-06  0.00000E+00  9.000E+00
      21     1     1     2   513   512  8.462690221E+00 -7.634612681E+00 -6.644953121E+01  6.741991275E+01  1.348699152E-06  0.00000E+00  9.000E+00
      21     1     1     2   517   513  1.844875446E-01 -6.246678081E+00 -6.476945839E+01  6.507025252E+01  1.348699152E-06  0.00000E+00  9.000E+00
</event>
<event>
      5  10001  2.40292E+09  5.72609E+00 -1.00000E+00  2.28589E-01
      21    -1     0     0   514   511  0.000000000E+00  0.000000000E+00  1.234615433E+02  1.234615433E+02  0.000000000E+00  0.00000E+00  9.000E+00
      21    -1     0     0   512   516  0.000000000E+00  0.000000000E+00 -3.652733319E+01  3.652733319E+01  0.000000000E+00  0.00000E+00  9.000E+00
      21     1     1     2   514   516  1.021943202E+01 -2.392566450E+00  7.981466923E-01  1.052607254E+01  4.552786385E-07  0.00000E+00  9.000E+00
      21     1     1     2   517   511 -1.521450807E+01 -4.069555839E-01  1.170437483E+02  1.180291739E+02  1.907348633E-06  0.00000E+00  9.000E+00
      21     1     1     2   512   517  4.995076053E+00  2.799522034E+00 -3.090768494E+01  3.143363003E+01  4.768371582E-07  0.00000E+00  9.000E+00
</event>
<event>
      5  10001  2.40292E+09  4.46323E+00 -1.00000E+00  2.52640E-01
       1    -1     0     0   513     0  0.000000000E+00  0.000000000E+00  7.743320604E+02  7.743320604E+02  0.000000000E+00  0.00000E+00  9.000E+00
      -2    -1     0     0     0   513  0.000000000E+00  0.000000000E+00 -1.570681414E+01  1.570681414E+01  0.000000000E+00  0.00000E+00  9.000E+00
      -2     1     1     2     0   511  3.091768493E+00  1.504888519E+01 -1.180423512E+01  1.937722489E+01  3.300000131E-01  0.00000E+00  9.000E+00
       1     1     1     2   514     0 -1.613445776E+00 -9.358318940E+00  6.653250930E+02  6.653929438E+02  3.300000131E-01  0.00000E+00  9.000E+00
      21     1     1     2   511   514 -1.478322717E+00 -5.690566251E+00  1.051043883E+02  1.052687058E+02  1.348699152E-06  0.00000E+00  9.000E+00
</event>
<event>
      5  10001  2.40292E+09  1.39940E+01 -1.00000E+00  1.80223E-01
      21    -1     0     0   512   515  0.000000000E+00  0.000000000E+00  1.066870580E+02  1.066870580E+02  0.000000000E+00  0.00000E+00  9.000E+00
      -2    -1     0     0     0   512  0.000000000E+00  0.000000000E+00 -1.352424437E+02  1.352424437E+02  0.000000000E+00  0.00000E+00  9.000E+00
      -2     1     1     2     0   513  4.270114584E+00  1.576474952E+01 -1.338244736E+02  1.348178765E+02  3.300000131E-01  0.00000E+00  9.000E+00
      21     1     1     2   513   516 -1.683238680E+00 -1.150538743E+01  4.008837902E+01  4.174069195E+01  6.743495762E-07  0.00000E+00  9.000E+00
      21     1     1     2   516   515 -2.586875904E+00 -4.259362091E+00  6.518070893E+01  6.537093321E+01  9.536743164E-07  0.00000E+00  9.000E+00
</event>
<event>
      5  10001  2.40292E+09  8.03610E+00 -1.00000E+00  2.07349E-01
      21    -1     0     0   512   513  0.000000000E+00  0.000000000E+00  1.946238361E+02  1.946238361E+02  0.000000000E+00  0.00000E+00  9.000E+00
      21    -1     0     0   515   514  0.000000000E+00  0.000000000E+00 -1.839067892E+02  1.839067892E+02  0.000000000E+00  0.00000E+00  9.000E+00
      21     1     1     2   511   514 -1.228791828E+01 -5.758334997E+00 -1.826322040E+02  1.831356691E+02  2.697398305E-06  0.00000E+00  9.000E+00
      21     1     1     2   515   513  5.103842417E+00  9.359443025E+00  2.981864396E+01  3.166701611E+01  7.539457465E-07  0.00000E+00  9.000E+00
      21     1     1     2   512   511  7.184075866E+00 -3.601108028E+00  1.635306070E+02  1.637279401E+02  1.907348633E-06  0.00000E+00  9.000E+00
</event>
<event>
      5  10001  2.40292E+09  5.38003E+00 -1.00000E+00  2.33005E-01
      21    -1     0     0   516   514  0.000000000E+00  0.000000000E+00  2.105814572E+00  2.105814572E+00  0.000000000E+00  0.00000E+00  9.000E+00
       2    -1     0     0   517     0  0.000000000E+00  0.000000000E+00 -1.013317870E+03  1.013317870E+03  0.000000000E+00  0.00000E+00  9.000E+00
      21     1     1     2   516   511 -1.502233670E+01  1.168905227E+01 -1.785008316E+02  1.795128169E+02  3.303624740E-06  0.00000E+00  9.000E+00
      21     1     1     2   517   514  1.545814069E+01 -6.326794919E+00 -4.225706248E+01  4.543832939E+01  1.719260824E-06  0.00000E+00  9.000E+00
       2     1     1     2   511     0 -4.358039906E-01 -5.362257349E+00 -7.904541609E+02  7.904725379E+02  3.300000131E-01  0.00000E+00  9.000E+00
</event>
<event>
      5  10001  2.40292E+09  2.01170E+01 -1.00000E+00  1.66119E-01
      21    -1     0     0   512   515  0.000000000E+00  0.000000000E+00  4.440360574E+00  4.440360574E+00  0.000000000E+00  0.00000E+00  9.000E+00
      21    -1     0     0   511   513  0.000000000E+00  0.000000000E+00 -5.669253405E+01  5.669253405E+01  0.000000000E+00  0.00000E+00  9.000E+00
      21     1     1     2   512   513 -2.079507610E+00 -4.727812641E+00 -1.839473096E+01  1.910609042E+01  4.129530925E-07  0.00000E+00  9.000E+00
      21     1     1     2   514   515  6.393698097E+00  3.331776738E+00  6.349555390E-01  7.237629455E+00  1.855179608E-07  0.00000E+00  9.000E+00
      21     1     1     2   511   514 -4.314190487E+00  1.396035903E+00 -3.449239806E+01  3.478917475E+01  0.000000000E+00  0.00000E+00  9.000E+00
</event>
<event>
      5  10001  2.40292E+09  5.00251E+00 -1.00000E+00  2.38390E-01
       2    -1     0     0   516     0  0.000000000E+00  0.000000000E+00  1.459839713E+03  1.459839713E+03  0.000000000E+00  0.00000E+00  9.000E+00
      21    -1     0     0   511   516  0.000000000E+00  0.000000000E+00 -1.323007244E+01  1.323007244E+01  0.000000000E+00  0.00000E+00  9.000E+00
      21     1     1     2   511   517  2.726490220E+00  1.332672575E+01 -7.257007028E+00  1.541750690E+01  2.384185791E-07  0.00000E+00  9.000E+00
      21     1     1     2   517   513 -6.952060928E+00 -1.064911446E+01  1.952278824E+01  2.329965774E+01  2.384185791E-07  0.00000E+00  9.000E+00
       2     1     1     2   513     0  4.225570708E+00 -2.677611289E+00  1.434343860E+03  1.434352621E+03  3.300000131E-01  0.00000E+00  9.000E+00
</event>
<event>
      5  10001  2.40292E+09  4.80197E+00 -1.00000E+00  2.45978E-01
      21    -1     0     0   511   513  0.000000000E+00  0.000000000E+00  2.799173039E+01  2.799173039E+01  0.000000000E+00  0.00000E+00  9.000E+00
       3    -1     0     0   514     0  0.000000000E+00  0.000000000E+00 -4.683979670E+01  4.683979670E+01  0.000000000E+00  0.00000E+00  9.000E+00
      21     1     1     2   514   513  7.467124804E-01 -8.544447463E+00  2.306569815E+01  2.460877066E+01  0.000000000E+00  0.00000E+00  9.000E+00
       3     1     1     2   512     0  3.263652001E-01  1.322474590E+01 -4.325644657E+01  4.523682779E+01  5.000000000E-01  0.00000E+00  9.000E+00
      21     1     1     2   511   512 -1.073077681E+00 -4.680298437E+00  1.342682112E+00  4.985928642E+00  9.657056180E-08  0.00000E+00  9.000E+00
</event>
<event>
      5  10001  2.40292E+09  1.89571E+01 -1.00000E+00  1.68269E-01
      21    -1     0     0   515   512  0.000000000E+00  0.000000000E+00  3.055144809E+00  3.055144809E+00  0.000000000E+00  0.00000E+00  9.000E+00
      21    -1     0     0   513   516  0.000000000E+00  0.000000000E+00 -2.937620439E+02  2.937620439E+02  0.000000000E+00  0.00000E+00  9.000E+00
      21     1     1     2   515   516 -6.095921891E+00 -5.400629170E+00 -2.213480549E+02  2.214978294E+02  0.000000000E+00  0.00000E+00  9.000E+00
      21     1     1     2   514   512 -4.401908009E+00  2.082382010E+00  2.202506227E-01  4.874589141E+00  6.404032989E-07  0.00000E+00  9.000E+00
      21     1     1     2   513   514  1.049782990E+01  3.318247160E+00 -6.957909488E+01  7.044477015E+01  9.536743164E-07  0.00000E+00  9.000E+00
</event>
<event>
      5  10001  2.40292E+09  5.71045E+00 -1.00000E+00  2.28779E-01
      21    -1     0     0   516   511  0.000000000E+00  0.000000000E+00  8.900436494E+01  8.900436494E+01  0.000000000E+00  0.00000E+00  9.000E+00
      21    -1     0     0   511   515  0.000000000E+00  0.000000000E+00 -1.201075854E+02  1.201075854E+02  0.000000000E+00  0.00000E+00  9.000E+00
      -3     1     1     2     0   512 -1.451029550E+01 -1.519685827E+00  4.714205383E+00  1.534052974E+01  5.000000000E-01  0.00000E+00  9.000E+00
      21     1     1     2   512   515  9.175414269E+00 -5.163584850E-01 -1.145060803E+02  1.148742673E+02  0.000000000E+00  0.00000E+00  9.000E+00
       3     1     1     2   516     0  5.334881227E+00  2.036044312E+00  7.868865456E+01  7.889715324E+01  5.000000000E-01  0.00000E+00  9.000E+00
</event>
<event>
      5  10001  2.40292E+09  7.17380E+00 -1.00000E+00  2.13989E-01
      21    -1     0     0   513   514  0.000000000E+00  0.000000000E+00  1.175620245E+01  1.175620245E+01  0.000000000E+00  0.00000E+00  9.000E+00
       1    -1     0     0   512     0  0.000000000E+00  0.000000000E+00 -7.965702148E+02  7.965702148E+02  0.000000000E+00  0.00000E+00  9.000E+00
      21     1     1     2   512   511 -1.051293596E+01 -9.218706213E+00 -2.831713769E+00  1.426621778E+01  9.830249847E-07  0.00000E+00  9.000E+00
       1     1     1     2   513     0  7.999167636E+00  2.499771820E+00 -7.858604818E+02  7.859052369E+02  3.300000131E-01  0.00000E+00  9.000E+00
      21     1     1     2   511   514  2.513768328E+00  6.718934393E+00  3.878183205E+00  8.154962634E+00  4.400260168E-07  0.00000E+00  9.000E+00
</event>
<event>
      5  10001  2.40292E+09  7.99880E+00 -1.00000E+00  2.07613E-01
      -1    -1     0     0     0   514  0.000000000E+00  0.000000000E+00  3.345870753E+02  3.345870753E+02  0.000000000E+00  0.00000E+00  9.000E+00
      21    -1     0     0   512   513  0.000000000E+00  0.000000000E+00 -7.871859287E+00  7.871859287E+00  0.000000000E+00  0.00000E+00  9.000E+00
      -1     1     1     2     0   513 -6.160646261E+00 -1.283879447E+01  2.810014044E+02  2.813621979E+02  3.300000131E-01  0.00000E+00  9.000E+00
      21     1     1     2   515   514  1.134153476E+01  1.893286140E+01  4.795513231E+01  5.278994570E+01  9.536743164E-07  0.00000E+00  9.000E+00
      21     1     1     2   512   515 -5.180888501E+00 -6.094066938E+00 -2.241320762E+00  8.306790973E+00  5.179091453E-07  0.00000E+00  9.000E+00
</event>
<event>
      5  10001  2.40292E+09  1.12826E+01 -1.00000E+00  1.89833E-01
       3    -1     0     0   513     0  0.000000000E+00  0.000000000E+00  6.294346380E+00  6.294346380E+00  0.000000000E+00  0.00000E+00  9.000E+00
      21    -1     0     0   515   513  0.000000000E+00  0.000000000E+00 -5.822456608E+01  5.822456608E+01  0.000000000E+00  0.00000E+00  9.000E+00
      21     1     1     2   515   511 -1.446553909E+01  4.687574331E+00 -4.208272346E+01  4.474573486E+01  4.768371582E-07  0.00000E+00  9.000E+00
       3     1     1     2   514     0  2.075931361E+00 -3.152774136E+00  1.019343466E-01  3.809181852E+00  5.000000000E-01  0.00000E+00  9.000E+00
      21     1     1     2   511   514  1.238960773E+01 -1.534800195E+00 -9.949430582E+00  1.596399575E+01  3.371747881E-07  0.00000E+00  9.000E+00
</event>
<event>
      5  10001  2.40292E+09  6.10631E+00 -1.00000E+00  2.24216E-01
       4    -1     0     0   511     0  0.000000000E+00  0.000000000E+00  2.991080135E+00  2.991080135E+00  0.000000000E+00  0.00000E+00  9.000E+00
       1    -1     0     0   512     0  0.000000000E+00  0.000000000E+00 -1.054935166E+03  1.054935166E+03  0.000000000E+00  0.00000E+00  9.000E+00
       1     1     1     2   513     0  6.852552079E-01  5.562519731E+00 -9.195643892E+02  9.195815276E+02  3.300000131E-01  0.00000E+00  9.000E+00
       4     1     1     2   512     0  1.110016981E+00 -1.150927333E+01 -8.796775993E+00  1.460577893E+01  1.500000000E+00  0.00000E+00  9.000E+00
      21     1     1     2   511   513 -1.795272189E+00  5.946753603E+00 -1.235829207E+02  1.237389396E+02  1.348699152E-06  0.00000E+00  9.000E+00
</event>
<event>
      5  10001  2.40292E+09  3.46341E+00 -1.00000E+00  2.79015E-01
       1    -1     0     0   512     0  0.000000000E+00  0.000000000E+00  3.905912669E+02  3.905912669E+02  0.000000000E+00  0.00000E+00  9.000E+00
      21    -1     0     0   511   515  0.000000000E+00  0.000000000E+00 -5.935505753E+01  5.935505753E+01  0.000000000E+00  0.00000E+00  9.000E+00
      21     1     1     2   512   514 -9.118538503E+00 -8.754398680E+00  3.030432968E+02  3.033068199E+02  6.607249480E-06  0.00000E+00  9.000E+00
       1     1     1     2   511     0  8.194525825E+00  5.416542524E+00  8.708891618E+01  8.764175608E+01  3.300000131E-01  0.00000E+00  9.000E+00
      21     1     1     2   514   515  9.240126785E-01  3.337856156E+00 -5.889600362E+01  5.899774848E+01  2.023048729E-06  0.00000E+00  9.000E+00
</event>
<event>
      5  10001  2.40292E+09  1.24100E+01 -1.00000E+00  1.85455E-01
      21    -1     0     0   513   515  0.000000000E+00  0.000000000E+00  9.066664009E+00  9.066664009E+00  0.000000000E+00  0.00000E+00  9.000E+00
      21    -1     0     0   516   513  0.000000000E+00  0.000000000E+00 -2.471399576E+01  2.471399576E+01  0.000000000E+00  0.00000E+00  9.000E+00
      21     1     1     2   511   515 -1.021082524E+01 -2.151321833E+00 -1.380318545E+00  1.052589269E+01  2.673917777E-07  0.00000E+00  9.000E+00
      21     1     1     2   512   511  5.727163826E+00  8.109697719E+00 -1.175389874E+01  1.538576414E+01  1.685873940E-07  0.00000E+00  9.000E+00
      21     1     1     2   516   512  4.483661413E+00 -5.958375886E+00 -2.513114462E+00  7.869002933E+00  1.908279728E-07  0.00000E+00  9.000E+00
</event>
<event>
      5  10001  2.40292E+09  1.04978E+01 -1.00000E+00  1.93293E-01
      21    -1     0     0   511   512  0.000000000E+00  0.000000000E+00  9.624616692E+00  9.624616692E+00  0.000000000E+00  0.00000E+00  9.000E+00
      21    -1     0     0   514   513  0.000000000E+00  0.000000000E+00 -4.745619208E+02  4.745619208E+02  0.000000000E+00  0.00000E+00  9.000E+00
      -2     1     1     2     0   513  1.168037625E+01 -4.311375323E+00 -1.020385907E+01  1.610114239E+01  3.300000131E-01  0.00000E+00  9.000E+00
       2     1     1     2   511     0 -5.861127952E+00  1.304833157E+01 -1.121445734E+00  1.435194475E+01  3.300000131E-01  0.00000E+00  9.000E+00
      21     1     1     2   514   512 -5.819248294E+00 -8.736956244E+00 -4.536119993E+02  4.537334504E+02  0.000000000E+00  0.00000E+00  9.000E+00
</event>
<event>
      5  10001  2.40292E+09  1.31472E+01 -1.00000E+00  1.82903E-01
      21    -1     0     0   515   513  0.000000000E+00  0.000000000E+00  1.136319907E+02  1.136319907E+02  0.000000000E+00  0.00000E+00  9.000E+00
      21    -1     0     0   514   512  0.000000000E+00  0.000000000E+00 -3.048271161E+01  3.048271161E+01  0.000000000E+00  0.00000E+00  9.000E+00
      21     1     1     2   515   512  1.599106846E+01 -2.452803425E+00  1.074171453E+02  1.086286041E+02  1.907348633E-06  0.00000E+00  9.000E+00
      21     1     1     2   511   513 -4.590060676E+00 -3.527110661E+00 -2.156882943E+01  2.233211969E+01  9.830249847E-07  0.00000E+00  9.000E+00
      21     1     1     2   514   511 -1.140100778E+01  5.979914086E+00 -2.699036825E+00  1.315397851E+01  3.625608999E-07  0.00000E+00  9.000E+00
</event>
<event>
      5  10001  2.40292E+09  1.14321E+01 -1.00000E+00  1.89215E-01
      21    -1     0     0   516   511  0.000000000E+00  0.000000000E+00  1.096421388E+02  1.096421388E+02  0.000000000E+00  0.00000E+00  9.000E+00
      21    -1     0     0   514   516  0.000000000E+00  0.000000000E+00 -1.213086266E+02  1.213086266E+02  0.000000000E+00  0.00000E+00  9.000E+00
      21     1     1     2   514   517 -1.059223650E+01 -5.552699510E+00 -1.179752241E+02  1.185798527E+02  1.907348633E-06  0.00000E+00  9.000E+00
      21     1     1     2   517   512  1.709324023E+01 -8.692136459E-01  9.953565155E+01  1.009964372E+02  0.000000000E+00  0.00000E+00  9.000E+00
      21     1     1     2   512   511 -6.501003725E+00  6.421913156E+00  6.773084800E+00  1.137447562E+01  8.429369702E-08  0.00000E+00  9.000E+00
</event>
<event>
      5  10001  2.40292E+09  3.71562E+00 -1.00000E+00  2.71137E-01
      21    -1     0     0   513   515  0.000000000E+00  0.000000000E+00  1.079870546E+02  1.079870546E+02  0.000000000E+00  0.00000E+00  9.000E+00
      21    -1     0     0   514   511  0.000000000E+00  0.000000000E+00 -1.001258082E+01  1.001258082E+01  0.000000000E+00  0.00000E+00  9.000E+00
      21     1     1     2   513   511  2.675538667E+00 -1.208955850E+01 -5.601404240E+00  1.359013103E+01  3.264680848E-07  0.00000E+00  9.000E+00
      21     1     1     2   516   515 -3.759116859E+00  6.817843844E+00  6.137128277E+01  6.186314172E+01  6.743495762E-07  0.00000E+00  9.000E+00
      21     1     1     2   514   516  1.083578191E+00  5.271714656E+00  4.220459528E+01  4.254636271E+01  0.000000000E+00  0.00000E+00  9.000E+00
</event>
<event>
      5  10001  2.40292E+09  8.00496E+00 -1.00000E+00  2.07569E-01
      21    -1     0     0   512   511  0.000000000E+00  0.000000000E+00  4.849513760E+01  4.849513760E+01  0.000000000E+00  0.00000E+00  9.000E+00
      21    -1     0     0   514   517  0.000000000E+00  0.000000000E+00 -5.672804026E+00  5.672804026E+00  0.000000000E+00  0.00000E+00  9.000E+00
      21     1     1     2   512   517 -1.325617557E+01  4.630018673E+00  8.125529975E+00  1.622305462E+01  2.064765462E-07  0.00000E+00  9.000E+00
      21     1     1     2   513   511  4.869711680E+00 -4.134135110E+00  1.007627812E+01  1.193048808E+01  2.665600750E-07  0.00000E+00  9.000E+00
      21     1     1     2   514   513  8.386463890E+00 -4.958835635E-01  2.462052548E+01  2.601439894E+01  3.371747881E-07  0.00000E+00  9.000E+00
</event>
<event>
      5  10001  2.40292E+09  7.97079E+00 -1.00000E+00  2.07812E-01
      21    -1     0     0   515   512  0.000000000E+00  0.000000000E+00  1.020684735E+02  1.020684735E+02  0.000000000E+00  0.00000E+00  9.000E+00
      21    -1     0     0   514   515  0.000000000E+00  0.000000000E+00 -3.865376274E+01  3.865376274E+01  0.000000000E+00  0.00000E+00  9.000E+00
      21     1     1     2   513   511 -1.344592048E+01 -1.145173404E+01  1.494828822E+01  2.313841634E+01  5.591411304E-07  0.00000E+00  9.000E+00
      21     1     1     2   514   513  7.110893783E+00  6.614282587E+00 -3.367969614E+01  3.505189691E+01  6.743495762E-07  0.00000E+00  9.000E+00
      21     1     1     2   511   512  6.335026699E+00  4.837451456E+00  8.214611867E+01  8.253192299E+01  9.536743164E-07  0.00000E+00  9.000E+00
</event>
<event>
      5  10001  2.40292E+09  5.20491E+00 -1.00000E+00  2.35422E-01
      21    -1     0     0   516   513  0.000000000E+00  0.000000000E+00  1.291577488E+01  1.291577488E+01  0.000000000E+00  0.00000E+00  9.000E+00
      21    -1     0     0   511   512  0.000000000E+00  0.000000000E+00 -4.322036851E+01  4.322036851E+01  0.000000000E+00  0.00000E+00  9.000E+00
      21     1     1     2   516   512 -8.095696377E+00 -2.823688051E+00 -1.513112939E+01  1.739150915E+01  5.331201500E-07  0.00000E+00  9.000E+00
      21     1     1     2   511   514  1.275349407E+01  5.007479498E-01 -2.474879468E+01  2.784609842E+01  5.840038640E-07  0.00000E+00  9.000E+00
      21     1     1     2   514   513 -4.657797689E+00  2.322940101E+00  9.575330434E+00  1.089853582E+01  0.000000000E+00  0.00000E+00  9.000E+00
</event>
<event>
      5  10001  2.40292E+09  1.28084E+01 -1.00000E+00  1.84048E-01
      21    -1     0     0   515   511  0.000000000E+00  0.000000000E+00  1.279036242E+01  1.279036242E+01  0.000000000E+00  0.00000E+00  9.000E+00
      21    -1     0     0   517   513  0.000000000E+00  0.000000000E+00 -3.036363021E+01  3.036363021E+01  0.000000000E+00  0.00000E+00  9.000E+00
      21     1     1     2   515   513  1.037876884E+01  1.030846469E+00 -2.667028390E+01  2.863713551E+01  5.840038640E-07  0.00000E+00  9.000E+00
      21     1     1     2   512   511 -1.110802785E+00 -1.330542873E+00  3.474699737E-01  1.767756359E+00  4.828528090E-08  0.00000E+00  9.000E+00
      21     1     1     2   517   512 -9.267966057E+00  2.996964042E-01  8.749546136E+00  1.274910077E+01  1.192092896E-07  0.00000E+00  9.000E+00
</event>
<event>
      5  10001  2.40292E+09  9.05941E+00 -1.00000E+00  2.00789E-01
      21    -1     0     0   514   512  0.000000000E+00  0.000000000E+00  1.800141426E+02  1.800141426E+02  0.000000000E+00  0.00000E+00  9.000E+00
      21    -1     0     0   517   516  0.000000000E+00  0.000000000E+00 -1.028008940E+01  1.028008940E+01  0.000000000E+00  0.00000E+00  9.000E+00
      21     1     1     2   514   516 -1.536151743E+01 -2.229961812E+00 -3.729863897E+00  1.596436131E+01  7.805705579E-07  0.00000E+00  9.000E+00
      21     1     1     2   511   512  9.553135514E+00  2.795557157E+00  7.031907985E+01  7.102007131E+01  1.348699152E-06  0.00000E+00  9.000E+00
      21     1     1     2   517   511  5.808381911E+00 -5.655953448E-01  1.031448372E+02  1.033097994E+02  0.000000000E+00  0.00000E+00  9.000E+00
</event>
<event>
      5  10001  2.40292E+09  9.51312E+00 -1.00000E+00  1.98237E-01
      21    -1     0     0   513   511  0.000000000E+00  0.000000000E+00  5.781598632E+01  5.781598632E+01  0.000000000E+00  0.00000E+00  9.000E+00
      21    -1     0     0   515   513  0.000000000E+00  0.000000000E+00 -1.350361686E+01  1.350361686E+01  0.000000000E+00  0.00000E+00  9.000E+00
      21     1     1     2   515   517  8.990523512E+00 -6.195619550E+00 -8.253825975E+00  1.368725165E+01  4.616955931E-07  0.00000E+00  9.000E+00
      21     1     1     2   517   512 -6.362756860E+00  3.603133960E+00  5.335827595E+01  5.385696669E+01  1.168007728E-06  0.00000E+00  9.000E+00
      21     1     1     2   512   511 -2.627766652E+00  2.592485591E+00 -7.920805118E-01  3.775384835E+00  1.058926463E-07  0.00000E+00  9.000E+00
</event>
<event>
      5  10001  2.40292E+09  8.48065E+00 -1.00000E+00  2.04348E-01
      21    -1     0     0   514   516  0.000000000E+00  0.000000000E+00  2.677818131E+01  2.677818131E+01  0.000000000E+00  0.00000E+00  9.000E+00
      21    -1     0     0   511   514  0.000000000E+00  0.000000000E+00 -1.029809431E+01  1.029809431E+01  0.000000000E+00  0.00000E+00  9.000E+00
      21     1     1     2   511   515  9.468256985E+00  1.138640289E+01  1.497692213E+01  2.106196234E+01  3.371747881E-07  0.00000E+00  9.000E+00
      21     1     1     2   513   516 -1.151740521E+00 -3.715474887E+00 -1.715456143E+00  4.251358564E+00  9.657056180E-08  0.00000E+00  9.000E+00
      21     1     1     2   515   513 -8.316516465E+00 -7.670928000E+00  3.218621018E+00  1.176295472E+01  1.976862425E-07  0.00000E+00  9.000E+00
</event>
<event>
      5  10001  2.40292E+09  1.02704E+01 -1.00000E+00  1.94370E-01
      21    -1     0     0   512   513  0.000000000E+00  0.000000000E+00  2.503029344E+01  2.503029344E+01  0.000000000E+00  0.00000E+00  9.000E+00
      21    -1     0     0   511   517  0.000000000E+00  0.000000000E+00 -1.214329865E+01  1.214329865E+01  0.000000000E+00  0.00000E+00  9.000E+00
      21     1     1     2   512   517 -2.523900112E+00  9.960650703E+00  2.041851353E+01  2.285826610E+01  2.384185791E-07  0.00000E+00  9.000E+00
      21     1     1     2   511   514 -1.252770210E+00 -4.467766740E+00 -5.666453136E-01  4.674554498E+00  5.161913656E-08  0.00000E+00  9.000E+00
      21     1     1     2   514   513  3.776670322E+00 -5.492883963E+00 -6.964873430E+00  9.640771486E+00  1.192092896E-07  0.00000E+00  9.000E+00
</event>
<event>
      5  10001  2.40292E+09  1.08348E+01 -1.00000E+00  1.91760E-01
      21    -1     0     0   511   512  0.000000000E+00  0.000000000E+00  3.241937440E+01  3.241937440E+01  0.000000000E+00  0.00000E+00  9.000E+00
       4    -1     0     0   513     0  0.000000000E+00  0.000000000E+00 -8.782662625E+02  8.782662625E+02  0.000000000E+00  0.00000E+00  9.000E+00
      21     1     1     2   511   514  2.727796768E+01 -8.828910195E+00 -1.155060020E+02  1.190112334E+02  3.568322551E-06  0.00000E+00  9.000E+00
       4     1     1     2   514     0 -1.727543094E+01  4.665267458E+00 -7.599413058E+02  7.601534341E+02  1.500000000E+00  0.00000E+00  9.000E+00
      21     1     1     2   513   512 -1.000253674E+01  4.163642737E+00  2.960041969E+01  3.152096934E+01  1.651812370E-06  0.00000E+00  9.000E+00
</event>
<event>
      5  10001  2.40292E+09  1.07611E+01 -1.00000E+00  1.92089E-01
      21    -1     0     0   515   514  0.000000000E+00  0.000000000E+00  3.042818758E+02  3.042818758E+02  0.000000000E+00  0.00000E+00  9.000E+00
      21    -1     0     0   512   515  0.000000000E+00  0.000000000E+00 -1.883401273E+01  1.883401273E+01  0.000000000E+00  0.00000E+00  9.000E+00
      21     1     1     2   512   513 -1.295350656E+01  7.787194564E-01 -1.572543749E+01  2.038845557E+01  1.488923549E-06  0.00000E+00  9.000E+00
      21     1     1     2   513   511  1.811929269E+01  5.045364228E+00  2.677356885E+02  2.683955353E+02  5.394796609E-06  0.00000E+00  9.000E+00
      21     1     1     2   511   514 -5.165786129E+00 -5.824083684E+00  3.343761208E+01  3.433189769E+01  4.768371582E-07  0.00000E+00  9.000E+00
</event>
<event>
      5  10001  2.40292E+09  9.78598E+00 -1.00000E+00  1.96791E-01
      21    -1     0     0   516   513  0.000000000E+00  0.000000000E+00  1.369082705E+02  1.369082705E+02  0.000000000E+00  0.00000E+00  9.000E+00
      21    -1     0     0   512   514  0.000000000E+00  0.000000000E+00 -1.246767669E+01  1.246767669E+01  0.000000000E+00  0.00000E+00  9.000E+00
      21     1     1     2   516   514 -1.122922171E+01 -8.725753075E+00 -6.338329912E+00  1.556947697E+01  3.371747881E-07  0.00000E+00  9.000E+00
      21     1     1     2   515   513  7.117053127E+00  5.062706163E+00  1.265806990E+02  1.268816645E+02  1.348699152E-06  0.00000E+00  9.000E+00
      21     1     1     2   512   515  4.112168587E+00  3.663046911E+00  4.198224788E+00  6.924805740E+00  1.032382731E-07  0.00000E+00  9.000E+00
</event>
<event>
      5  10001  2.40292E+09  9.91170E+00 -1.00000E+00  1.96145E-01
      21    -1     0     0   511   512  0.000000000E+00  0.000000000E+00  1.719737860E+00  1.719737860E+00  0.000000000E+00  0.00000E+00  9.000E+00
      -4    -1     0     0     0   511  0.000000000E+00  0.000000000E+00 -1.801012042E+02  1.801012042E+02  0.000000000E+00  0.00000E+00  9.000E+00
      -4     1     1     2     0   513  3.784498200E+00 -9.233326283E+00 -1.569168893E+02  1.572410153E+02  1.500000000E+00  0.00000E+00  9.000E+00
      21     1     1     2   513   514 -1.230539462E+00  5.068308841E+00 -1.758232304E+01  1.833957648E+01  4.129530925E-07  0.00000E+00  9.000E+00
      21     1     1     2   514   512 -2.553958739E+00  4.165017442E+00 -3.882253962E+00  6.240350259E+00  2.384185791E-07  0.00000E+00  9.000E+00
</event>
<event>
      5  10001  2.40292E+09  6.49910E+00 -1.00000E+00  2.20140E-01
      -3    -1     0     0     0   512  0.000000000E+00  0.000000000E+00  1.975095443E+02  1.975095443E+02  0.000000000E+00  0.00000E+00  9.000E+00
      21    -1     0     0   514   513  0.000000000E+00  0.000000000E+00 -3.721249704E+00  3.721249704E+00  0.000000000E+00  0.00000E+00  9.000E+00
      -3     1     1     2     0   511 -2.718553688E+00 -1.289776070E+01  6.940287627E+01  7.064525462E+01  5.000000000E-01  0.00000E+00  9.000E+00
      21     1     1     2   514   512  8.811303448E+00  1.515671536E+01  1.225993074E+02  1.238464988E+02  1.907348633E-06  0.00000E+00  9.000E+00
      21     1     1     2   511   513 -6.092749760E+00 -2.258954663E+00  1.786110918E+00  6.739040586E+00  2.138718977E-07  0.00000E+00  9.000E+00
</event>
<event>
      5  10001  2.40292E+09  5.59485E+00 -1.00000E+00  2.30211E-01
      21    -1     0     0   515   513  0.000000000E+00  0.000000000E+00  3.896995073E+01  3.896995073E+01  0.000000000E+00  0.00000E+00  9.000E+00
      21    -1     0     0   511   516  0.000000000E+00  0.000000000E+00 -1.604015972E+01  1.604015972E+01  0.000000000E+00  0.00000E+00  9.000E+00
      21     1     1     2   515   516  3.707370386E-01  1.366606021E+01  3.048359548E+01  3.340880484E+01  7.539457465E-07  0.00000E+00  9.000E+00
      21     1     1     2   512   513  2.851061992E+00 -1.410757425E+01 -1.000537185E+01  1.752882403E+01  2.064765462E-07  0.00000E+00  9.000E+00
      21     1     1     2   511   512 -3.221799031E+00  4.415140399E-01  2.451567378E+00  4.072481584E+00  2.980232239E-08  0.00000E+00  9.000E+00
</event>
<event>
      5  10001  2.40292E+09  7.25810E+00 -1.00000E+00  2.13285E-01
      21    -1     0     0   511   512  0.000000000E+00  0.000000000E+00  7.966683933E+01  7.966683933E+01  0.000000000E+00  0.00000E+00  9.000E+00
       2    -1     0     0   513     0  0.000000000E+00  0.000000000E+00 -3.850032206E+02  3.850032206E+02  0.000000000E+00  0.00000E+00  9.000E+00
      21     1     1     2   514   512 -6.100016676E+00 -2.316859683E+00  6.525685415E+01  6.558227699E+01  2.523185073E-06  0.00000E+00  9.000E+00
       2     1     1     2   511     0  1.459873624E+01  2.453767870E+00 -3.834170245E+02  3.837028376E+02  3.300000131E-01  0.00000E+00  9.000E+00
      21     1     1     2   513   514 -8.498719563E+00 -1.369081872E-01  1.282378901E+01  1.538494532E+01  2.384185791E-07  0.00000E+00  9.000E+00
</event>
<event>
      5  10001  2.40292E+09  9.83004E+00 -1.00000E+00  1.96563E-01
      21    -1     0     0   513   512  0.000000000E+00  0.000000000E+00  5.579246814E+02  5.579246814E+02  0.000000000E+00  0.00000E+00  9.000E+00
       2    -1     0     0   511     0  0.000000000E+00  0.000000000E+00 -1.919761084E+01  1.919761084E+01  0.000000000E+00  0.00000E+00  9.000E+00
      21     1     1     2   511   515  1.362374854E+01 -1.677594397E+00  6.975094412E+01  7.108878289E+01  1.907348633E-06  0.00000E+00  9.000E+00
       2     1     1     2   513     0 -1.282801808E+01 -8.120162126E+00 -1.535897742E+01  2.159866126E+01  3.300000131E-01  0.00000E+00  9.000E+00
      21     1     1     2   515   512 -7.957304525E-01  9.797756522E+00  4.843351038E+02  4.844348481E+02  5.394796609E-06  0.00000E+00  9.000E+00
</event>
<event>
      5  10001  2.40292E+09  1.07000E+01 -1.00000E+00  1.92364E-01
       1    -1     0     0   515     0  0.000000000E+00  0.000000000E+00  3.677727194E+02  3.677727194E+02  0.000000000E+00  0.00000E+00  9.000E+00
      21    -1     0     0   513   511  0.000000000E+00  0.000000000E+00 -9.585765478E+00  9.585765478E+00  0.000000000E+00  0.00000E+00  9.000E+00
      21     1     1     2   513   514 -1.027368021E+01  8.301111817E+00  1.331086972E+01  1.875196563E+01  6.307962682E-07  0.00000E+00  9.000E+00
       1     1     1     2   514     0  1.087698150E+01  2.381802829E+00  3.474279505E+02  3.476064893E+02  3.300000131E-01  0.00000E+00  9.000E+00
      21     1     1     2   515   511 -6.033012843E-01 -1.068291465E+01 -2.551866278E+00  1.100002997E+01  3.931196320E-07  0.00000E+00  9.000E+00
</event>
<event>
      5  10001  2.40292E+09  4.80552E+00 -1.00000E+00  2.45913E-01
      21    -1     0     0   516   513  0.000000000E+00  0.000000000E+00  6.060123768E+00  6.060123768E+00  0.000000000E+00  0.00000E+00  9.000E+00
       1    -1     0     0   513     0  0.000000000E+00  0.000000000E+00 -4.524986343E+02  4.524986343E+02  0.000000000E+00  0.00000E+00  9.000E+00
      21     1     1     2   514   512  3.175683186E+00 -3.312022888E+01 -5.124502687E+01  6.109899593E+01  2.132480600E-06  0.00000E+00  9.000E+00
       1     1     1     2   512     0 -2.802230945E+00  2.832929362E+01 -3.863286550E+02  3.873762253E+02  3.300000131E-01  0.00000E+00  9.000E+00
      21     1     1     2   516   514 -3.734522410E-01  4.790935268E+00 -8.864828648E+00  1.008353679E+01  2.384185791E-07  0.00000E+00  9.000E+00
</event>
<event>
      5  10001  2.40292E+09  5.04557E+00 -1.00000E+00  2.37742E-01
      21    -1     0     0   511   512  0.000000000E+00  0.000000000E+00  1.609049379E+02  1.609049379E+02  0.000000000E+00  0.00000E+00  9.000E+00
      21    -1     0     0   513   514  0.000000000E+00  0.000000000E+00 -2.049939691E+00  2.049939691E+00  0.000000000E+00  0.00000E+00  9.000E+00
      21     1     1     2   511   514  3.684680415E+00 -1.008987015E+01  1.462923497E+01  1.814929379E+01  2.384185791E-07  0.00000E+00  9.000E+00
      21     1     1     2   513   515 -5.543920728E+00  7.864013589E+00  9.263084391E+01  9.312921674E+01  0.000000000E+00  0.00000E+00  9.000E+00
      21     1     1     2   515   512  1.859240313E+00  2.225856558E+00  5.159491933E+01  5.167636706E+01  6.743495762E-07  0.00000E+00  9.000E+00
</event>
<event>
      5  10001  2.40292E+09  5.65329E+00 -1.00000E+00  2.29481E-01
      21    -1     0     0   515   512  0.000000000E+00  0.000000000E+00  6.186598916E+00  6.186598916E+00  0.000000000E+00  0.00000E+00  9.000E+00
      -3    -1     0     0     0   516  0.000000000E+00  0.000000000E+00 -6.572699392E+01  6.572699392E+01  0.000000000E+00  0.00000E+00  9.000E+00
      -3     1     1     2     0   511  6.962029191E+00  4.782128471E+00 -5.256877024E+00  9.961092270E+00  5.000000000E-01  0.00000E+00  9.000E+00
      21     1     1     2   515   516 -1.207997281E+01 -6.004453374E+00 -5.501071581E+01  5.664060432E+01  6.743495762E-07  0.00000E+00  9.000E+00
      21     1     1     2   511   512  5.117943622E+00  1.222324904E+00  7.271978279E-01  5.311896250E+00  1.893679057E-07  0.00000E+00  9.000E+00
</event>
<event>
      5  10001  2.40292E+09  1.30074E+01 -1.00000E+00  1.83370E-01
       1    -1     0     0   514     0  0.000000000E+00  0.000000000E+00  1.172635942E+00  1.172635942E+00  0.000000000E+00  0.00000E+00  9.000E+00
       1    -1     0     0   511     0  0.000000000E+00  0.000000000E+00 -6.003417731E+02  6.003417731E+02  0.000000000E+00  0.00000E+00  9.000E+00
       1     1     1     2   511     0 -1.149202737E+01  1.148099858E+01 -9.034691202E+01  9.179626045E+01  3.300000131E-01  0.00000E+00  9.000E+00
       1     1     1     2   513     0 -1.492264284E+00 -1.072870495E+01 -3.960767191E+02  3.962249466E+02  3.300000131E-01  0.00000E+00  9.000E+00
      21     1     1     2   514   513  1.298429165E+01 -7.522936287E-01 -1.127455061E+02  1.134932020E+02  1.348699152E-06  0.00000E+00  9.000E+00
</event>
<event>
      5  10001  2.40292E+09  1.01519E+01 -1.00000E+00  1.94946E-01
      21    -1     0     0   512   513  0.000000000E+00  0.000000000E+00  7.604033360E+01  7.604033360E+01  0.000000000E+00  0.00000E+00  9.000E+00
      21    -1     0     0   511   515  0.000000000E+00  0.000000000E+00 -7.808681118E+00  7.808681118E+00  0.000000000E+00  0.00000E+00  9.000E+00
      21     1     1     2   512   515  6.241838175E+00  1.341439097E+01  9.675260256E-01  1.482708789E+01  3.864259267E-07  0.00000E+00  9.000E+00
      21     1     1     2   511   516 -1.659986871E+00 -3.210865774E+00  9.090066986E+00  9.782358266E+00  1.685873940E-07  0.00000E+00  9.000E+00
      21     1     1     2   516   513 -4.581851304E+00 -1.020352519E+01  5.817405947E+01  5.923956856E+01  1.168007728E-06  0.00000E+00  9.000E+00
</event>
<event>
      5  10001  2.40292E+09  7.27912E+00 -1.00000E+00  2.13112E-01
      21    -1     0     0   514   511  0.000000000E+00  0.000000000E+00  7.357264353E+00  7.357264353E+00  0.000000000E+00  0.00000E+00  9.000E+00
      21    -1     0     0   517   513  0.000000000E+00  0.000000000E+00 -6.710495950E+01  6.710495950E+01  0.000000000E+00  0.00000E+00  9.000E+00
      21     1     1     2   514   513 -5.566454561E+00  1.159966943E+01  1.624780357E-01  1.286717321E+01  7.457562245E-08  0.00000E+00  9.000E+00
      21     1     1     2   517   512  2.850865746E+00 -7.324992352E+00 -2.228491533E+01  2.363049724E+01  4.129530925E-07  0.00000E+00  9.000E+00
      21     1     1     2   512   511  2.715588814E+00 -4.274677081E+00 -3.762525785E+01  3.796455340E+01  4.768371582E-07  0.00000E+00  9.000E+00
</event>
<event>
      5  10001  2.40292E+09  1.20688E+01 -1.00000E+00  1.86714E-01
      21    -1     0     0   513   511  0.000000000E+00  0.000000000E+00  1.342287066E+01  1.342287066E+01  0.000000000E+00  0.00000E+00  9.000E+00
       2    -1     0     0   515     0  0.000000000E+00  0.000000000E+00 -1.589645664E+02  1.589645664E+02  0.000000000E+00  0.00000E+00  9.000E+00
      21     1     1     2   515   511 -3.376479819E+01  5.314878341E-01 -1.110714401E+02  1.160913816E+02  1.907348633E-06  0.00000E+00  9.000E+00
       2     1     1     2   512     0  2.863217697E+01  1.039129894E+01 -3.159897499E+01  4.389060004E+01  3.300000131E-01  0.00000E+00  9.000E+00
      21     1     1     2   513   512  5.132621217E+00 -1.092278677E+01 -2.871280655E+00  1.240545541E+01  1.931411236E-07  0.00000E+00  9.000E+00
</event>
<event>
      5  10001  2.40292E+09  5.20137E+00 -1.00000E+00  2.35472E-01
       2    -1     0     0   514     0  0.000000000E+00  0.000000000E+00  1.545703946E+02  1.545703946E+02  0.000000000E+00  0.00000E+00  9.000E+00
      21    -1     0     0   513   511  0.000000000E+00  0.000000000E+00 -6.947049743E+00  6.947049743E+00  0.000000000E+00  0.00000E+00  9.000E+00
       2     1     1     2   513     0 -1.089554878E+01  2.559662328E+01  9.850173371E+01  1.023552664E+02  3.300000131E-01  0.00000E+00  9.000E+00
       2     1     1     2   514     0  6.622516689E+00 -2.263213300E+01  4.847976595E+01  5.391166644E+01  3.300000131E-01  0.00000E+00  9.000E+00
      -2     1     1     2     0   511  4.273032089E+00 -2.964490282E+00  6.418451486E-01  5.250511505E+00  3.300000131E-01  0.00000E+00  9.000E+00
</event>
<event>
      5  10001  2.40292E+09  4.46649E+00 -1.00000E+00  2.52571E-01
      21    -1     0     0   512   513  0.000000000E+00  0.000000000E+00  5.767929677E+01  5.767929677E+01  0.000000000E+00  0.00000E+00  9.000E+00
      21    -1     0     0   515   512  0.000000000E+00  0.000000000E+00 -1.672639375E+01  1.672639375E+01  0.000000000E+00  0.00000E+00  9.000E+00
      21     1     1     2   515   511  5.670034399E+00 -7.947174093E+00 -1.412683540E+01  1.717190568E+01  1.685873940E-07  0.00000E+00  9.000E+00
      21     1     1     2   514   513 -8.586870554E+00  6.324412233E+00  5.020897482E+01  5.132907255E+01  6.743495762E-07  0.00000E+00  9.000E+00
      21     1     1     2   511   514  2.916836155E+00  1.622761860E+00  4.870763600E+00  5.904712293E+00  1.032382731E-07  0.00000E+00  9.000E+00
</event>
<event>
      5  10001  2.40292E+09  1.53213E+01 -1.00000E+00  1.76474E-01
      -1    -1     0     0     0   516  0.000000000E+00  0.000000000E+00  5.426100171E+01  5.426100171E+01  0.000000000E+00  0.00000E+00  9.000E+00
      21    -1     0     0   513   512  0.000000000E+00  0.000000000E+00 -7.444537638E+00  7.444537638E+00  0.000000000E+00  0.00000E+00  9.000E+00
      21     1     1     2   515   512  6.804499171E+00  9.755308317E+00  4.789645858E+00  1.282216662E+01  8.429369702E-08  0.00000E+00  9.000E+00
      21     1     1     2   513   516 -1.472835239E+01 -4.311351598E+00  2.564551677E+01  2.988652953E+01  3.371747881E-07  0.00000E+00  9.000E+00
      -1     1     1     2     0   515  7.923853222E+00 -5.443956719E+00  1.638130144E+01  1.899684320E+01  3.300000131E-01  0.00000E+00  9.000E+00
</event>
<event>
      5  10001  2.40292E+09  5.85763E+00 -1.00000E+00  2.27024E-01
      21    -1     0     0   511   515  0.000000000E+00  0.000000000E+00  5.263686082E+01  5.263686082E+01  0.000000000E+00  0.00000E+00  9.000E+00
      21    -1     0     0   512   511  0.000000000E+00  0.000000000E+00 -2.776952221E+01  2.776952221E+01  0.000000000E+00  0.00000E+00  9.000E+00
      21     1     1     2   513   515 -8.447375151E+00 -1.625557772E+01  4.308818968E+01  4.682087189E+01  9.536743164E-07  0.00000E+00  9.000E+00
      21     1     1     2   514   513  9.603548478E+00  1.051318203E+01  2.156425337E-01  1.424084413E+01  5.749753570E-07  0.00000E+00  9.000E+00
      21     1     1     2   512   514 -1.156173328E+00  5.742395695E+00 -1.843649362E+01  1.934466702E+01  2.384185791E-07  0.00000E+00  9.000E+00
</event>
<event>
      5  10001  2.40292E+09  4.47895E+00 -1.00000E+00  2.52311E-01
      21    -1     0     0   516   514  0.000000000E+00  0.000000000E+00  6.683705654E+01  6.683705654E+01  0.000000000E+00  0.00000E+00  9.000E+00
      21    -1     0     0   512   517  0.000000000E+00  0.000000000E+00 -9.940723070E+00  9.940723070E+00  0.000000000E+00  0.00000E+00  9.000E+00
      21     1     1     2   516   517  9.761503357E+00  1.623310915E+00 -6.792832896E+00  1.200269407E+01  2.665600750E-07  0.00000E+00  9.000E+00
      21     1     1     2   511   514 -7.778202968E+00  1.680501120E+00  4.296862973E+01  4.369928680E+01  4.768371582E-07  0.00000E+00  9.000E+00
      21     1     1     2   512   511 -1.983300389E+00 -3.303812036E+00  2.072053663E+01  2.107579875E+01  2.384185791E-07  0.00000E+00  9.000E+00
</event>
<event>
      5  10001  2.40292E+09  5.31105E+00 -1.00000E+00  2.33941E-01
      21    -1     0     0   513   511  0.000000000E+00  0.000000000E+00  3.084931736E+01  3.084931736E+01  0.000000000E+00  0.00000E+00  9.000E+00
      21    -1     0     0   512   515  0.000000000E+00  0.000000000E+00 -3.682867308E+01  3.682867308E+01  0.000000000E+00  0.00000E+00  9.000E+00
      21     1     1     2   513   515  2.354279933E+00 -9.400910929E+00 -3.411565104E+01  3.546543960E+01  6.743495762E-07  0.00000E+00  9.000E+00
      21     1     1     2   512   514  2.356921196E-01  5.124893430E+00  2.644036543E+01  2.693349230E+01  8.920806376E-07  0.00000E+00  9.000E+00
      21     1     1     2   514   511 -2.589972053E+00  4.276017498E+00  1.695929896E+00  5.279058542E+00  1.413648275E-07  0.00000E+00  9.000E+00
</event>
<event>
      5  10001  2.40292E+09  1.33554E+01 -1.00000E+00  1.82220E-01
      21    -1     0     0   516   512  0.000000000E+00  0.000000000E+00  2.185906227E+01  2.185906227E+01  0.000000000E+00  0.00000E+00  9.000E+00
      21    -1     0     0   511   516  0.000000000E+00  0.000000000E+00 -8.226655800E+01  8.226655800E+01  0.000000000E+00  0.00000E+00  9.000E+00
      21     1     1     2   511   517  8.884838958E+00 -1.187919926E+01 -7.663151892E+01  7.805411859E+01  1.348699152E-06  0.00000E+00  9.000E+00
      21     1     1     2   517   513 -9.603952502E+00  1.299554233E+00  9.119203525E+00  1.330731445E+01  6.743495762E-07  0.00000E+00  9.000E+00
      21     1     1     2   513   512  7.191135441E-01  1.057964502E+01  7.104819656E+00  1.276418722E+01  4.042583694E-07  0.00000E+00  9.000E+00
</event>
<event>
      5  10001  2.40292E+09  1.47162E+01 -1.00000E+00  1.78121E-01
      21    -1     0     0   514   511  0.000000000E+00  0.000000000E+00  5.370934192E+01  5.370934192E+01  0.000000000E+00  0.00000E+00  9.000E+00
      -3    -1     0     0     0   514  0.000000000E+00  0.000000000E+00 -7.822174928E+01  7.822174928E+01  0.000000000E+00  0.00000E+00  9.000E+00
      -3     1     1     2     0   515 -7.553826655E+00  1.405069761E+00 -5.864323801E+01  5.914654582E+01  5.000000000E-01  0.00000E+00  9.000E+00
      21     1     1     2   512   511  3.852650909E+00  1.042335303E+01  5.080641272E+01  5.200750697E+01  9.536743164E-07  0.00000E+00  9.000E+00
      21     1     1     2   515   512  3.701175745E+00 -1.182842279E+01 -1.667558207E+01  2.077703841E+01  5.840038640E-07  0.00000E+00  9.000E+00
</event>
<event>
      5  10001  2.40292E+09  1.16558E+01 -1.00000E+00  1.88313E-01
      21    -1     0     0   513   511  0.000000000E+00  0.000000000E+00  5.412179644E+01  5.412179644E+01  0.000000000E+00  0.00000E+00  9.000E+00
       1    -1     0     0   512     0  0.000000000E+00  0.000000000E+00 -2.685423977E+02  2.685423977E+02  0.000000000E+00  0.00000E+00  9.000E+00
      21     1     1     2   512   514 -6.543718089E+00  4.424875675E+00  3.552530263E+01  3.639295121E+01  6.743495762E-07  0.00000E+00  9.000E+00
       1     1     1     2   513     0  1.110268349E+01  4.860593569E+00 -2.664866148E+02  2.667622906E+02  3.300000131E-01  0.00000E+00  9.000E+00
      21     1     1     2   514   511 -4.558965398E+00 -9.285469244E+00  1.654071086E+01  1.950895232E+01  6.307962682E-07  0.00000E+00  9.000E+00
</event>
<event>
      5  10001  2.40292E+09  9.63457E+00 -1.00000E+00  1.97585E-01
      21    -1     0     0   515   512  0.000000000E+00  0.000000000E+00  1.148317746E+01  1.148317746E+01  0.000000000E+00  0.00000E+00  9.000E+00
      21    -1     0     0   511   515  0.000000000E+00  0.000000000E+00 -2.289809352E+01  2.289809352E+01  0.000000000E+00  0.00000E+00  9.000E+00
      21     1     1     2   516   512  1.772164887E+00  1.145465922E+01  3.997947742E+00  1.226105103E+01  2.763753681E-07  0.00000E+00  9.000E+00
      21     1     1     2   513   516 -3.898410392E+00 -9.199784199E+00 -4.839519210E+00  1.110200788E+01  1.788139343E-07  0.00000E+00  9.000E+00
      21     1     1     2   511   513  2.126245505E+00 -2.254875018E+00 -1.057334459E+01  1.101821206E+01  1.192092896E-07  0.00000E+00  9.000E+00
</event>
<event>
      5  10001  2.40292E+09  1.15778E+01 -1.00000E+00  1.88625E-01
      21    -1     0     0   514   512  0.000000000E+00  0.000000000E+00  6.121807867E+01  6.121807867E+01  0.000000000E+00  0.00000E+00  9.000E+00
      21    -1     0     0   511   514  0.000000000E+00  0.000000000E+00 -1.796402449E+01  1.796402449E+01  0.000000000E+00  0.00000E+00  9.000E+00
      21     1     1     2   511   517 -1.612442627E+01 -3.485314990E-02 -1.250614743E+01  2.040593200E+01  4.768371582E-07  0.00000E+00  9.000E+00
      21     1     1     2   517   515  3.041053529E+00  2.763894893E+00  2.350792537E+01  2.386440188E+01  3.371747881E-07  0.00000E+00  9.000E+00
      21     1     1     2   515   512  1.308337274E+01 -2.729041743E+00  3.225227624E+01  3.491176927E+01  4.768371582E-07  0.00000E+00  9.000E+00
</event>
<event>
      5  10001  2.40292E+09  3.85628E+00 -1.00000E+00  2.67160E-01
      21    -1     0     0   513   516  0.000000000E+00  0.000000000E+00  8.435338077E+01  8.435338077E+01  0.000000000E+00  0.00000E+00  9.000E+00
      21    -1     0     0   511   514  0.000000000E+00  0.000000000E+00 -1.037458998E+02  1.037458998E+02  0.000000000E+00  0.00000E+00  9.000E+00
      21     1     1     2   513   512 -2.449923177E+01 -7.217378210E+00  5.575416450E+01  6.132560448E+01  9.536743164E-07  0.00000E+00  9.000E+00
      21     1     1     2   511   516  2.835478702E+01  7.142790214E+00  1.747980532E+01  3.406694869E+01  4.768371582E-07  0.00000E+00  9.000E+00
      21     1     1     2   512   514 -3.855555256E+00  7.458799584E-02 -9.262648881E+01  9.270672737E+01  1.348699152E-06  0.00000E+00  9.000E+00
</event>
<event>
      5  10001  2.40292E+09  4.61216E+00 -1.00000E+00  2.49604E-01
      21    -1     0     0   515   511  0.000000000E+00  0.000000000E+00  1.967847178E+02  1.967847178E+02  0.000000000E+00  0.00000E+00  9.000E+00
      21    -1     0     0   512   517  0.000000000E+00  0.000000000E+00 -1.586629419E+01  1.586629419E+01  0.000000000E+00  0.00000E+00  9.000E+00
      21     1     1     2   515   517  4.033607158E+00  1.138166238E+01  1.937401113E+02  1.941160554E+02  2.697398305E-06  0.00000E+00  9.000E+00
      21     1     1     2   513   511 -8.414161958E-01 -9.231922729E+00 -7.275514643E+00  1.178429004E+01  7.771494872E-07  0.00000E+00  9.000E+00
      21     1     1     2   512   513 -3.192190962E+00 -2.149739649E+00 -5.546173056E+00  6.750666579E+00  2.858538343E-07  0.00000E+00  9.000E+00
</event>
<event>
      5  10001  2.40292E+09  1.95379E+00 -1.00000E+00  3.67654E-01
       2    -1     0     0   515     0  0.000000000E+00  0.000000000E+00  8.055522114E+01  8.055522114E+01  0.000000000E+00  0.00000E+00  9.000E+00
      21    -1     0     0   513   511  0.000000000E+00  0.000000000E+00 -2.218014985E+01  2.218014985E+01  0.000000000E+00  0.00000E+00  9.000E+00
      21     1     1     2   513   514  9.991604161E-01  1.053903053E+01 -1.293319829E+01  1.671338099E+01  3.371747881E-07  0.00000E+00  9.000E+00
       2     1     1     2   514     0  6.156079198E-01 -1.163890334E+01  7.809448837E+01  7.896012322E+01  3.300000131E-01  0.00000E+00  9.000E+00
      21     1     1     2   515   511 -1.614768336E+00  1.099872812E+00 -6.786218792E+00  7.061866784E+00  1.192092896E-07  0.00000E+00  9.000E+00
</event>
<event>
      5  10001  2.40292E+09  6.56096E+00 -1.00000E+00  2.19534E-01
      21    -1     0     0   511   512  0.000000000E+00  0.000000000E+00  5.775932534E+00  5.775932534E+00  0.000000000E+00  0.00000E+00  9.000E+00
      -3    -1     0     0     0   511  0.000000000E+00  0.000000000E+00 -1.901118751E+01  1.901118751E+01  0.000000000E+00  0.00000E+00  9.000E+00
      -3     1     1     2     0   513 -3.292629817E+00 -8.555709196E+00 -4.435347566E+00  1.019626790E+01  5.000000000E-01  0.00000E+00  9.000E+00
      21     1     1     2   513   514  5.079681758E+00  3.545361121E+00 -5.788104487E+00  8.477906923E+00  8.429369702E-08  0.00000E+00  9.000E+00
      21     1     1     2   514   512 -1.787051942E+00  5.010348076E+00 -3.011802922E+00  6.112945225E+00  4.214684851E-08  0.00000E+00  9.000E+00
</event>
<event>
      5  10001  2.40292E+09  7.55587E+00 -1.00000E+00  2.10899E-01
      21    -1     0     0   511   513  0.000000000E+00  0.000000000E+00  1.086706792E+01  1.086706792E+01  0.000000000E+00  0.00000E+00  9.000E+00
      21    -1     0     0   512   515  0.000000000E+00  0.000000000E+00 -2.891410452E+02  2.891410452E+02  0.000000000E+00  0.00000E+00  9.000E+00
      21     1     1     2   512   516  1.293715470E+01  7.868797693E+00 -2.703021433E+02  2.707259438E+02  6.607249480E-06  0.00000E+00  9.000E+00
      21     1     1     2   516   513 -1.194280033E+01 -3.786391781E-01 -1.485288108E+01  1.906257915E+01  1.092571186E-06  0.00000E+00  9.000E+00
      21     1     1     2   511   515 -9.943543632E-01 -7.490158515E+00  6.881047098E+00  1.021959022E+01  4.539354507E-07  0.00000E+00  9.000E+00
</event>
<event>
      5  10001  2.40292E+09  1.34649E+01 -1.00000E+00  1.81868E-01
      21    -1     0     0   514   512  0.000000000E+00  0.000000000E+00  4.300433516E+01  4.300433516E+01  0.000000000E+00  0.00000E+00  9.000E+00
      21    -1     0     0   517   514  0.000000000E+00  0.000000000E+00 -1.140308716E+01  1.140308716E+01  0.000000000E+00  0.00000E+00  9.000E+00
      21     1     1     2   515   512  1.018077410E+01  3.664141194E+00  3.880656260E+01  4.028676448E+01  6.743495762E-07  0.00000E+00  9.000E+00
      21     1     1     2   517   513 -2.837358502E+00  1.439704500E-01  4.179478641E-01  2.871586874E+00  7.028863677E-08  0.00000E+00  9.000E+00
      21     1     1     2   513   515 -7.343415597E+00 -3.808111644E+00 -7.623262461E+00  1.124907096E+01  3.674277069E-07  0.00000E+00  9.000E+00
</event>
<event>
      5  10001  2.40292E+09  6.62469E+00 -1.00000E+00  2.18919E-01
      21    -1     0     0   511   513  0.000000000E+00  0.000000000E+00  7.989623609E+01  7.989623609E+01  0.000000000E+00  0.00000E+00  9.000E+00
       4    -1     0     0   512     0  0.000000000E+00  0.000000000E+00 -1.904809397E+00  1.904809397E+00  0.000000000E+00  0.00000E+00  9.000E+00
      21     1     1     2   512   513 -1.869705346E+00 -8.842433561E+00  4.217203972E+01  4.312963440E+01  6.743495762E-07  0.00000E+00  9.000E+00
       4     1     1     2   514     0  5.500911803E+00  8.530648960E+00  2.050032277E+01  2.292477342E+01  1.500000000E+00  0.00000E+00  9.000E+00
      21     1     1     2   511   514 -3.631206458E+00  3.117846011E-01  1.531906419E+01  1.574663767E+01  1.685873940E-07  0.00000E+00  9.000E+00
</event>
<event>
      5  10001  2.40292E+09  8.65777E+00 -1.00000E+00  2.03220E-01
      21    -1     0     0   515   512  0.000000000E+00  0.000000000E+00  7.700990834E+02  7.700990834E+02  0.000000000E+00  0.00000E+00  9.000E+00
       1    -1     0     0   516     0  0.000000000E+00  0.000000000E+00 -1.128337297E+02  1.128337297E+02  0.000000000E+00  0.00000E+00  9.000E+00
      21     1     1     2   514   512 -1.162399630E+01 -2.009460605E+01  6.803744280E+02  6.807703524E+02  0.000000000E+00  0.00000E+00  9.000E+00
      21     1     1     2   516   514  3.369265621E+00  2.270540568E+01  8.788377874E+01  9.083196554E+01  9.536743164E-07  0.00000E+00  9.000E+00
       1     1     1     2   515     0  8.254730683E+00 -2.610799636E+00 -1.109928530E+02  1.113304952E+02  3.300000131E-01  0.00000E+00  9.000E+00
</event>
<event>
      5  10001  2.40292E+09  3.83964E+00 -1.00000E+00  2.67617E-01
      21    -1     0     0   513   514  0.000000000E+00  0.000000000E+00  2.459737923E+00  2.459737923E+00  0.000000000E+00  0.00000E+00  9.000E+00
      21    -1     0     0   511   513  0.000000000E+00  0.000000000E+00 -7.085026274E+01  7.085026274E+01  0.000000000E+00  0.00000E+00  9.000E+00
      -3     1     1     2     0   514 -1.408544986E+00  9.867455939E+00 -5.471076858E+01  5.561356745E+01  5.000000000E-01  0.00000E+00  9.000E+00
       3     1     1     2   512     0  2.746146481E+00 -5.382448488E+00 -5.098776779E+00  7.922095485E+00  5.000000000E-01  0.00000E+00  9.000E+00
      21     1     1     2   511   512 -1.337601496E+00 -4.485007451E+00 -8.580979455E+00  9.774337727E+00  0.000000000E+00  0.00000E+00  9.000E+00
</event>
<event>
      5  10001  2.40292E+09  7.16878E+00 -1.00000E+00  2.14031E-01
      21    -1     0     0   513   512  0.000000000E+00  0.000000000E+00  1.471929282E+02  1.471929282E+02  0.000000000E+00  0.00000E+00  9.000E+00
      21    -1     0     0   511   516  0.000000000E+00  0.000000000E+00 -3.290279257E+01  3.290279257E+01  0.000000000E+00  0.00000E+00  9.000E+00
      21     1     1     2   515   516  4.482352798E+00 -6.672608761E+00  1.609698623E+01  1.799244731E+01  6.307962682E-07  0.00000E+00  9.000E+00
      21     1     1     2   511   512 -4.412439497E+00  1.384104327E+01 -3.019878928E+01  3.351135591E+01  5.840038640E-07  0.00000E+00  9.000E+00
      21     1     1     2   513   515 -6.991330059E-02 -7.168434510E+00  1.283919387E+02  1.285919175E+02  0.000000000E+00  0.00000E+00  9.000E+00
</event>
<event>
      5  10001  2.40292E+09  7.13595E+00 -1.00000E+00  2.14309E-01
      21    -1     0     0   514   511  0.000000000E+00  0.000000000E+00  1.514754506E+00  1.514754506E+00  0.000000000E+00  0.00000E+00  9.000E+00
      21    -1     0     0   517   515  0.000000000E+00  0.000000000E+00 -4.545024032E+02  4.545024032E+02  0.000000000E+00  0.00000E+00  9.000E+00
      21     1     1     2   514   515 -1.834933605E+00  9.448454529E+00 -1.543356855E+01  1.818887881E+01  2.384185791E-07  0.00000E+00  9.000E+00
      21     1     1     2   517   512 -1.603098809E+00 -3.898328677E+00 -3.520773194E+02  3.521025500E+02  3.814697266E-06  0.00000E+00  9.000E+00
      21     1     1     2   512   511  3.438032414E+00 -5.550125851E+00 -8.547676077E+01  8.572572890E+01  1.907348633E-06  0.00000E+00  9.000E+00
</event>
<event>
      5  10001  2.40292E+09  6.01737E+00 -1.00000E+00  2.25199E-01
      21    -1     0     0   514   511  0.000000000E+00  0.000000000E+00  4.126167829E+01  4.126167829E+01  0.000000000E+00  0.00000E+00  9.000E+00
      21    -1     0     0   512   513  0.000000000E+00  0.000000000E+00 -8.055113450E+01  8.055113450E+01  0.000000000E+00  0.00000E+00  9.000E+00
      -3     1     1     2     0   511  4.266515849E+00  1.355072992E+01 -1.037046060E+01  1.759607604E+01  5.000000000E-01  0.00000E+00  9.000E+00
       3     1     1     2   512     0 -7.274397138E+00 -8.339729154E+00 -6.586191789E+01  6.678705087E+01  5.000000000E-01  0.00000E+00  9.000E+00
      21     1     1     2   514   513  3.007881289E+00 -5.211000767E+00  3.694292227E+01  3.742968588E+01  6.743495762E-07  0.00000E+00  9.000E+00
</event>
<event>
      5  10001  2.40292E+09  8.18620E+00 -1.00000E+00  2.06307E-01
      21    -1     0     0   515   513  0.000000000E+00  0.000000000E+00  2.539940108E+01  2.539940108E+01  0.000000000E+00  0.00000E+00  9.000E+00
      21    -1     0     0   516   515  0.000000000E+00  0.000000000E+00 -5.754655785E+01  5.754655785E+01  0.000000000E+00  0.00000E+00  9.000E+00
      21     1     1     2   512   513 -9.005430329E+00  5.330626244E+00  2.344623370E+01  2.567565435E+01  6.743495762E-07  0.00000E+00  9.000E+00
      21     1     1     2   516   511  3.976584300E+00  1.351577769E+00 -3.123765490E+01  3.151874155E+01  4.768371582E-07  0.00000E+00  9.000E+00
      21     1     1     2   511   512  5.028846028E+00 -6.682204013E+00 -2.435573558E+01  2.575156303E+01  3.371747881E-07  0.00000E+00  9.000E+00
</event>
<event>
      5  10001  2.40292E+09  6.64648E+00 -1.00000E+00  2.18711E-01
      21    -1     0     0   514   516  0.000000000E+00  0.000000000E+00  2.255817093E+01  2.255817093E+01  0.000000000E+00  0.00000E+00  9.000E+00
      21    -1     0     0   513   512  0.000000000E+00  0.000000000E+00 -4.955902036E+00  4.955902036E+00  0.000000000E+00  0.00000E+00  9.000E+00
      21     1     1     2   514   512 -3.743456687E+00 -7.483083531E+00  3.978110015E+00  9.264737794E+00  7.300048300E-08  0.00000E+00  9.000E+00
      21     1     1     2   513   515  6.405050775E+00  4.609194854E+00  6.973420415E+00  1.053080932E+01  1.460009660E-07  0.00000E+00  9.000E+00
      21     1     1     2   515   516 -2.661594088E+00  2.873888677E+00  6.650738460E+00  7.718525849E+00  8.429369702E-08  0.00000E+00  9.000E+00
</event>
<event>
      5  10001  2.40292E+09  4.18462E+00 -1.00000E+00  2.58832E-01
      21    -1     0     0   511   512  0.000000000E+00  0.000000000E+00  7.044564589E+00  7.044564589E+00  0.000000000E+00  0.00000E+00  9.000E+00
      21    -1     0     0   516   511  0.000000000E+00  0.000000000E+00 -5.557768321E+01  5.557768321E+01  0.000000000E+00  0.00000E+00  9.000E+00
      21     1     1     2   513   515 -1.256805888E+01  9.175324562E+00 -6.360699455E+00  1.681074604E+01  4.042583694E-07  0.00000E+00  9.000E+00
      21     1     1     2   516   513  8.498840436E+00 -8.199345167E+00 -3.840912480E+01  4.018358393E+01  8.259061849E-07  0.00000E+00  9.000E+00
      21     1     1     2   515   512  4.069218447E+00 -9.759793949E-01 -3.763294373E+00  5.627917829E+00  0.000000000E+00  0.00000E+00  9.000E+00
</event>
<event>
      5  10001  2.40292E+09  1.84435E+01 -1.00000E+00  1.69282E-01
       4    -1     0     0   513     0  0.000000000E+00  0.000000000E+00  3.640557817E+02  3.640557817E+02  0.000000000E+00  0.00000E+00  9.000E+00
      21    -1     0     0   514   511  0.000000000E+00  0.000000000E+00 -1.002491402E+02  1.002491402E+02  0.000000000E+00  0.00000E+00  9.000E+00
      21     1     1     2   515   511  1.624354423E+00  1.673984352E+01 -9.804184614E+01  9.947393871E+01  3.814697266E-06  0.00000E+00  9.000E+00
       4     1     1     2   514     0  1.663795094E+01 -1.931590686E+01  2.660844758E+02  2.673071715E+02  1.500000000E+00  0.00000E+00  9.000E+00
      21     1     1     2   513   515 -1.826230536E+01  2.576063348E+00  9.576401178E+01  9.752381172E+01  1.348699152E-06  0.00000E+00  9.000E+00
</event>
<event>
      5  10001  2.40292E+09  1.54400E+01 -1.00000E+00  1.76162E-01
      21    -1     0     0   512   514  0.000000000E+00  0.000000000E+00  7.030239208E+01  7.030239208E+01  0.000000000E+00  0.00000E+00  9.000E+00
       2    -1     0     0   513     0  0.000000000E+00  0.000000000E+00 -3.340859320E+00  3.340859320E+00  0.000000000E+00  0.00000E+00  9.000E+00
      -2     1     1     2     0   514  4.650311823E+00 -5.492153831E+00  3.110471294E+01  3.192806322E+01  3.300000131E-01  0.00000E+00  9.000E+00
       2     1     1     2   512     0  2.895699095E+00  1.135366629E+01  2.093447802E+01  2.399275060E+01  3.300000131E-01  0.00000E+00  9.000E+00
       2     1     1     2   513     0 -7.546010918E+00 -5.861512455E+00  1.492234179E+01  1.772243758E+01  3.300000131E-01  0.00000E+00  9.000E+00
</event>
<event>
      5  10001  2.40292E+09  1.04414E+01 -1.00000E+00  1.93556E-01
      -3    -1     0     0     0   514  0.000000000E+00  0.000000000E+00  2.574033633E+01  2.574033633E+01  0.000000000E+00  0.00000E+00  9.000E+00
      21    -1     0     0   513   515  0.000000000E+00  0.000000000E+00 -4.095485623E+01  4.095485623E+01  0.000000000E+00  0.00000E+00  9.000E+00
      21     1     1     2   511   515 -1.247483955E+00 -8.363258282E+00 -3.716988920E+00  9.236682951E+00  5.960464478E-08  0.00000E+00  9.000E+00
      21     1     1     2   513   514  1.145909771E+01  1.053823024E+01 -3.136108582E+01  3.501261088E+01  3.371747881E-07  0.00000E+00  9.000E+00
      -3     1     1     2     0   511 -1.021161376E+01 -2.174971957E+00  1.986355484E+01  2.244589872E+01  5.000000000E-01  0.00000E+00  9.000E+00
</event>
<event>
      5  10001  2.40292E+09  1.10967E+01 -1.00000E+00  1.90619E-01
      21    -1     0     0   512   513  0.000000000E+00  0.000000000E+00  2.401060738E+01  2.401060738E+01  0.000000000E+00  0.00000E+00  9.000E+00
      21    -1     0     0   516   511  0.000000000E+00  0.000000000E+00 -2.748092894E+02  2.748092894E+02  0.000000000E+00  0.00000E+00  9.000E+00
      21     1     1     2   512   511  1.819776208E+00 -1.613502137E+01 -2.702477006E+02  2.707350553E+02  5.394796609E-06  0.00000E+00  9.000E+00
      21     1     1     2   516   514  5.155699938E-01  3.072800001E+00  1.293097635E+01  1.330105491E+01  1.410503336E-06  0.00000E+00  9.000E+00
      21     1     1     2   514   513 -2.335346202E+00  1.306222137E+01  6.518042256E+00  1.478378652E+01  1.115100797E-06  0.00000E+00  9.000E+00
</event>
<event>
      5  10001  2.40292E+09  3.15919E+00 -1.00000E+00  2.90084E-01
      21    -1     0     0   515   511  0.000000000E+00  0.000000000E+00  2.147201289E+02  2.147201289E+02  0.000000000E+00  0.00000E+00  9.000E+00
      21    -1     0     0   517   513  0.000000000E+00  0.000000000E+00 -1.390813742E+01  1.390813742E+01  0.000000000E+00  0.00000E+00  9.000E+00
      21     1     1     2   515   513 -3.145199686E+00  1.170634524E+01 -1.084981572E+01  1.626804540E+01  4.298152060E-07  0.00000E+00  9.000E+00
      21     1     1     2   512   511  5.207040931E+00 -9.663549784E+00  2.013143293E+02  2.016133841E+02  2.697398305E-06  0.00000E+00  9.000E+00
      21     1     1     2   517   512 -2.061841245E+00 -2.042795455E+00  1.034747785E+01  1.074683677E+01  1.192092896E-07  0.00000E+00  9.000E+00
</event>
<event>
      5  10001  2.40292E+09  1.45229E+01 -1.00000E+00  1.78668E-01
      21    -1     0     0   514   512  0.000000000E+00  0.000000000E+00  5.307886886E+00  5.307886886E+00  0.000000000E+00  0.00000E+00  9.000E+00
      21    -1     0     0   517   511  0.000000000E+00  0.000000000E+00 -6.565474707E+02  6.565474707E+02  0.000000000E+00  0.00000E+00  9.000E+00
      21     1     1     2   514   516 -1.000009725E+01  1.794448342E+00 -5.357979548E+02  5.358942716E+02  7.629394531E-06  0.00000E+00  9.000E+00
      21     1     1     2   517   512  2.132601596E+01 -1.088495098E+01 -2.598847563E+01  3.533669453E+01  2.158972058E-06  0.00000E+00  9.000E+00
      21     1     1     2   516   511 -1.132591871E+01  9.090502636E+00 -8.945315340E+01  9.062439145E+01  0.000000000E+00  0.00000E+00  9.000E+00
</event>
<event>
      5  10001  2.40292E+09  9.65376E+00 -1.00000E+00  1.97484E-01
       1    -1     0     0   515     0  0.000000000E+00  0.000000000E+00  1.766553716E+02  1.766553716E+02  0.000000000E+00  0.00000E+00  9.000E+00
       2    -1     0     0   512     0  0.000000000E+00  0.000000000E+00 -1.450108337E+02  1.450108337E+02  0.000000000E+00  0.00000E+00  9.000E+00
      21     1     1     2   515   513 -2.769533840E+01  1.087467887E+00 -2.908069804E+00  2.786882175E+01  9.452552514E-07  0.00000E+00  9.000E+00
       2     1     1     2   513     0  2.204617695E+01 -8.915724685E+00 -1.283872275E+02  1.305714867E+02  3.300000131E-01  0.00000E+00  9.000E+00
       1     1     1     2   512     0  5.649161454E+00  7.828256798E+00  1.629398351E+02  1.632258968E+02  3.300000131E-01  0.00000E+00  9.000E+00
</event>
<event>
      5  10001  2.40292E+09  5.81267E+00 -1.00000E+00  2.27553E-01
      -1    -1     0     0     0   511  0.000000000E+00  0.000000000E+00  6.625560101E+01  6.625560101E+01  0.000000000E+00  0.00000E+00  9.000E+00
      21    -1     0     0   514   515  0.000000000E+00  0.000000000E+00 -1.590763637E+00  1.590763637E+00  0.000000000E+00  0.00000E+00  9.000E+00
      21     1     1     2   513   515  8.310146963E+00  3.421102530E+00  2.557879482E+01  2.711157003E+01  3.371747881E-07  0.00000E+00  9.000E+00
      21     1     1     2   514   511 -8.064901144E+00 -4.155631125E-02  2.709702748E+01  2.827177489E+01  3.371747881E-07  0.00000E+00  9.000E+00
      -1     1     1     2     0   513 -2.452458181E-01 -3.379546219E+00  1.198901508E+01  1.246301973E+01  3.300000131E-01  0.00000E+00  9.000E+00
</event>
<event>
      5  10001  2.40292E+09  1.16337E+01 -1.00000E+00  1.88401E-01
      21    -1     0     0   512   511  0.000000000E+00  0.000000000E+00  5.946100261E+00  5.946100261E+00  0.000000000E+00  0.00000E+00  9.000E+00
      -1    -1     0     0     0   512  0.000000000E+00  0.000000000E+00 -2.680233632E+02  2.680233632E+02  0.000000000E+00  0.00000E+00  9.000E+00
      21     1     1     2   514   511  1.034427736E+01 -1.324622243E+01 -2.051465038E+01  2.652013128E+01  3.371747881E-07  0.00000E+00  9.000E+00
      21     1     1     2   516   514 -1.077564623E+01  1.620707473E+00 -7.808656905E+00  1.340583332E+01  2.795705652E-07  0.00000E+00  9.000E+00
      -1     1     1     2     0   516  4.313688724E-01  1.162551496E+01 -2.337539557E+02  2.340434989E+02  3.300000131E-01  0.00000E+00  9.000E+00
</event>
<event>
      5  10001  2.40292E+09  5.74640E+00 -1.00000E+00  2.28344E-01
      21    -1     0     0   513   511  0.000000000E+00  0.000000000E+00  1.878431792E+02  1.878431792E+02  0.000000000E+00  0.00000E+00  9.000E+00
      21    -1     0     0   515   512  0.000000000E+00  0.000000000E+00 -9.723100470E+01  9.723100470E+01  0.000000000E+00  0.00000E+00  9.000E+00
      21     1     1     2   515   517  5.789014294E+00  3.439762596E+01  2.988183103E+01  4.593074334E+01  1.011524364E-06  0.00000E+00  9.000E+00
      21     1     1     2   517   511 -6.425171454E+00 -2.868654254E+01  1.484009853E+02  1.512846753E+02  0.000000000E+00  0.00000E+00  9.000E+00
      21     1     1     2   513   512  6.361571598E-01 -5.711083420E+00 -8.767064188E+01  8.785876518E+01  9.536743164E-07  0.00000E+00  9.000E+00
</event>
<event>
      5  10001  2.40292E+09  2.42743E+00 -1.00000E+00  3.27718E-01
      21    -1     0     0   514   512  0.000000000E+00  0.000000000E+00  8.175053766E+00  8.175053766E+00  0.000000000E+00  0.00000E+00  9.000E+00
      21    -1     0     0   515   516  0.000000000E+00  0.000000000E+00 -2.349058923E+01  2.349058923E+01  0.000000000E+00  0.00000E+00  9.000E+00
      21     1     1     2   514   516  1.056669526E+01  8.658786152E+00 -9.555077729E+00  1.667120682E+01  2.064765462E-07  0.00000E+00  9.000E+00
       3     1     1     2   515     0 -4.411951547E+00 -3.468811678E+00 -3.437049389E+00  6.600096924E+00  5.000000000E-01  0.00000E+00  9.000E+00
      -3     1     1     2     0   512 -6.154743710E+00 -5.189974475E+00 -2.323408344E+00  8.394339254E+00  5.000000000E-01  0.00000E+00  9.000E+00
</event>
<event>
      5  10001  2.40292E+09  7.53966E+00 -1.00000E+00  2.11025E-01
      21    -1     0     0   513   511  0.000000000E+00  0.000000000E+00  4.886475457E+00  4.886475457E+00  0.000000000E+00  0.00000E+00  9.000E+00
       2    -1     0     0   511     0  0.000000000E+00  0.000000000E+00 -6.964000984E+02  6.964000984E+02  0.000000000E+00  0.00000E+00  9.000E+00
      -5     1     1     2     0   512  4.022656095E+00 -1.914548073E+01 -8.033291527E+01  8.281997628E+01  4.800000191E+00  0.00000E+00  9.000E+00
       2     1     1     2   512     0 -8.428426311E+00  1.309157665E+01 -6.091433240E+02  6.093423716E+02  3.300000131E-01  0.00000E+00  9.000E+00
       5     1     1     2   513     0  4.405770216E+00  6.053904079E+00 -2.037383690E+00  9.124225990E+00  4.800000191E+00  0.00000E+00  9.000E+00
</event>
<event>
      5  10001  2.40292E+09  8.83377E+00 -1.00000E+00  2.02133E-01
      21    -1     0     0   514   512  0.000000000E+00  0.000000000E+00  3.867032904E-01  3.867032904E-01  0.000000000E+00  0.00000E+00  9.000E+00
      21    -1     0     0   511   514  0.000000000E+00  0.000000000E+00 -1.345904578E+03  1.345904578E+03  0.000000000E+00  0.00000E+00  9.000E+00
      21     1     1     2   511   515  6.068544948E+00  8.637660586E+00 -1.075333386E+03  1.075385199E+03  1.525878906E-05  0.00000E+00  9.000E+00
      21     1     1     2   516   512 -8.030948109E+00 -3.554329264E+00 -5.888193150E+01  5.953327844E+01  1.907348633E-06  0.00000E+00  9.000E+00
      21     1     1     2   515   516  1.962403161E+00 -5.083331322E+00 -2.113025581E+02  2.113728042E+02  2.697398305E-06  0.00000E+00  9.000E+00
</event>
<event>
      5  10001  2.40292E+09  1.53131E+01 -1.00000E+00  1.76495E-01
      21    -1     0     0   513   515  0.000000000E+00  0.000000000E+00  9.638893577E+01  9.638893577E+01  0.000000000E+00  0.00000E+00  9.000E+00
      21    -1     0     0   511   517  0.000000000E+00  0.000000000E+00 -4.279815974E+01  4.279815974E+01  0.000000000E+00  0.00000E+00  9.000E+00
      21     1     1     2   513   517  8.578290260E+00 -3.428502138E+01 -3.066089754E+01  4.678825059E+01  8.259061849E-07  0.00000E+00  9.000E+00
      21     1     1     2   511   512 -3.536197509E+00  2.103189172E+01  3.357689996E+01  3.977754861E+01  6.743495762E-07  0.00000E+00  9.000E+00
      21     1     1     2   512   515 -5.042092751E+00  1.325312966E+01  5.067477361E+01  5.262129631E+01  6.743495762E-07  0.00000E+00  9.000E+00
</event>
<event>
      5  10001  2.40292E+09  1.30040E+01 -1.00000E+00  1.83381E-01
      21    -1     0     0   514   511  0.000000000E+00  0.000000000E+00  1.994692744E+00  1.994692744E+00  0.000000000E+00  0.00000E+00  9.000E+00
      21    -1     0     0   515   514  0.000000000E+00  0.000000000E+00 -2.138017396E+02  2.138017396E+02  0.000000000E+00  0.00000E+00  9.000E+00
      21     1     1     2   515   516 -1.293513949E-01 -1.709015687E+01 -1.181390824E+02  1.193688946E+02  0.000000000E+00  0.00000E+00  9.000E+00
      21     1     1     2   516   513  4.941822969E+00  9.226791197E+00 -2.442048686E+01  2.656906977E+01  4.768371582E-07  0.00000E+00  9.000E+00
      21     1     1     2   513   511 -4.812471574E+00  7.863365670E+00 -6.924747753E+01  6.985846796E+01  0.000000000E+00  0.00000E+00  9.000E+00
</event>
<event>
      5  10001  2.40292E+09  2.88434E+01 -1.00000E+00  1.54200E-01
      -3    -1     0     0     0   511  0.000000000E+00  0.000000000E+00  1.872694686E+02  1.872694686E+02  0.000000000E+00  0.00000E+00  9.000E+00
      21    -1     0     0   511   512  0.000000000E+00  0.000000000E+00 -1.139001014E+01  1.139001014E+01  0.000000000E+00  0.00000E+00  9.000E+00
      21     1     1     2   514   513 -7.789208907E+00  1.167243311E+01  8.462989560E+01  8.578541076E+01  1.348699152E-06  0.00000E+00  9.000E+00
      21     1     1     2   513   512 -9.382136859E+00 -1.279112320E+01 -3.772247728E+00  1.630543399E+01  6.556510925E-07  0.00000E+00  9.000E+00
      -3     1     1     2     0   514  1.717134577E+01  1.118690091E+00  9.502181054E+01  9.656863394E+01  5.000000000E-01  0.00000E+00  9.000E+00
</event>
<event>
      5  10001  2.40292E+09  5.36398E+00 -1.00000E+00  2.33221E-01
      21    -1     0     0   512   511  0.000000000E+00  0.000000000E+00  4.916467970E+00  4.916467970E+00  0.000000000E+00  0.00000E+00  9.000E+00
      -1    -1     0     0     0   514  0.000000000E+00  0.000000000E+00 -3.234906231E+01  3.234906231E+01  0.000000000E+00  0.00000E+00  9.000E+00
      21     1     1     2   513   511 -3.806346395E+00 -3.112982788E+00 -7.196893901E+00  8.716318979E+00  1.192092896E-07  0.00000E+00  9.000E+00
      21     1     1     2   512   514  5.330486759E+00  9.530955467E+00 -5.135145198E+00  1.206743210E+01  2.920019320E-07  0.00000E+00  9.000E+00
      -1     1     1     2     0   513 -1.524140364E+00 -6.417972679E+00 -1.510055524E+01  1.648177920E+01  3.300000131E-01  0.00000E+00  9.000E+00
</event>
<event>
      5  10001  2.40292E+09  7.16154E+00 -1.00000E+00  2.14092E-01
      21    -1     0     0   515   516  0.000000000E+00  0.000000000E+00  2.974850327E+01  2.974850327E+01  0.000000000E+00  0.00000E+00  9.000E+00
      21    -1     0     0   511   513  0.000000000E+00  0.000000000E+00 -8.122984261E+00  8.122984261E+00  0.000000000E+00  0.00000E+00  9.000E+00
      21     1     1     2   515   513  8.437196927E+00 -4.527392023E+00 -1.616359773E+00  9.710622505E+00  2.210199382E-07  0.00000E+00  9.000E+00
      21     1     1     2   512   516 -7.699777475E+00  1.101974694E+00  2.339447661E+01  2.465364998E+01  4.768371582E-07  0.00000E+00  9.000E+00
      21     1     1     2   511   512 -7.374194517E-01  3.425417329E+00 -1.525978227E-01  3.507215052E+00  7.849673743E-08  0.00000E+00  9.000E+00
</event>
<event>
      5  10001  2.40292E+09  2.51805E+00 -1.00000E+00  3.21868E-01
      21    -1     0     0   514   512  0.000000000E+00  0.000000000E+00  2.290562441E+02  2.290562441E+02  0.000000000E+00  0.00000E+00  9.000E+00
      21    -1     0     0   511   513  0.000000000E+00  0.000000000E+00 -2.732918251E+01  2.732918251E+01  0.000000000E+00  0.00000E+00  9.000E+00
      21     1     1     2   514   517  9.073925931E+00  2.648848033E+00  1.080572906E+02  1.084699525E+02  3.303624740E-06  0.00000E+00  9.000E+00
      21     1     1     2   511   512 -9.667168312E+00 -5.096013195E+00  1.204863547E+02  1.209809290E+02  0.000000000E+00  0.00000E+00  9.000E+00
      21     1     1     2   517   513  5.932423816E-01  2.447165162E+00 -2.681658383E+01  2.693454514E+01  9.536743164E-07  0.00000E+00  9.000E+00
</event>
<event>
      5  10001  2.40292E+09  5.78926E+00 -1.00000E+00  2.27831E-01
      21    -1     0     0   515   511  0.000000000E+00  0.000000000E+00  1.489881762E+01  1.489881762E+01  0.000000000E+00  0.00000E+00  9.000E+00
      21    -1     0     0   517   516  0.000000000E+00  0.000000000E+00 -7.530501529E+01  7.530501529E+01  0.000000000E+00  0.00000E+00  9.000E+00
      21     1     1     2   515   516  5.779622550E+00 -8.066351296E+00  1.267088141E+01  1.609413856E+01  3.769728732E-07  0.00000E+00  9.000E+00
       3     1     1     2   517     0 -3.758104689E+00  1.544190541E+00 -4.594897494E+01  4.613096762E+01  5.000000000E-01  0.00000E+00  9.000E+00
      -3     1     1     2     0   511 -2.021517861E+00  6.522160754E+00 -2.712810415E+01  2.797872674E+01  5.000000000E-01  0.00000E+00  9.000E+00
</event>
<event>
      5  10001  2.40292E+09  5.70826E+00 -1.00000E+00  2.28806E-01
      21    -1     0     0   512   514  0.000000000E+00  0.000000000E+00  9.405732372E+01  9.405732372E+01  0.000000000E+00  0.00000E+00  9.000E+00
      21    -1     0     0   515   511  0.000000000E+00  0.000000000E+00 -3.758642192E+00  3.758642192E+00  0.000000000E+00  0.00000E+00  9.000E+00
      21     1     1     2   512   511  8.627943528E+00 -3.537303687E+00  4.807229609E+01  4.896835282E+01  1.168007728E-06  0.00000E+00  9.000E+00
      21     1     1     2   513   514 -1.219881595E+01 -9.161389865E-01  4.128872183E+01  4.306284909E+01  8.259061849E-07  0.00000E+00  9.000E+00
      21     1     1     2   515   513  3.570872427E+00  4.453442674E+00  9.376636141E-01  5.784764005E+00  1.604904177E-07  0.00000E+00  9.000E+00
</event>
<event>
      5  10001  2.40292E+09  5.84272E+00 -1.00000E+00  2.27199E-01
       5    -1     0     0   511     0  0.000000000E+00  0.000000000E+00  2.019740468E+00  2.019740468E+00  0.000000000E+00  0.00000E+00  9.000E+00
      21    -1     0     0   516   513  0.000000000E+00  0.000000000E+00 -1.033043268E+02  1.033043268E+02  0.000000000E+00  0.00000E+00  9.000E+00
      21     1     1     2   511   512 -4.452095646E+00 -7.125114269E+00 -2.578650023E+01  2.712069326E+01  3.371747881E-07  0.00000E+00  9.000E+00
       5     1     1     2   516     0  5.481521876E+00  1.015161083E+01 -7.321835313E+01  7.427697841E+01  4.800000191E+00  0.00000E+00  9.000E+00
      21     1     1     2   512   513 -1.029426231E+00 -3.026496565E+00 -2.279732934E+00  3.926395557E+00  5.960464478E-08  0.00000E+00  9.000E+00
</event>
<event>
      5  10001  2.40292E+09  2.66659E+01 -1.00000E+00  1.56644E-01
      21    -1     0     0   513   515  0.000000000E+00  0.000000000E+00  4.513361297E+01  4.513361297E+01  0.000000000E+00  0.00000E+00  9.000E+00
      -1    -1     0     0     0   513  0.000000000E+00  0.000000000E+00 -1.158275946E+02  1.158275946E+02  0.000000000E+00  0.00000E+00  9.000E+00
      -1     1     1     2     0   511  1.335743743E+01  1.130375690E+01 -9.154284386E+01  9.320084343E+01  3.300000131E-01  0.00000E+00  9.000E+00
      21     1     1     2   511   514  1.169172582E+01 -2.044718580E+01 -1.118967163E+01  2.607666794E+01  3.769728732E-07  0.00000E+00  9.000E+00
      21     1     1     2   514   515 -2.504916325E+01  9.143428905E+00  3.203853389E+01  4.168369616E+01  4.768371582E-07  0.00000E+00  9.000E+00
</event>
<event>
      5  10001  2.40292E+09  6.07248E+00 -1.00000E+00  2.24587E-01
      21    -1     0     0   512   511  0.000000000E+00  0.000000000E+00  6.118745729E+01  6.118745729E+01  0.000000000E+00  0.00000E+00  9.000E+00
      21    -1     0     0   515   513  0.000000000E+00  0.000000000E+00 -1.350214588E+01  1.350214588E+01  0.000000000E+00  0.00000E+00  9.000E+00
      21     1     1     2   515   516 -7.337033636E+00  3.965673260E+00  1.530896677E+01  1.743339011E+01  4.129530925E-07  0.00000E+00  9.000E+00
      21     1     1     2   516   511  1.334884796E+01 -3.109469769E+00  4.293842240E+01  4.507292605E+01  8.259061849E-07  0.00000E+00  9.000E+00
      21     1     1     2   512   513 -6.011814328E+00 -8.562034912E-01 -1.056207777E+01  1.218328702E+01  2.920019320E-07  0.00000E+00  9.000E+00
</event>
<event>
      5  10001  2.40292E+09  1.79603E+01 -1.00000E+00  1.70274E-01
      21    -1     0     0   514   511  0.000000000E+00  0.000000000E+00  7.168582562E+00  7.168582562E+00  0.000000000E+00  0.00000E+00  9.000E+00
      21    -1     0     0   517   514  0.000000000E+00  0.000000000E+00 -3.058367147E+01  3.058367147E+01  0.000000000E+00  0.00000E+00  9.000E+00
      21     1     1     2   513   511  4.385231298E+00  6.634071697E+00 -1.654998773E-01  7.954153068E+00  1.420014989E-07  0.00000E+00  9.000E+00
      21     1     1     2   515   513 -6.804439206E+00 -4.781919928E+00 -2.301024793E+00  8.629128936E+00  1.548574097E-07  0.00000E+00  9.000E+00
      21     1     1     2   517   515  2.419207908E+00 -1.852151769E+00 -2.094856423E+01  2.116897202E+01  0.000000000E+00  0.00000E+00  9.000E+00
</event>
<event>
      5  10001  2.40292E+09  2.26881E+01 -1.00000E+00  1.61934E-01
      21    -1     0     0   512   515  0.000000000E+00  0.000000000E+00  5.444143456E+01  5.444143456E+01  0.000000000E+00  0.00000E+00  9.000E+00
      21    -1     0     0   511   516  0.000000000E+00  0.000000000E+00 -4.787983182E+00  4.787983182E+00  0.000000000E+00  0.00000E+00  9.000E+00
      21     1     1     2   512   516  5.288972551E+00 -5.753307834E+00  1.233124820E+01  1.459909120E+01  2.920019320E-07  0.00000E+00  9.000E+00
      21     1     1     2   511   513  4.245305403E-02  6.800803210E+00  3.847883299E+01  3.907522636E+01  4.768371582E-07  0.00000E+00  9.000E+00
      21     1     1     2   513   515 -5.331425605E+00 -1.047495376E+00 -1.156629812E+00  5.555100185E+00  1.672651196E-07  0.00000E+00  9.000E+00
</event>
<event>
      5  10001  2.40292E+09  1.25006E+01 -1.00000E+00  1.85129E-01
      21    -1     0     0   514   511  0.000000000E+00  0.000000000E+00  2.391403834E+01  2.391403834E+01  0.000000000E+00  0.00000E+00  9.000E+00
      21    -1     0     0   517   515  0.000000000E+00  0.000000000E+00 -9.121180810E+00  9.121180810E+00  0.000000000E+00  0.00000E+00  9.000E+00
      21     1     1     2   514   515 -1.101184711E+01 -7.475175429E+00  1.200524868E+01  1.792386733E+01  2.920019320E-07  0.00000E+00  9.000E+00
      21     1     1     2   512   511  1.359881718E-01  3.093642095E+00  1.943370317E-01  3.102721560E+00  6.999185021E-08  0.00000E+00  9.000E+00
      21     1     1     2   517   512  1.087585894E+01  4.381533334E+00  2.593271823E+00  1.200863026E+01  1.999200562E-07  0.00000E+00  9.000E+00
</event>
<event>
      5  10001  2.40292E+09  8.13718E+00 -1.00000E+00  2.06644E-01
      21    -1     0     0   513   512  0.000000000E+00  0.000000000E+00  7.916691985E+02  7.916691985E+02  0.000000000E+00  0.00000E+00  9.000E+00
      21    -1     0     0   511   516  0.000000000E+00  0.000000000E+00 -3.496623707E+01  3.496623707E+01  0.000000000E+00  0.00000E+00  9.000E+00
      21     1     1     2   513   516  1.607443167E+00 -1.142816066E+01  1.891400220E+01  2.215685467E+01  8.596304120E-07  0.00000E+00  9.000E+00
      21     1     1     2   517   512 -7.442384586E+00  1.709977496E+01  7.705228263E+02  7.707484786E+02  1.078959322E-05  0.00000E+00  9.000E+00
      21     1     1     2   511   517  5.834941419E+00 -5.671614299E+00 -3.273386706E+01  3.373010232E+01  1.348699152E-06  0.00000E+00  9.000E+00
</event>
<event>
      5  10001  2.40292E+09  2.94814E+00 -1.00000E+00  2.99044E-01
      21    -1     0     0   514   512  0.000000000E+00  0.000000000E+00  9.148758483E+00  9.148758483E+00  0.000000000E+00  0.00000E+00  9.000E+00
      21    -1     0     0   511   514  0.000000000E+00  0.000000000E+00 -1.251417740E+02  1.251417740E+02  0.000000000E+00  0.00000E+00  9.000E+00
      21     1     1     2   515   512  3.509158081E+00  9.622495129E+00  5.858889259E+00  1.179971128E+01  6.307962682E-07  0.00000E+00  9.000E+00
      21     1     1     2   513   515 -5.440885184E+00 -7.776114608E+00 -1.050394477E+02  1.054673255E+02  0.000000000E+00  0.00000E+00  9.000E+00
      21     1     1     2   511   513  1.931727102E+00 -1.846380521E+00 -1.681245709E+01  1.702349565E+01  2.384185791E-07  0.00000E+00  9.000E+00
</event>
<event>
      5  10001  2.40292E+09  1.78788E+01 -1.00000E+00  1.70446E-01
      21    -1     0     0   516   512  0.000000000E+00  0.000000000E+00  8.590180979E+01  8.590180979E+01  0.000000000E+00  0.00000E+00  9.000E+00
      21    -1     0     0   514   516  0.000000000E+00  0.000000000E+00 -5.370061627E+01  5.370061627E+01  0.000000000E+00  0.00000E+00  9.000E+00
      21     1     1     2   511   517  6.484165143E-01  1.314299777E+01 -3.820423907E+00  1.370235284E+01  3.318646170E-07  0.00000E+00  9.000E+00
      21     1     1     2   517   512  1.720519159E+01 -1.219413202E+01  7.772010639E+01  8.053030740E+01  9.536743164E-07  0.00000E+00  9.000E+00
      21     1     1     2   514   511 -1.785360810E+01 -9.488657466E-01 -4.169848897E+01  4.536976582E+01  4.768371582E-07  0.00000E+00  9.000E+00
</event>
<event>
      5  10001  2.40292E+09  2.43509E+00 -1.00000E+00  3.27206E-01
       2    -1     0     0   511     0  0.000000000E+00  0.000000000E+00  1.782496219E+01  1.782496219E+01  0.000000000E+00  0.00000E+00  9.000E+00
      21    -1     0     0   515   512  0.000000000E+00  0.000000000E+00 -4.199822502E+01  4.199822502E+01  0.000000000E+00  0.00000E+00  9.000E+00
      21     1     1     2   515   513  3.406173646E+00 -1.265605960E+01 -3.172016460E+01  3.432122821E+01  3.371747881E-07  0.00000E+00  9.000E+00
       2     1     1     2   513     0 -4.007327987E+00  1.029643897E+01  1.444363813E+01  1.818798822E+01  3.300000131E-01  0.00000E+00  9.000E+00
      21     1     1     2   511   512  6.011543407E-01  2.359620633E+00 -6.896736367E+00  7.313970781E+00  0.000000000E+00  0.00000E+00  9.000E+00
</event>
<event>
      5  10001  2.40292E+09  9.70633E+00 -1.00000E+00  1.97206E-01
      21    -1     0     0   514   516  0.000000000E+00  0.000000000E+00  1.050348470E+01  1.050348470E+01  0.000000000E+00  0.00000E+00  9.000E+00
       2    -1     0     0   513     0  0.000000000E+00  0.000000000E+00 -6.168125049E+02  6.168125049E+02  0.000000000E+00  0.00000E+00  9.000E+00
      21     1     1     2   511   516 -5.159915936E+00  1.269549744E+01  5.342921670E+00  1.470874569E+01  1.451467951E-06  0.00000E+00  9.000E+00
       2     1     1     2   514     0  1.044331197E+01 -4.553161855E+00 -5.558904767E+02  5.560073067E+02  3.300000131E-01  0.00000E+00  9.000E+00
      21     1     1     2   513   511 -5.283396036E+00 -8.142335584E+00 -5.576146513E+01  5.659993725E+01  6.743495762E-07  0.00000E+00  9.000E+00
</event>
<event>
      5  10001  2.40292E+09  2.91607E+01 -1.00000E+00  1.53865E-01
       2    -1     0     0   513     0  0.000000000E+00  0.000000000E+00  1.174293816E+03  1.174293816E+03  0.000000000E+00  0.00000E+00  9.000E+00
      21    -1     0     0   512   514  0.000000000E+00  0.000000000E+00 -3.572111534E-01  3.572111534E-01  0.000000000E+00  0.00000E+00  9.000E+00
      21     1     1     2   513   514  6.818560123E+00 -8.456380048E+00  6.700522151E+02  6.701402645E+02  1.321449896E-05  0.00000E+00  9.000E+00
       2     1     1     2   515     0 -5.441901779E+00  4.726099909E+00  4.903821830E+02  4.904352604E+02  3.300000131E-01  0.00000E+00  9.000E+00
      21     1     1     2   512   515 -1.376658344E+00  3.730280138E+00  1.350220707E+01  1.407550262E+01  5.331201500E-07  0.00000E+00  9.000E+00
</event>
<event>
      5  10001  2.40292E+09  1.06689E+01 -1.00000E+00  1.92505E-01
      -1    -1     0     0     0   511  0.000000000E+00  0.000000000E+00  7.267017067E+00  7.267017067E+00  0.000000000E+00  0.00000E+00  9.000E+00
       2    -1     0     0   513     0  0.000000000E+00  0.000000000E+00 -4.729713841E+02  4.729713841E+02  0.000000000E+00  0.00000E+00  9.000E+00
      -1     1     1     2     0   515 -6.956552886E+00 -1.694394350E+01 -6.887987288E+00  1.957151293E+01  3.300000131E-01  0.00000E+00  9.000E+00
      21     1     1     2   513   511  7.055895072E+00  6.275685327E+00 -2.507403185E+01  2.679322591E+01  5.840038640E-07  0.00000E+00  9.000E+00
       2     1     1     2   515     0 -9.934218562E-02  1.066825818E+01 -4.337423479E+02  4.338736623E+02  3.300000131E-01  0.00000E+00  9.000E+00
</event>
<event>
      5  10001  2.40292E+09  1.52205E+01 -1.00000E+00  1.76741E-01
      21    -1     0     0   512   513  0.000000000E+00  0.000000000E+00  1.798407842E+01  1.798407842E+01  0.000000000E+00  0.00000E+00  9.000E+00
      21    -1     0     0   515   514  0.000000000E+00  0.000000000E+00 -1.215396214E+01  1.215396214E+01  0.000000000E+00  0.00000E+00  9.000E+00
      21     1     1     2   512   514  8.782669532E+00 -1.979531966E-01 -5.402823570E+00  1.031333952E+01  1.884864366E-07  0.00000E+00  9.000E+00
      21     1     1     2   511   513 -7.290376772E+00  3.020546298E+00 -2.608925943E-01  7.895654398E+00  1.873046918E-07  0.00000E+00  9.000E+00
      21     1     1     2   515   511 -1.492292760E+00 -2.822593102E+00  1.149383245E+01  1.192904664E+01  1.685873940E-07  0.00000E+00  9.000E+00
</event>
<event>
      5  10001  2.40292E+09  9.55419E+00 -1.00000E+00  1.98015E-01
      21    -1     0     0   511   513  0.000000000E+00  0.000000000E+00  2.760714346E+02  2.760714346E+02  0.000000000E+00  0.00000E+00  9.000E+00
       2    -1     0     0   513     0  0.000000000E+00  0.000000000E+00 -1.310751028E+00  1.310751028E+00  0.000000000E+00  0.00000E+00  9.000E+00
      21     1     1     2   511   515 -4.272097527E+00  1.145573023E+01  1.988115491E+02  1.991871397E+02  0.000000000E+00  0.00000E+00  9.000E+00
       2     1     1     2   512     0  1.084330179E+00 -5.923316776E+00  8.377708922E+00  1.032261403E+01  3.300000131E-01  0.00000E+00  9.000E+00
      21     1     1     2   515   512  3.187767347E+00 -5.532413451E+00  6.757142556E+01  6.787243189E+01  9.536743164E-07  0.00000E+00  9.000E+00
</event>
<event>
      5  10001  2.40292E+09  1.29501E+01 -1.00000E+00  1.83563E-01
      -4    -1     0     0     0   514  0.000000000E+00  0.000000000E+00  4.342518015E+00  4.342518015E+00  0.000000000E+00  0.00000E+00  9.000E+00
      21    -1     0     0   513   512  0.000000000E+00  0.000000000E+00 -1.293743146E+02  1.293743146E+02  0.000000000E+00  0.00000E+00  9.000E+00
      -4     1     1     2     0   512 -1.315101331E+01 -1.375049072E+01 -4.193186794E+01  4.607121330E+01  1.500000000E+00  0.00000E+00  9.000E+00
      21     1     1     2   511   514  2.133657754E+00  6.974645429E+00 -5.932531033E+00  9.401760405E+00  3.674277069E-07  0.00000E+00  9.000E+00
      21     1     1     2   513   511  1.101735555E+01  6.775845291E+00 -7.716739764E+01  7.824385894E+01  1.348699152E-06  0.00000E+00  9.000E+00
</event>
<event>
      5  10001  2.40292E+09  5.23121E+00 -1.00000E+00  2.35051E-01
       1    -1     0     0   512     0  0.000000000E+00  0.000000000E+00  1.083566696E+02  1.083566696E+02  0.000000000E+00  0.00000E+00  9.000E+00
      21    -1     0     0   515   514  0.000000000E+00  0.000000000E+00 -8.224782619E+01  8.224782619E+01  0.000000000E+00  0.00000E+00  9.000E+00
      21     1     1     2   512   511 -8.179431488E+00  1.398420733E+01  4.352980640E+01  4.644679967E+01  4.768371582E-07  0.00000E+00  9.000E+00
       1     1     1     2   515     0  3.896908997E+00 -1.698842107E+01  6.208183259E+01  6.448298370E+01  3.300000131E-01  0.00000E+00  9.000E+00
      21     1     1     2   511   514  4.282522491E+00  3.004213740E+00 -7.950279557E+01  7.967471244E+01  9.536743164E-07  0.00000E+00  9.000E+00
</event>
<event>
      5  10001  2.40292E+09  4.03893E+00 -1.00000E+00  2.62376E-01
      21    -1     0     0   513   514  0.000000000E+00  0.000000000E+00  9.157075387E+00  9.157075387E+00  0.000000000E+00  0.00000E+00  9.000E+00
      21    -1     0     0   511   516  0.000000000E+00  0.000000000E+00 -4.381891689E+01  4.381891689E+01  0.000000000E+00  0.00000E+00  9.000E+00
      21     1     1     2   513   516 -1.121674787E+01  1.459491651E+01 -2.200329312E+01  2.868748732E+01  4.129530925E-07  0.00000E+00  9.000E+00
      21     1     1     2   512   514  9.096019013E+00 -1.534182947E+01 -1.292201245E+01  2.202470656E+01  5.057621821E-07  0.00000E+00  9.000E+00
      21     1     1     2   511   512  2.120728854E+00  7.469129631E-01  2.634640687E-01  2.263798392E+00  8.535712389E-08  0.00000E+00  9.000E+00
</event>
<event>
      5  10001  2.40292E+09  6.98332E+00 -1.00000E+00  2.15629E-01
       2    -1     0     0   511     0  0.000000000E+00  0.000000000E+00  6.663448046E+02  6.663448046E+02  0.000000000E+00  0.00000E+00  9.000E+00
      21    -1     0     0   515   513  0.000000000E+00  0.000000000E+00 -7.075791237E-01  7.075791237E-01  0.000000000E+00  0.00000E+00  9.000E+00
      21     1     1     2   511   512  1.234667135E+01 -1.384913408E-01  3.914970501E+02  3.916917151E+02  5.394796609E-06  0.00000E+00  9.000E+00
       2     1     1     2   515     0 -1.131597966E+01 -6.767693774E+00  2.464832469E+02  2.468358827E+02  3.300000131E-01  0.00000E+00  9.000E+00
      21     1     1     2   512   513 -1.030691691E+00  6.906185114E+00  2.765692846E+01  2.852478589E+01  7.539457465E-07  0.00000E+00  9.000E+00
</event>
<event>
      5  10001  2.40292E+09  9.16738E+00 -1.00000E+00  2.00164E-01
      21    -1     0     0   514   513  0.000000000E+00  0.000000000E+00  9.265235696E+00  9.265235696E+00  0.000000000E+00  0.00000E+00  9.000E+00
      21    -1     0     0   512   516  0.000000000E+00  0.000000000E+00 -2.735763173E+01  2.735763173E+01  0.000000000E+00  0.00000E+00  9.000E+00
      21     1     1     2   514   516  9.569856556E+00  7.644233687E+00 -1.339191078E+00  1.232111586E+01  2.032247439E-07  0.00000E+00  9.000E+00
      21     1     1     2   512   511 -1.143072634E+01 -3.843227673E+00 -7.699735466E+00  1.430796386E+01  2.230201594E-07  0.00000E+00  9.000E+00
      21     1     1     2   511   513  1.860869780E+00 -3.801006015E+00 -9.053469493E+00  9.993787717E+00  1.685873940E-07  0.00000E+00  9.000E+00
</event>
<event>
      5  10001  2.40292E+09  1.64158E+01 -1.00000E+00  1.73726E-01
      21    -1     0     0   515   512  0.000000000E+00  0.000000000E+00  9.843405701E+01  9.843405701E+01  0.000000000E+00  0.00000E+00  9.000E+00
      21    -1     0     0   517   513  0.000000000E+00  0.000000000E+00 -1.586260972E+00  1.586260972E+00  0.000000000E+00  0.00000E+00  9.000E+00
      21     1     1     2   515   513  5.237065571E-01  5.473634173E+00  1.448534775E+01  1.549387747E+01  3.371747881E-07  0.00000E+00  9.000E+00
      21     1     1     2   517   514 -1.990338680E+00 -2.591217098E+00  8.091884464E+01  8.098478420E+01  1.907348633E-06  0.00000E+00  9.000E+00
      21     1     1     2   514   512  1.466632123E+00 -2.882417075E+00  1.443603657E+00  3.541656321E+00  2.580956828E-07  0.00000E+00  9.000E+00
</event>
<event>
      5  10001  2.40292E+09  5.26478E+00 -1.00000E+00  2.34581E-01
       2    -1     0     0   513     0  0.000000000E+00  0.000000000E+00  1.160272122E+03  1.160272122E+03  0.000000000E+00  0.00000E+00  9.000E+00
      21    -1     0     0   515   514  0.000000000E+00  0.000000000E+00 -1.775484447E+00  1.775484447E+00  0.000000000E+00  0.00000E+00  9.000E+00
      21     1     1     2   513   514  2.588070676E+00  8.311225893E+00  3.666012559E+01  3.767942932E+01  9.536743164E-07  0.00000E+00  9.000E+00
       2     1     1     2   511     0 -4.124839977E+00 -1.334665349E+01  1.117388893E+03  1.117476261E+03  3.300000131E-01  0.00000E+00  9.000E+00
      21     1     1     2   515   511  1.536769301E+00  5.035427602E+00  4.447619304E+00  6.891916169E+00  1.788139343E-07  0.00000E+00  9.000E+00
</event>
<event>
      5  10001  2.40292E+09  2.44468E+01 -1.00000E+00  1.59444E-01
      21    -1     0     0   512   511  0.000000000E+00  0.000000000E+00  3.899494146E+02  3.899494146E+02  0.000000000E+00  0.00000E+00  9.000E+00
      21    -1     0     0   515   516  0.000000000E+00  0.000000000E+00 -7.349046661E+00  7.349046661E+00  0.000000000E+00  0.00000E+00  9.000E+00
      21     1     1     2   512   516 -7.454645996E+00 -6.903843038E+00  3.655021468E+02  3.656433428E+02  5.394796609E-06  0.00000E+00  9.000E+00
      21     1     1     2   513   511  1.593653919E+01  2.940727016E+00  1.495331961E+01  2.205046313E+01  1.685873940E-07  0.00000E+00  9.000E+00
      21     1     1     2   515   513 -8.481893198E+00  3.963116022E+00  2.144901446E+00  9.604655279E+00  5.454720622E-07  0.00000E+00  9.000E+00
</event>
<event>
      5  10001  2.40292E+09  7.00830E+00 -1.00000E+00  2.15410E-01
      21    -1     0     0   514   515  0.000000000E+00  0.000000000E+00  2.228758988E+00  2.228758988E+00  0.000000000E+00  0.00000E+00  9.000E+00
      -1    -1     0     0     0   514  0.000000000E+00  0.000000000E+00 -1.127613107E+02  1.127613107E+02  0.000000000E+00  0.00000E+00  9.000E+00
      -1     1     1     2     0   511 -3.050030054E+00 -1.030229387E+01 -8.385231247E+01  8.453850690E+01  3.300000131E-01  0.00000E+00  9.000E+00
      21     1     1     2   512   515  6.599963842E+00  6.311255673E+00 -1.428489135E+01  1.695433844E+01  2.920019320E-07  0.00000E+00  9.000E+00
      21     1     1     2   511   512 -3.549933789E+00  3.991038198E+00 -1.239534785E+01  1.349722431E+01  1.685873940E-07  0.00000E+00  9.000E+00
</event>
<event>
      5  10001  2.40292E+09  2.02716E+01 -1.00000E+00  1.65846E-01
      21    -1     0     0   513   512  0.000000000E+00  0.000000000E+00  4.264356030E+01  4.264356030E+01  0.000000000E+00  0.00000E+00  9.000E+00
      21    -1     0     0   511   516  0.000000000E+00  0.000000000E+00 -1.405722569E+02  1.405722569E+02  0.000000000E+00  0.00000E+00  9.000E+00
      21     1     1     2   513   516 -4.869727827E+01 -5.008956499E+01 -3.182009521E+01  7.676527790E+01  5.840038640E-07  0.00000E+00  9.000E+00
      21     1     1     2   511   514  5.449828346E+01  4.020946854E+01 -6.659507953E+01  9.498299257E+01  9.536743164E-07  0.00000E+00  9.000E+00
      21     1     1     2   514   512 -5.801005190E+00  9.880096452E+00  4.864781384E-01  1.146754673E+01  2.563151332E-07  0.00000E+00  9.000E+00
</event>
<event>
      5  10001  2.40292E+09  6.93596E+00 -1.00000E+00  2.16048E-01
      21    -1     0     0   514   511  0.000000000E+00  0.000000000E+00  1.721148077E+00  1.721148077E+00  0.000000000E+00  0.00000E+00  9.000E+00
      -3    -1     0     0     0   515  0.000000000E+00  0.000000000E+00 -6.992051271E+01  6.992051271E+01  0.000000000E+00  0.00000E+00  9.000E+00
      -3     1     1     2     0   513  5.399360793E+00 -3.256765627E+00 -2.269188866E+01  2.355698262E+01  5.000000000E-01  0.00000E+00  9.000E+00
      21     1     1     2   514   515 -9.317166863E+00 -5.310859757E-01 -2.102587527E+01  2.300389275E+01  0.000000000E+00  0.00000E+00  9.000E+00
      21     1     1     2   513   511  3.917806071E+00  3.787851603E+00 -2.448160069E+01  2.508078541E+01  3.371747881E-07  0.00000E+00  9.000E+00
</event>
<event>
      5  10001  2.40292E+09  1.09192E+01 -1.00000E+00  1.91388E-01
      21    -1     0     0   515   511  0.000000000E+00  0.000000000E+00  8.642628657E+01  8.642628657E+01  0.000000000E+00  0.00000E+00  9.000E+00
      21    -1     0     0   512   515  0.000000000E+00  0.000000000E+00 -7.674927737E+00  7.674927737E+00  0.000000000E+00  0.00000E+00  9.000E+00
      -1     1     1     2     0   511 -1.305974503E+00 -1.023399532E+01  8.107300360E+01  8.172748034E+01  3.300000131E-01  0.00000E+00  9.000E+00
       1     1     1     2   514     0  2.586395770E+00  3.831544726E+00  1.421492315E+00  4.847650820E+00  3.300000131E-01  0.00000E+00  9.000E+00
      21     1     1     2   512   514 -1.280421267E+00  6.402450598E+00 -3.743137085E+00  7.526083146E+00  4.823927300E-07  0.00000E+00  9.000E+00
</event>
<event>
      5  10001  2.40292E+09  8.08945E+00 -1.00000E+00  2.06976E-01
      21    -1     0     0   513   516  0.000000000E+00  0.000000000E+00  3.934151422E+00  3.934151422E+00  0.000000000E+00  0.00000E+00  9.000E+00
      21    -1     0     0   511   513  0.000000000E+00  0.000000000E+00 -2.610272532E+02  2.610272532E+02  0.000000000E+00  0.00000E+00  9.000E+00
      21     1     1     2   514   516 -5.581494900E+00 -1.152210122E+01 -1.051229540E+01  1.656563480E+01  5.840038640E-07  0.00000E+00  9.000E+00
      21     1     1     2   512   514  5.534914765E-01  1.785917031E+01 -9.942298535E+01  1.010157727E+02  0.000000000E+00  0.00000E+00  9.000E+00
      21     1     1     2   511   512  5.028003424E+00 -6.337069094E+00 -1.471578211E+02  1.473799972E+02  1.907348633E-06  0.00000E+00  9.000E+00
</event>
<event>
      5  10001  2.40292E+09  2.69237E+00 -1.00000E+00  3.11740E-01
      21    -1     0     0   515   512  0.000000000E+00  0.000000000E+00  1.399969359E+02  1.399969359E+02  0.000000000E+00  0.00000E+00  9.000E+00
      21    -1     0     0   511   515  0.000000000E+00  0.000000000E+00 -5.157802910E+00  5.157802910E+00  0.000000000E+00  0.00000E+00  9.000E+00
      21     1     1     2   511   517 -6.702876352E+00  7.377274034E+00  7.407975420E-02  9.967858916E+00  2.609515332E-07  0.00000E+00  9.000E+00
      21     1     1     2   517   513  6.218620676E+00 -5.014051174E+00  8.880340178E+01  8.916196566E+01  1.651812370E-06  0.00000E+00  9.000E+00
      21     1     1     2   513   512  4.842556764E-01 -2.363222860E+00  4.596165145E+01  4.602491423E+01  0.000000000E+00  0.00000E+00  9.000E+00
</event>
<event>
      5  10001  2.40292E+09  1.04978E+01 -1.00000E+00  1.93292E-01
      21    -1     0     0   515   516  0.000000000E+00  0.000000000E+00  8.031223979E+01  8.031223979E+01  0.000000000E+00  0.00000E+00  9.000E+00
      21    -1     0     0   512   514  0.000000000E+00  0.000000000E+00 -1.309738989E+02  1.309738989E+02  0.000000000E+00  0.00000E+00  9.000E+00
      21     1     1     2   512   511  1.917409584E+00 -1.429341760E+01 -1.083999763E+02  1.093550781E+02  1.907348633E-06  0.00000E+00  9.000E+00
      21     1     1     2   511   516 -1.150723683E+01  1.856421639E+01 -1.623638294E+01  2.721519356E+01  9.830249847E-07  0.00000E+00  9.000E+00
      21     1     1     2   515   514  9.589827243E+00 -4.270798790E+00  7.397470018E+01  7.471586696E+01  9.536743164E-07  0.00000E+00  9.000E+00
</event>
<event>
      5  10001  2.40292E+09  2.22956E+01 -1.00000E+00  1.62528E-01
       1    -1     0     0   511     0  0.000000000E+00  0.000000000E+00  6.509014255E+02  6.509014255E+02  0.000000000E+00  0.00000E+00  9.000E+00
      21    -1     0     0   513   514  0.000000000E+00  0.000000000E+00 -4.409740103E-01  4.409740103E-01  0.000000000E+00  0.00000E+00  9.000E+00
      21     1     1     2   511   514 -1.038907911E+01  5.365663233E+00  4.479674920E+02  4.481200701E+02  5.394796609E-06  0.00000E+00  9.000E+00
      21     1     1     2   513   512 -2.198063966E+00 -3.858139348E+00  6.158705283E+01  6.174691734E+01  0.000000000E+00  0.00000E+00  9.000E+00
       1     1     1     2   512     0  1.258714308E+01 -1.507523885E+00  1.409059066E+02  1.414754120E+02  3.300000131E-01  0.00000E+00  9.000E+00
</event>
<event>
      5  10001  2.40292E+09  9.69356E+00 -1.00000E+00  1.97273E-01
      21    -1     0     0   515   513  0.000000000E+00  0.000000000E+00  1.151481461E+02  1.151481461E+02  0.000000000E+00  0.00000E+00  9.000E+00
      21    -1     0     0   517   516  0.000000000E+00  0.000000000E+00 -3.746326970E+00  3.746326970E+00  0.000000000E+00  0.00000E+00  9.000E+00
      21     1     1     2   515   516  1.023372670E+01 -1.073851662E+00  5.542086619E+00  1.168747379E+01  3.039252468E-07  0.00000E+00  9.000E+00
      21     1     1     2   517   511 -7.976146325E+00  6.939832356E+00  7.143681763E+01  7.221495065E+01  1.348699152E-06  0.00000E+00  9.000E+00
      21     1     1     2   511   513 -2.257580375E+00 -5.865980694E+00  3.442291489E+01  3.499204864E+01  4.768371582E-07  0.00000E+00  9.000E+00
</event>
<event>
      5  10001  2.40292E+09  4.45350E+00 -1.00000E+00  2.52844E-01
      -3    -1     0     0     0   512  0.000000000E+00  0.000000000E+00  1.447598011E+02  1.447598011E+02  0.000000000E+00  0.00000E+00  9.000E+00
      21    -1     0     0   514   513  0.000000000E+00  0.000000000E+00 -2.102571177E+02  2.102571177E+02  0.000000000E+00  0.00000E+00  9.000E+00
      -3     1     1     2     0   513 -4.057092360E+00  8.122603239E+00  1.440905474E+02  1.443771884E+02  5.000000000E-01  0.00000E+00  9.000E+00
      21     1     1     2   511   512  1.038392889E+00 -1.139689966E+01 -6.614179987E+01  6.712455043E+01  1.907348633E-06  0.00000E+00  9.000E+00
      21     1     1     2   514   511  3.018699472E+00  3.274296421E+00 -1.434460642E+02  1.435151800E+02  1.907348633E-06  0.00000E+00  9.000E+00
</event>
<event>
      5  10001  2.40292E+09  5.97407E+00 -1.00000E+00  2.25686E-01
      21    -1     0     0   514   511  0.000000000E+00  0.000000000E+00  4.878156017E+01  4.878156017E+01  0.000000000E+00  0.00000E+00  9.000E+00
      -3    -1     0     0     0   515  0.000000000E+00  0.000000000E+00 -2.073239539E+01  2.073239539E+01  0.000000000E+00  0.00000E+00  9.000E+00
      -3     1     1     2     0   511  2.930381614E+00  1.462075699E+01 -1.568045228E+01  2.164440471E+01  5.000000000E-01  0.00000E+00  9.000E+00
      21     1     1     2   514   512 -8.324481385E-01 -9.028901683E+00  3.955949906E+01  4.058531755E+01  4.768371582E-07  0.00000E+00  9.000E+00
      21     1     1     2   512   515 -2.097933476E+00 -5.591855305E+00  4.170118008E+00  7.284233304E+00  1.332800375E-07  0.00000E+00  9.000E+00
</event>
<event>
      5  10001  2.40292E+09  3.46387E+00 -1.00000E+00  2.79000E-01
      21    -1     0     0   512   515  0.000000000E+00  0.000000000E+00  8.474021892E+01  8.474021892E+01  0.000000000E+00  0.00000E+00  9.000E+00
      -1    -1     0     0     0   513  0.000000000E+00  0.000000000E+00 -2.773524413E+00  2.773524413E+00  0.000000000E+00  0.00000E+00  9.000E+00
      -1     1     1     2     0   515  8.947727130E+00 -6.331536717E+00  1.076442406E+01  1.536658399E+01  3.300000131E-01  0.00000E+00  9.000E+00
      21     1     1     2   512   511 -6.347114849E+00  4.001482559E+00  3.609096823E+01  3.686266021E+01  4.768371582E-07  0.00000E+00  9.000E+00
      21     1     1     2   511   513 -2.600612281E+00  2.330054158E+00  3.511130221E+01  3.528449914E+01  6.743495762E-07  0.00000E+00  9.000E+00
</event>
<event>
      5  10001  2.40292E+09  5.97057E+00 -1.00000E+00  2.25725E-01
      21    -1     0     0   514   513  0.000000000E+00  0.000000000E+00  1.906773384E+01  1.906773384E+01  0.000000000E+00  0.00000E+00  9.000E+00
       1    -1     0     0   515     0  0.000000000E+00  0.000000000E+00 -1.109795421E+02  1.109795421E+02  0.000000000E+00  0.00000E+00  9.000E+00
      21     1     1     2   514   516 -1.019341102E+01 -5.016943459E+00  1.196792924E+01  1.650171749E+01  2.920019320E-07  0.00000E+00  9.000E+00
      21     1     1     2   515   513  1.560203236E+01  2.488420306E+00 -8.427822125E+00  1.790653052E+01  1.685873940E-07  0.00000E+00  9.000E+00
       1     1     1     2   516     0 -5.408621346E+00  2.528523153E+00 -9.545191534E+01  9.563902789E+01  3.300000131E-01  0.00000E+00  9.000E+00
</event>
<event>
      5  10001  2.40292E+09  3.28397E+00 -1.00000E+00  2.85308E-01
      21    -1     0     0   511   515  0.000000000E+00  0.000000000E+00  1.941846107E+02  1.941846107E+02  0.000000000E+00  0.00000E+00  9.000E+00
      21    -1     0     0   516   512  0.000000000E+00  0.000000000E+00 -9.602417649E-01  9.602417649E-01  0.000000000E+00  0.00000E+00  9.000E+00
      21     1     1     2   511   512 -9.357518136E+00  3.422072739E+00  3.060722039E+01  3.218812930E+01  5.840038640E-07  0.00000E+00  9.000E+00
      21     1     1     2   516   513  5.962171223E+00 -9.756005604E-01  7.662342230E+01  7.686122642E+01  9.536743164E-07  0.00000E+00  9.000E+00
      21     1     1     2   513   515  3.395346913E+00 -2.446472179E+00  8.599372620E+01  8.609549670E+01  1.348699152E-06  0.00000E+00  9.000E+00
</event>
<event>
      5  10001  2.40292E+09  6.82304E+00 -1.00000E+00  2.17065E-01
      21    -1     0     0   514   513  0.000000000E+00  0.000000000E+00  5.840175523E+01  5.840175523E+01  0.000000000E+00  0.00000E+00  9.000E+00
      21    -1     0     0   511   514  0.000000000E+00  0.000000000E+00 -1.334500887E+02  1.334500887E+02  0.000000000E+00  0.00000E+00  9.000E+00
      21     1     1     2   516   513  1.605055773E-01  1.178507330E+01  5.689360922E+01  5.810160484E+01  0.000000000E+00  0.00000E+00  9.000E+00
      21     1     1     2   515   516 -6.982439126E+00 -1.190820380E+01 -6.430369445E+01  6.576872276E+01  9.536743164E-07  0.00000E+00  9.000E+00
      21     1     1     2   511   515  6.821933549E+00  1.231305003E-01 -6.763824822E+01  6.798151631E+01  9.536743164E-07  0.00000E+00  9.000E+00
</event>
<event>
      5  10001  2.40292E+09  4.89158E+00 -1.00000E+00  2.44353E-01
      21    -1     0     0   512   513  0.000000000E+00  0.000000000E+00  2.885976697E+00  2.885976697E+00  0.000000000E+00  0.00000E+00  9.000E+00
      21    -1     0     0   511   514  0.000000000E+00  0.000000000E+00 -1.859844503E+02  1.859844503E+02  0.000000000E+00  0.00000E+00  9.000E+00
      21     1     1     2   512   517 -2.821791109E+00  1.186384493E+01 -2.263591111E+01  2.571182205E+01  5.840038640E-07  0.00000E+00  9.000E+00
      21     1     1     2   511   513 -1.221111430E-01 -1.577038010E+01 -4.670282235E+01  4.929374620E+01  9.536743164E-07  0.00000E+00  9.000E+00
      21     1     1     2   517   514  2.943902252E+00  3.906535166E+00 -1.137597401E+02  1.138648587E+02  1.348699152E-06  0.00000E+00  9.000E+00
</event>
<event>
      5  10001  2.40292E+09  3.61063E+00 -1.00000E+00  2.74292E-01
      21    -1     0     0   515   511  0.000000000E+00  0.000000000E+00  1.375840346E+01  1.375840346E+01  0.000000000E+00  0.00000E+00  9.000E+00
      -4    -1     0     0     0   514  0.000000000E+00  0.000000000E+00 -4.371837100E+01  4.371837100E+01  0.000000000E+00  0.00000E+00  9.000E+00
      21     1     1     2   512   511  5.617576690E+00 -1.088414743E-01 -1.032696789E+01  1.175649949E+01  1.685873940E-07  0.00000E+00  9.000E+00
      21     1     1     2   515   514 -1.687075883E+01 -2.598619885E+00  5.562260463E+00  1.795310753E+01  3.475518164E-07  0.00000E+00  9.000E+00
      -4     1     1     2     0   512  1.125318214E+01  2.707461359E+00 -2.519526012E+01  2.776716744E+01  1.500000000E+00  0.00000E+00  9.000E+00
</event>
<event>
      5  10001  2.40292E+09  8.80543E+00 -1.00000E+00  2.02306E-01
      21    -1     0     0   513   516  0.000000000E+00  0.000000000E+00  4.886709855E+01  4.886709855E+01  0.000000000E+00  0.00000E+00  9.000E+00
      21    -1     0     0   511   514  0.000000000E+00  0.000000000E+00 -2.423565565E+01  2.423565565E+01  0.000000000E+00  0.00000E+00  9.000E+00
      21     1     1     2   513   512 -4.230093938E+00  1.160844514E+01  4.149179952E+01  4.329225243E+01  6.743495762E-07  0.00000E+00  9.000E+00
      21     1     1     2   511   516 -3.807185191E+00 -1.520536332E+01 -9.459132585E+00  1.830772848E+01  4.616955931E-07  0.00000E+00  9.000E+00
      21     1     1     2   512   514  8.037279128E+00  3.596918183E+00 -7.401224035E+00  1.150277329E+01  2.528810911E-07  0.00000E+00  9.000E+00
</event>
<event>
      5  10001  2.40292E+09  1.27615E+01 -1.00000E+00  1.84210E-01
       2    -1     0     0   511     0  0.000000000E+00  0.000000000E+00  1.239443318E+03  1.239443318E+03  0.000000000E+00  0.00000E+00  9.000E+00
      21    -1     0     0   513   514  0.000000000E+00  0.000000000E+00 -1.178544927E+01  1.178544927E+01  0.000000000E+00  0.00000E+00  9.000E+00
      21     1     1     2   511   514 -7.546822005E-01  1.577488476E+01  1.482170859E+02  1.490561005E+02  1.907348633E-06  0.00000E+00  9.000E+00
       2     1     1     2   515     0  6.787738884E+00 -4.529566497E+00  1.087204465E+03  1.087235139E+03  3.300000131E-01  0.00000E+00  9.000E+00
      21     1     1     2   513   515 -6.033056683E+00 -1.124531826E+01 -7.763682469E+00  1.493752728E+01  5.462855929E-07  0.00000E+00  9.000E+00
</event>
<event>
      5  10001  2.40292E+09  1.19754E+01 -1.00000E+00  1.87069E-01
      21    -1     0     0   512   515  0.000000000E+00  0.000000000E+00  2.700091646E+01  2.700091646E+01  0.000000000E+00  0.00000E+00  9.000E+00
      21    -1     0     0   515   511  0.000000000E+00  0.000000000E+00 -2.951794792E+01  2.951794792E+01  0.000000000E+00  0.00000E+00  9.000E+00
      21     1     1     2   514   511  6.284217400E+00 -5.013143917E+00 -1.879410860E+01  2.044117214E+01  2.384185791E-07  0.00000E+00  9.000E+00
       2     1     1     2   512     0 -1.146141101E+01  1.459334146E+01  1.698775278E+01  2.515993247E+01  3.300000131E-01  0.00000E+00  9.000E+00
      -2     1     1     2     0   514  5.177193611E+00 -9.580197540E+00 -7.106756379E-01  1.091775977E+01  3.300000131E-01  0.00000E+00  9.000E+00
</event>
<event>
      5  10001  2.40292E+09  7.82135E+00 -1.00000E+00  2.08894E-01
       2    -1     0     0   511     0  0.000000000E+00  0.000000000E+00  4.041163928E+01  4.041163928E+01  0.000000000E+00  0.00000E+00  9.000E+00
      21    -1     0     0   513   512  0.000000000E+00  0.000000000E+00 -5.727251923E+00  5.727251923E+00  0.000000000E+00  0.00000E+00  9.000E+00
      21     1     1     2   511   512  1.233129698E+01  6.922331390E+00  1.260853256E+01  1.894609855E+01  2.920019320E-07  0.00000E+00  9.000E+00
      21     1     1     2   513   515 -6.519429666E+00 -5.333320862E-01  1.357937992E+01  1.507272256E+01  1.685873940E-07  0.00000E+00  9.000E+00
       2     1     1     2   515     0 -5.811867309E+00 -6.388999304E+00  8.496474869E+00  1.212007009E+01  3.300000131E-01  0.00000E+00  9.000E+00
</event>
<event>
      5  10001  2.40292E+09  1.46530E+01 -1.00000E+00  1.78299E-01
       1    -1     0     0   511     0  0.000000000E+00  0.000000000E+00  2.003737768E+02  2.003737768E+02  0.000000000E+00  0.00000E+00  9.000E+00
      21    -1     0     0   515   511  0.000000000E+00  0.000000000E+00 -4.159110911E+00  4.159110911E+00  0.000000000E+00  0.00000E+00  9.000E+00
      21     1     1     2   515   512 -5.894633262E+00  3.870093470E+00  1.073476270E+01  1.284365427E+01  3.576278687E-07  0.00000E+00  9.000E+00
       1     1     1     2   514     0  9.516961641E+00 -4.884197895E+00  1.872333893E+02  1.875390064E+02  3.300000131E-01  0.00000E+00  9.000E+00
      21     1     1     2   512   514 -3.622328379E+00  1.014104425E+00 -1.753486145E+00  4.150227022E+00  7.278725351E-07  0.00000E+00  9.000E+00
</event>
<event>
      5  10001  2.40292E+09  3.72738E+00 -1.00000E+00  2.70794E-01
      21    -1     0     0   513   514  0.000000000E+00  0.000000000E+00  2.043072039E+01  2.043072039E+01  0.000000000E+00  0.00000E+00  9.000E+00
       5    -1     0     0   512     0  0.000000000E+00  0.000000000E+00 -6.416483553E+00  6.416483553E+00  0.000000000E+00  0.00000E+00  9.000E+00
      21     1     1     2   512   514 -9.782081276E+00 -1.774260256E+00  5.676540189E+00  1.144815365E+01  2.064765462E-07  0.00000E+00  9.000E+00
      21     1     1     2   513   511  6.125398430E+00  6.201997138E-01  6.575192232E+00  9.007680417E+00  1.884864366E-07  0.00000E+00  9.000E+00
       5     1     1     2   511     0  3.656682846E+00  1.154060542E+00  1.762504412E+00  6.391369869E+00  4.800000191E+00  0.00000E+00  9.000E+00
</event>
<event>
      5  10001  2.40292E+09  8.92994E+00 -1.00000E+00  2.01554E-01
      21    -1     0     0   515   514  0.000000000E+00  0.000000000E+00  1.987128259E+02  1.987128259E+02  0.000000000E+00  0.00000E+00  9.000E+00
      21    -1     0     0   512   516  0.000000000E+00  0.000000000E+00 -4.376760224E+00  4.376760224E+00  0.000000000E+00  0.00000E+00  9.000E+00
      21     1     1     2   515   516 -7.678320803E+00 -6.876085066E+00  3.023661540E+00  1.074149363E+01  5.213277246E-07  0.00000E+00  9.000E+00
      21     1     1     2   513   514  2.859254784E+00  1.978987410E+00  1.682038602E+02  1.682398000E+02  2.697398305E-06  0.00000E+00  9.000E+00
      21     1     1     2   512   513  4.819066020E+00  4.897097656E+00  2.310854392E+01  2.410829245E+01  0.000000000E+00  0.00000E+00  9.000E+00
</event>
<event>
      5  10001  2.40292E+09  4.45883E+00 -1.00000E+00  2.52732E-01
      21    -1     0     0   511   513  0.000000000E+00  0.000000000E+00  5.432909379E+01  5.432909379E+01  0.000000000E+00  0.00000E+00  9.000E+00
      21    -1     0     0   512   514  0.000000000E+00  0.000000000E+00 -2.140537912E+01  2.140537912E+01  0.000000000E+00  0.00000E+00  9.000E+00
      21     1     1     2   511   517 -1.486150746E+01 -3.015982658E+00  2.931739206E+01  3.300712093E+01  3.371747881E-07  0.00000E+00  9.000E+00
      21     1     1     2   512   513  1.303371799E+01  7.082964630E+00  2.047247034E+01  2.528177673E+01  0.000000000E+00  0.00000E+00  9.000E+00
      21     1     1     2   517   514  1.827789472E+00 -4.066981972E+00 -1.686614773E+01  1.744557525E+01  0.000000000E+00  0.00000E+00  9.000E+00
</event>
<event>
      5  10001  2.40292E+09  1.24952E+01 -1.00000E+00  1.85148E-01
      21    -1     0     0   515   512  0.000000000E+00  0.000000000E+00  2.129443005E+02  2.129443005E+02  0.000000000E+00  0.00000E+00  9.000E+00
      21    -1     0     0   516   515  0.000000000E+00  0.000000000E+00 -4.001174262E+00  4.001174262E+00  0.000000000E+00  0.00000E+00  9.000E+00
      21     1     1     2   516   514  2.303722259E+00 -1.217231430E+01  7.238855368E+00  1.434828905E+01  6.419616708E-07  0.00000E+00  9.000E+00
      21     1     1     2   514   511  5.307209275E+00  9.590124803E+00  1.147650447E+02  1.152872606E+02  1.348699152E-06  0.00000E+00  9.000E+00
      21     1     1     2   511   512 -7.610931534E+00  2.582189498E+00  8.693922615E+01  8.730992512E+01  1.348699152E-06  0.00000E+00  9.000E+00
</event>
<event>
      5  10001  2.40292E+09  5.22350E+00 -1.00000E+00  2.35159E-01
      21    -1     0     0   515   514  0.000000000E+00  0.000000000E+00  8.447693206E+00  8.447693206E+00  0.000000000E+00  0.00000E+00  9.000E+00
      21    -1     0     0   512   513  0.000000000E+00  0.000000000E+00 -7.245785697E+01  7.245785697E+01  0.000000000E+00  0.00000E+00  9.000E+00
      21     1     1     2   512   516 -1.350391996E+01  1.101445920E+01 -4.726081695E+01  5.037121187E+01  6.743495762E-07  0.00000E+00  9.000E+00
      21     1     1     2   516   514  8.300977207E+00 -1.055144016E+01 -2.021409523E+01  2.426620609E+01  5.331201500E-07  0.00000E+00  9.000E+00
      21     1     1     2   515   513  5.202942751E+00 -4.630190372E-01  3.464748419E+00  6.268132218E+00  1.884864366E-07  0.00000E+00  9.000E+00
</event>
<event>
      5  10001  2.40292E+09  5.43570E+00 -1.00000E+00  2.32263E-01
      21    -1     0     0   511   513  0.000000000E+00  0.000000000E+00  1.249256034E+02  1.249256034E+02  0.000000000E+00  0.00000E+00  9.000E+00
      21    -1     0     0   517   511  0.000000000E+00  0.000000000E+00 -9.627475264E+00  9.627475264E+00  0.000000000E+00  0.00000E+00  9.000E+00
      21     1     1     2   517   512 -2.302316054E+01  1.988931228E+00  7.556711104E+00  2.431307573E+01  4.842304232E-07  0.00000E+00  9.000E+00
      21     1     1     2   514   513  5.640952346E+00 -1.877469998E+00  2.887908240E+01  2.948468479E+01  4.768371582E-07  0.00000E+00  9.000E+00
      21     1     1     2   512   514  1.738220819E+01 -1.114612302E-01  7.886233468E+01  8.075531819E+01  9.536743164E-07  0.00000E+00  9.000E+00
</event>
<event>
      5  10001  2.40292E+09  9.51583E+00 -1.00000E+00  1.98222E-01
      21    -1     0     0   515   514  0.000000000E+00  0.000000000E+00  8.064198977E+01  8.064198977E+01  0.000000000E+00  0.00000E+00  9.000E+00
      21    -1     0     0   512   516  0.000000000E+00  0.000000000E+00 -1.104913069E+01  1.104913069E+01  0.000000000E+00  0.00000E+00  9.000E+00
      21     1     1     2   515   516 -5.987387551E+00 -8.444552283E+00 -7.538283192E+00  1.280566228E+01  3.264680848E-07  0.00000E+00  9.000E+00
      21     1     1     2   511   514  9.707024980E+00  3.478690428E+00  5.034344548E+01  5.138861863E+01  1.168007728E-06  0.00000E+00  9.000E+00
      21     1     1     2   512   511 -3.719637429E+00  4.965861855E+00  2.678769679E+01  2.749683956E+01  3.371747881E-07  0.00000E+00  9.000E+00
</event>
<event>
      5  10001  2.40292E+09  6.74773E+00 -1.00000E+00  2.17759E-01
       2    -1     0     0   512     0  0.000000000E+00  0.000000000E+00  6.919194234E+01  6.919194234E+01  0.000000000E+00  0.00000E+00  9.000E+00
       2    -1     0     0   513     0  0.000000000E+00  0.000000000E+00 -3.335706778E+02  3.335706778E+02  0.000000000E+00  0.00000E+00  9.000E+00
      21     1     1     2   512   511  5.945677728E+00  1.404262497E+01  3.627959752E+01  3.935423225E+01  4.768371582E-07  0.00000E+00  9.000E+00
       2     1     1     2   513     0 -6.512609950E+00 -7.318774365E+00  3.057410576E+01  3.210706137E+01  3.300000131E-01  0.00000E+00  9.000E+00
       2     1     1     2   511     0  5.669322225E-01 -6.723850607E+00 -3.312324387E+02  3.313013265E+02  3.300000131E-01  0.00000E+00  9.000E+00
</event>
<event>
      5  10001  2.40292E+09  6.27820E+00 -1.00000E+00  2.22381E-01
       1    -1     0     0   512     0  0.000000000E+00  0.000000000E+00  1.302132278E+02  1.302132278E+02  0.000000000E+00  0.00000E+00  9.000E+00
      21    -1     0     0   511   513  0.000000000E+00  0.000000000E+00 -1.120922056E+01  1.120922056E+01  0.000000000E+00  0.00000E+00  9.000E+00
      21     1     1     2   511   514  6.312969746E+00  1.321593234E+01  8.234263676E+00  1.680230796E+01  6.307962682E-07  0.00000E+00  9.000E+00
       1     1     1     2   514     0 -6.469922953E+00 -6.939825193E+00  1.160372521E+02  1.164249709E+02  3.300000131E-01  0.00000E+00  9.000E+00
      21     1     1     2   512   513  1.569532060E-01 -6.276107143E+00 -5.267508600E+00  8.195169433E+00  1.884864366E-07  0.00000E+00  9.000E+00
</event>
<event>
      5  10001  2.40292E+09  8.72434E+00 -1.00000E+00  2.02805E-01
      21    -1     0     0   514   513  0.000000000E+00  0.000000000E+00  1.623845920E+02  1.623845920E+02  0.000000000E+00  0.00000E+00  9.000E+00
      21    -1     0     0   511   516  0.000000000E+00  0.000000000E+00 -4.564258656E+00  4.564258656E+00  0.000000000E+00  0.00000E+00  9.000E+00
      21     1     1     2   515   516  1.394255787E+01 -1.438636304E+01  2.901921888E+01  3.526297528E+01  4.768371582E-07  0.00000E+00  9.000E+00
      21     1     1     2   511   513 -7.589619755E+00  8.406869802E+00  2.417447112E+01  2.669612035E+01  4.768371582E-07  0.00000E+00  9.000E+00
      21     1     1     2   514   515 -6.352938116E+00  5.979493234E+00  1.046266434E+02  1.049897551E+02  1.348699152E-06  0.00000E+00  9.000E+00
</event>
<event>
      5  10001  2.40292E+09  1.06526E+01 -1.00000E+00  1.92580E-01
      21    -1     0     0   512   511  0.000000000E+00  0.000000000E+00  2.637306728E+02  2.637306728E+02  0.000000000E+00  0.00000E+00  9.000E+00
      21    -1     0     0   517   512  0.000000000E+00  0.000000000E+00 -8.296877672E-01  8.296877672E-01  0.000000000E+00  0.00000E+00  9.000E+00
      21     1     1     2   517   515 -3.869854802E+00 -1.056893768E+01  5.559144125E+01  5.671936671E+01  6.743495762E-07  0.00000E+00  9.000E+00
      21     1     1     2   513   511 -1.807528409E+00  7.141900150E+00  7.378475586E+01  7.415162907E+01  1.348699152E-06  0.00000E+00  9.000E+00
      21     1     1     2   515   513  5.677383210E+00  3.427037533E+00  1.335247879E+02  1.336893648E+02  0.000000000E+00  0.00000E+00  9.000E+00
</event>
<event>
      5  10001  2.40292E+09  2.42871E+00 -1.00000E+00  3.27631E-01
      -4    -1     0     0     0   514  0.000000000E+00  0.000000000E+00  4.868073944E+00  4.868073944E+00  0.000000000E+00  0.00000E+00  9.000E+00
      21    -1     0     0   511   512  0.000000000E+00  0.000000000E+00 -1.352656552E+02  1.352656552E+02  0.000000000E+00  0.00000E+00  9.000E+00
      -4     1     1     2     0   512  1.525008710E+01 -1.305507704E+01 -2.313248593E+01  3.066532404E+01  1.500000000E+00  0.00000E+00  9.000E+00
      21     1     1     2   511   516 -1.635918326E+01  1.180017176E+01 -9.973873670E+01  1.017579605E+02  0.000000000E+00  0.00000E+00  9.000E+00
      21     1     1     2   516   514  1.109096159E+00  1.254905281E+00 -7.526358634E+00  7.710444595E+00  0.000000000E+00  0.00000E+00  9.000E+00
</event>
<event>
      5  10001  2.40292E+09  1.67153E+01 -1.00000E+00  1.73020E-01
      21    -1     0     0   513   511  0.000000000E+00  0.000000000E+00  1.547755200E+01  1.547755200E+01  0.000000000E+00  0.00000E+00  9.000E+00
      21    -1     0     0   512   513  0.000000000E+00  0.000000000E+00 -3.844749076E+02  3.844749076E+02  0.000000000E+00  0.00000E+00  9.000E+00
      21     1     1     2   514   515 -8.311678781E+00  1.158767809E+01 -1.861731922E+00  1.438138844E+01  2.138718977E-07  0.00000E+00  9.000E+00
      21     1     1     2   515   511  2.031756665E+01  4.240413663E-02 -2.407076556E+00  2.045970015E+01  2.811545471E-07  0.00000E+00  9.000E+00
      21     1     1     2   512   514 -1.200588787E+01 -1.163008223E+01 -3.647285472E+02  3.651113711E+02  5.394796609E-06  0.00000E+00  9.000E+00
</event>
<event>
      5  10001  2.40292E+09  5.03295E+00 -1.00000E+00  2.37931E-01
      21    -1     0     0   515   511  0.000000000E+00  0.000000000E+00  2.127247416E+00  2.127247416E+00  0.000000000E+00  0.00000E+00  9.000E+00
       2    -1     0     0   511     0  0.000000000E+00  0.000000000E+00 -9.812775428E+01  9.812775428E+01  0.000000000E+00  0.00000E+00  9.000E+00
      21     1     1     2   515   512  4.624757487E+00 -1.181396102E+01 -3.556164598E+01  3.775696918E+01  4.768371582E-07  0.00000E+00  9.000E+00
       2     1     1     2   513     0 -1.943539092E+00  1.168140555E+01 -5.651805411E+01  5.774627192E+01  3.300000131E-01  0.00000E+00  9.000E+00
      21     1     1     2   512   513 -2.681218395E+00  1.325554780E-01 -3.920806772E+00  4.751760597E+00  7.300048300E-08  0.00000E+00  9.000E+00
</event>
<event>
      5  10001  2.40292E+09  3.90466E+00 -1.00000E+00  2.65853E-01
      21    -1     0     0   514   516  0.000000000E+00  0.000000000E+00  1.459477236E+01  1.459477236E+01  0.000000000E+00  0.00000E+00  9.000E+00
      21    -1     0     0   515   514  0.000000000E+00  0.000000000E+00 -7.522844214E+01  7.522844214E+01  0.000000000E+00  0.00000E+00  9.000E+00
      21     1     1     2   513   516  9.352100898E+00 -6.370014322E-01 -9.339052341E+00  1.323198627E+01  1.192092896E-07  0.00000E+00  9.000E+00
      21     1     1     2   511   513 -1.309917688E+01  1.735073362E+00  9.116960805E+00  1.605359426E+01  2.064765462E-07  0.00000E+00  9.000E+00
      21     1     1     2   515   511  3.747075980E+00 -1.098071930E+00 -6.041157825E+01  6.053763397E+01  9.536743164E-07  0.00000E+00  9.000E+00
</event>
<event>
      5  10001  2.40292E+09  4.85304E+00 -1.00000E+00  2.45046E-01
      21    -1     0     0   512   513  0.000000000E+00  0.000000000E+00  1.007904976E+01  1.007904976E+01  0.000000000E+00  0.00000E+00  9.000E+00
      21    -1     0     0   515   512  0.000000000E+00  0.000000000E+00 -7.746560308E+01  7.746560308E+01  0.000000000E+00  0.00000E+00  9.000E+00
      21     1     1     2   511   513 -1.897098675E+01 -3.690296031E+00 -2.813170134E+00  1.953024703E+01  2.747638362E-07  0.00000E+00  9.000E+00
      21     1     1     2   514   511  1.336465280E+01  5.724033317E+00 -5.346264731E+01  5.540427023E+01  0.000000000E+00  0.00000E+00  9.000E+00
      21     1     1     2   515   514  5.606333951E+00 -2.033737285E+00 -1.111073587E+01  1.261013558E+01  2.064765462E-07  0.00000E+00  9.000E+00
</event>
<event>
      5  10001  2.40292E+09  9.74714E+00 -1.00000E+00  1.96993E-01
       4    -1     0     0   511     0  0.000000000E+00  0.000000000E+00  1.080206692E+00  1.080206692E+00  0.000000000E+00  0.00000E+00  9.000E+00
      21    -1     0     0   514   511  0.000000000E+00  0.000000000E+00 -4.716438606E+02  4.716438606E+02  0.000000000E+00  0.00000E+00  9.000E+00
      -1     1     1     2     0   516 -9.950176901E+00 -5.084336500E+00 -3.861396783E+02  3.863014582E+02  3.300000131E-01  0.00000E+00  9.000E+00
       4     1     1     2   516     0  1.028088258E+01  9.476025214E+00 -6.412625645E+01  6.564996852E+01  1.500000000E+00  0.00000E+00  9.000E+00
       1     1     1     2   514     0 -3.307056790E-01 -4.391688714E+00 -2.029771914E+01  2.077264062E+01  3.300000131E-01  0.00000E+00  9.000E+00
</event>
<event>
      5  10001  2.40292E+09  5.33952E+00 -1.00000E+00  2.33552E-01
      21    -1     0     0   512   511  0.000000000E+00  0.000000000E+00  6.494305141E+00  6.494305141E+00  0.000000000E+00  0.00000E+00  9.000E+00
      21    -1     0     0   514   513  0.000000000E+00  0.000000000E+00 -1.607999569E+02  1.607999569E+02  0.000000000E+00  0.00000E+00  9.000E+00
      21     1     1     2   512   513 -3.465204282E+00 -1.643456965E+01 -1.356682304E+02  1.367039555E+02  2.697398305E-06  0.00000E+00  9.000E+00
      21     1     1     2   514   515  2.507871987E+00  1.118157144E+01 -2.162368175E+01  2.447244520E+01  7.907449699E-07  0.00000E+00  9.000E+00
      21     1     1     2   515   511  9.573322952E-01  5.252998205E+00  2.986260418E+00  6.117861273E+00  1.737759082E-07  0.00000E+00  9.000E+00
</event>
<event>
      5  10001  2.40292E+09  8.47384E+00 -1.00000E+00  2.04392E-01
       2    -1     0     0   513     0  0.000000000E+00  0.000000000E+00  5.937736123E+02  5.937736123E+02  0.000000000E+00  0.00000E+00  9.000E+00
      21    -1     0     0   515   516  0.000000000E+00  0.000000000E+00 -2.759576390E+00  2.759576390E+00  0.000000000E+00  0.00000E+00  9.000E+00
      21     1     1     2   513   516 -2.256863144E+00  1.222363287E+01  5.621496626E+02  5.622870742E+02  1.078959322E-05  0.00000E+00  9.000E+00
      21     1     1     2   515   512 -2.110719757E+00 -4.763568452E+00  1.319521346E+00  5.374742680E+00  5.155457226E-07  0.00000E+00  9.000E+00
       2     1     1     2   512     0  4.367582901E+00 -7.460064413E+00  2.754485197E+01  2.887137183E+01  3.300000131E-01  0.00000E+00  9.000E+00
</event>
<event>
      5  10001  2.40292E+09  5.49348E+00 -1.00000E+00  2.31507E-01
      21    -1     0     0   511   512  0.000000000E+00  0.000000000E+00  1.637169378E+02  1.637169378E+02  0.000000000E+00  0.00000E+00  9.000E+00
       1    -1     0     0   513     0  0.000000000E+00  0.000000000E+00 -3.181961359E+02  3.181961359E+02  0.000000000E+00  0.00000E+00  9.000E+00
      21     1     1     2   514   512 -1.929140240E+00  1.256581504E+01  1.632377831E+02  1.637320834E+02  0.000000000E+00  0.00000E+00  9.000E+00
       1     1     1     2   511     0  2.061129669E+00 -7.073924180E+00 -2.766397741E+02  2.767380751E+02  3.300000131E-01  0.00000E+00  9.000E+00
      21     1     1     2   513   514 -1.319894294E-01 -5.491890855E+00 -4.107720708E+01  4.144291529E+01  0.000000000E+00  0.00000E+00  9.000E+00
</event>
<event>
      5  10001  2.40292E+09  7.00015E+00 -1.00000E+00  2.15481E-01
      21    -1     0     0   511   513  0.000000000E+00  0.000000000E+00  2.887924565E+01  2.887924565E+01  0.000000000E+00  0.00000E+00  9.000E+00
      21    -1     0     0   512   514  0.000000000E+00  0.000000000E+00 -5.705078799E+01  5.705078799E+01  0.000000000E+00  0.00000E+00  9.000E+00
      21     1     1     2   515   514 -1.167150423E-01 -1.002611197E+01 -4.438365172E+01  4.550214373E+01  4.768371582E-07  0.00000E+00  9.000E+00
      21     1     1     2   512   513 -6.882981989E+00  9.946850509E+00 -8.473639259E+00  1.476881303E+01  2.064765462E-07  0.00000E+00  9.000E+00
      21     1     1     2   511   515  6.999697032E+00  7.926146429E-02  2.468574863E+01  2.565907688E+01  6.743495762E-07  0.00000E+00  9.000E+00
</event>
<event>
      5  10001  2.40292E+09  3.81224E+00 -1.00000E+00  2.68376E-01
      21    -1     0     0   516   512  0.000000000E+00  0.000000000E+00  8.268440956E+00  8.268440956E+00  0.000000000E+00  0.00000E+00  9.000E+00
      21    -1     0     0   517   515  0.000000000E+00  0.000000000E+00 -2.576933513E+01  2.576933513E+01  0.000000000E+00  0.00000E+00  9.000E+00
      21     1     1     2   516   515  2.598395845E+00 -1.060322120E+01 -1.906957309E+01  2.197336066E+01  2.384185791E-07  0.00000E+00  9.000E+00
      21     1     1     2   513   512 -1.933553338E-01  5.761978294E+00  2.962577695E+00  6.481870621E+00  7.300048300E-08  0.00000E+00  9.000E+00
      21     1     1     2   517   513 -2.405040512E+00  4.841242901E+00 -1.393898773E+00  5.582544803E+00  1.519626234E-07  0.00000E+00  9.000E+00
</event>
<event>
      5  10001  2.40292E+09  7.97860E+00 -1.00000E+00  2.07757E-01
      21    -1     0     0   511   513  0.000000000E+00  0.000000000E+00  4.117416059E+01  4.117416059E+01  0.000000000E+00  0.00000E+00  9.000E+00
      21    -1     0     0   517   514  0.000000000E+00  0.000000000E+00 -4.103898670E+00  4.103898670E+00  0.000000000E+00  0.00000E+00  9.000E+00
      21     1     1     2   511   514  8.865747299E+00 -2.746983319E+00  4.702972306E+00  1.040506324E+01  1.460009660E-07  0.00000E+00  9.000E+00
      21     1     1     2   512   513 -2.680109749E+00  1.628331003E+00  2.496762225E+01  2.516379564E+01  5.840038640E-07  0.00000E+00  9.000E+00
      21     1     1     2   517   512 -6.185637551E+00  1.118652316E+00  7.399667360E+00  9.709200377E+00  1.460009660E-07  0.00000E+00  9.000E+00
</event>
<event>
      5  10001  2.40292E+09  6.18134E+00 -1.00000E+00  2.23405E-01
      21    -1     0     0   511   513  0.000000000E+00  0.000000000E+00  2.289554644E+02  2.289554644E+02  0.000000000E+00  0.00000E+00  9.000E+00
      21    -1     0     0   515   512  0.000000000E+00  0.000000000E+00 -5.732473774E+01  5.732473774E+01  0.000000000E+00  0.00000E+00  9.000E+00
      -5     1     1     2     0   513 -3.259940306E+00  1.117112472E+01  2.161333464E+00  1.277233740E+01  4.800000191E+00  0.00000E+00  9.000E+00
       5     1     1     2   515     0  8.639272763E+00 -8.177859138E+00 -5.118481957E+01  5.276779482E+01  4.800000191E+00  0.00000E+00  9.000E+00
      21     1     1     2   511   512 -5.379332457E+00 -2.993265585E+00  2.206542128E+02  2.207400699E+02  2.697398305E-06  0.00000E+00  9.000E+00
</event>
<event>
      5  10001  2.40292E+09  1.19696E+01 -1.00000E+00  1.87091E-01
      21    -1     0     0   514   512  0.000000000E+00  0.000000000E+00  5.485588204E+01  5.485588204E+01  0.000000000E+00  0.00000E+00  9.000E+00
      21    -1     0     0   513   516  0.000000000E+00  0.000000000E+00 -5.779683142E+00  5.779683142E+00  0.000000000E+00  0.00000E+00  9.000E+00
      21     1     1     2   514   516 -2.925994845E+00  1.080473628E+01  8.625921773E+00  1.413188941E+01  3.153981341E-07  0.00000E+00  9.000E+00
      21     1     1     2   513   515  8.329353407E-01 -1.460859604E+01  3.941055868E+01  4.203923162E+01  6.743495762E-07  0.00000E+00  9.000E+00
      21     1     1     2   515   512  2.093059505E+00  3.803859760E+00  1.039718443E+00  4.464444154E+00  1.084820910E-07  0.00000E+00  9.000E+00
</event>
<event>
      5  10001  2.40292E+09  4.42536E+00 -1.00000E+00  2.53440E-01
      21    -1     0     0   511   514  0.000000000E+00  0.000000000E+00  1.814666783E+02  1.814666783E+02  0.000000000E+00  0.00000E+00  9.000E+00
      21    -1     0     0   517   512  0.000000000E+00  0.000000000E+00 -4.307840656E+01  4.307840656E+01  0.000000000E+00  0.00000E+00  9.000E+00
      21     1     1     2   511   512  4.698348738E+00 -1.224889096E+01 -4.164873467E+01  4.366608421E+01  1.430511475E-06  0.00000E+00  9.000E+00
      21     1     1     2   517   513 -3.211946908E-01  1.159749241E+01  9.167172175E+01  9.240297379E+01  1.907348633E-06  0.00000E+00  9.000E+00
      21     1     1     2   513   514 -4.377154048E+00  6.513985562E-01  8.836528469E+01  8.847602690E+01  0.000000000E+00  0.00000E+00  9.000E+00
</event>
<event>
      5  10001  2.40292E+09  4.70794E+00 -1.00000E+00  2.47742E-01
      21    -1     0     0   513   514  0.000000000E+00  0.000000000E+00  1.672041328E+00  1.672041328E+00  0.000000000E+00  0.00000E+00  9.000E+00
       1    -1     0     0   515     0  0.000000000E+00  0.000000000E+00 -1.229792753E+02  1.229792753E+02  0.000000000E+00  0.00000E+00  9.000E+00
      21     1     1     2   511   514  7.301978614E+00  7.549519461E+00 -2.244997530E+01  2.478538938E+01  4.768371582E-07  0.00000E+00  9.000E+00
       1     1     1     2   513     0 -4.692277365E+00 -7.748888767E+00 -9.311638646E+01  9.355657685E+01  3.300000131E-01  0.00000E+00  9.000E+00
      21     1     1     2   515   511 -2.609701249E+00  1.993693058E-01 -5.740872223E+00  6.309350411E+00  1.192092896E-07  0.00000E+00  9.000E+00
</event>
<event>
      5  10001  2.40292E+09  3.53667E+01 -1.00000E+00  1.48203E-01
      21    -1     0     0   512   515  0.000000000E+00  0.000000000E+00  1.462575457E+02  1.462575457E+02  0.000000000E+00  0.00000E+00  9.000E+00
      21    -1     0     0   514   511  0.000000000E+00  0.000000000E+00 -2.668712356E+01  2.668712356E+01  0.000000000E+00  0.00000E+00  9.000E+00
      21     1     1     2   512   511  7.672248723E+00 -8.986349343E+00  1.428543987E+02  1.433422377E+02  1.907348633E-06  0.00000E+00  9.000E+00
      21     1     1     2   514   513  1.143112288E+00  5.173999825E+00 -1.076457624E+00  5.407008499E+00  1.452385537E-07  0.00000E+00  9.000E+00
      21     1     1     2   513   515 -8.815361011E+00  3.812349518E+00 -2.220751896E+01  2.419542306E+01  7.152557373E-07  0.00000E+00  9.000E+00
</event>
<event>
      5  10001  2.40292E+09  4.44710E+00 -1.00000E+00  2.52979E-01
       5    -1     0     0   512     0  0.000000000E+00  0.000000000E+00  7.251594351E+00  7.251594351E+00  0.000000000E+00  0.00000E+00  9.000E+00
      -2    -1     0     0     0   512  0.000000000E+00  0.000000000E+00 -2.018753333E+01  2.018753333E+01  0.000000000E+00  0.00000E+00  9.000E+00
      -2     1     1     2     0   513  9.819953741E+00  4.596234856E+00 -6.208289298E+00  1.249834478E+01  3.300000131E-01  0.00000E+00  9.000E+00
       5     1     1     2   511     0 -4.505552479E+00 -3.851951257E+00 -2.251623538E+00  7.952819753E+00  4.800000191E+00  0.00000E+00  9.000E+00
      21     1     1     2   513   511 -5.314401263E+00 -7.442835990E-01 -4.476026138E+00  6.987963140E+00  8.429369702E-08  0.00000E+00  9.000E+00
</event>
<event>
      5  10001  2.40292E+09  5.55289E+01 -1.00000E+00  1.36498E-01
      -1    -1     0     0     0   515  0.000000000E+00  0.000000000E+00  3.584681156E+02  3.584681156E+02  0.000000000E+00  0.00000E+00  9.000E+00
       2    -1     0     0   514     0  0.000000000E+00  0.000000000E+00 -2.779926095E+02  2.779926095E+02  0.000000000E+00  0.00000E+00  9.000E+00
      -1     1     1     2     0   512 -5.089961478E+01 -2.810466355E+01  1.560792170E+02  1.665577191E+02  3.300000131E-01  0.00000E+00  9.000E+00
       2     1     1     2   512     0  2.833620504E+01 -2.263339091E+01 -2.675956599E+02  2.700421393E+02  3.300000131E-01  0.00000E+00  9.000E+00
      21     1     1     2   514   515  2.256340973E+01  5.073805446E+01  1.919919490E+02  1.998608668E+02  0.000000000E+00  0.00000E+00  9.000E+00
</event>
<event>
      5  10001  2.40292E+09  9.67142E+00 -1.00000E+00  1.97390E-01
      21    -1     0     0   511   512  0.000000000E+00  0.000000000E+00  6.625941580E+01  6.625941580E+01  0.000000000E+00  0.00000E+00  9.000E+00
      21    -1     0     0   513   511  0.000000000E+00  0.000000000E+00 -2.703299630E+01  2.703299630E+01  0.000000000E+00  0.00000E+00  9.000E+00
      21     1     1     2   513   514  1.027263948E+01 -3.784851104E+00 -2.457486174E+01  2.690308624E+01  4.768371582E-07  0.00000E+00  9.000E+00
      21     1     1     2   516   512 -1.280206362E+00  4.901046177E+00  4.724287211E+01  4.751366274E+01  0.000000000E+00  0.00000E+00  9.000E+00
      21     1     1     2   514   516 -8.992433118E+00 -1.116195073E+00  1.655840913E+01  1.887566311E+01  3.371747881E-07  0.00000E+00  9.000E+00
</event>
<event>
      5  10001  2.40292E+09  7.58322E+00 -1.00000E+00  2.10688E-01
      21    -1     0     0   515   514  0.000000000E+00  0.000000000E+00  5.968759789E+01  5.968759789E+01  0.000000000E+00  0.00000E+00  9.000E+00
      21    -1     0     0   513   511  0.000000000E+00  0.000000000E+00 -2.171632719E+01  2.171632719E+01  0.000000000E+00  0.00000E+00  9.000E+00
      21     1     1     2   515   517 -6.859367517E+00 -3.614857833E+00 -6.294185843E+00  9.986735969E+00  4.129530925E-07  0.00000E+00  9.000E+00
      21     1     1     2   513   514  1.444133569E+01  3.477067566E+00  5.572778174E+01  5.767345866E+01  6.743495762E-07  0.00000E+00  9.000E+00
      21     1     1     2   517   511 -7.581968176E+00  1.377902663E-01 -1.146232520E+01  1.374373045E+01  2.384185791E-07  0.00000E+00  9.000E+00
</event>
<event>
      5  10001  2.40292E+09  2.13206E+01 -1.00000E+00  1.64070E-01
      21    -1     0     0   512   511  0.000000000E+00  0.000000000E+00  1.103870677E+01  1.103870677E+01  0.000000000E+00  0.00000E+00  9.000E+00
      21    -1     0     0   517   516  0.000000000E+00  0.000000000E+00 -1.357831645E+01  1.357831645E+01  0.000000000E+00  0.00000E+00  9.000E+00
      21     1     1     2   512   516 -3.527441876E+00 -6.187403483E-01 -1.523314831E+00  3.891808562E+00  2.107342426E-07  0.00000E+00  9.000E+00
      21     1     1     2   517   513  2.428942204E+00 -5.013060161E-01 -1.066511280E+01  1.094968945E+01  1.192092896E-07  0.00000E+00  9.000E+00
      21     1     1     2   513   511  1.098499672E+00  1.120046364E+00  9.648817953E+00  9.775525217E+00  1.192092896E-07  0.00000E+00  9.000E+00
</event>
<event>
      5  10001  2.40292E+09  6.40211E+00 -1.00000E+00  2.21108E-01
      21    -1     0     0   514   516  0.000000000E+00  0.000000000E+00  1.008338260E+02  1.008338260E+02  0.000000000E+00  0.00000E+00  9.000E+00
      21    -1     0     0   511   514  0.000000000E+00  0.000000000E+00 -3.694559289E+01  3.694559289E+01  0.000000000E+00  0.00000E+00  9.000E+00
      21     1     1     2   511   515  6.502350749E+00 -8.738496549E+00 -3.553866821E+01  3.717040254E+01  0.000000000E+00  0.00000E+00  9.000E+00
      21     1     1     2   512   516 -9.526332637E+00  7.141324118E+00  7.361780489E+01  7.457433017E+01  9.536743164E-07  0.00000E+00  9.000E+00
      21     1     1     2   515   512  3.023981888E+00  1.597172431E+00  2.580909644E+01  2.603468620E+01  4.768371582E-07  0.00000E+00  9.000E+00
</event>
<event>
      5  10001  2.40292E+09  5.79358E+00 -1.00000E+00  2.27779E-01
      21    -1     0     0   513   512  0.000000000E+00  0.000000000E+00  7.800480635E+01  7.800480635E+01  0.000000000E+00  0.00000E+00  9.000E+00
       1    -1     0     0   511     0  0.000000000E+00  0.000000000E+00 -1.319392970E+02  1.319392970E+02  0.000000000E+00  0.00000E+00  9.000E+00
      21     1     1     2   515   512 -7.463634462E+00 -3.930867003E+00  7.639708698E+01  7.686138467E+01  1.651812370E-06  0.00000E+00  9.000E+00
       1     1     1     2   513     0  1.191428874E+01  7.639912896E+00 -1.226341735E+02  1.234486451E+02  3.300000131E-01  0.00000E+00  9.000E+00
      21     1     1     2   511   515 -4.450654279E+00 -3.709045894E+00 -7.697404132E+00  9.634073663E+00  1.192092896E-07  0.00000E+00  9.000E+00
</event>
<event>
      5  10001  2.40292E+09  1.98557E+00 -1.00000E+00  3.64329E-01
      21    -1     0     0   514   512  0.000000000E+00  0.000000000E+00  2.042635285E+01  2.042635285E+01  0.000000000E+00  0.00000E+00  9.000E+00
      21    -1     0     0   513   514  0.000000000E+00  0.000000000E+00 -1.036001355E+02  1.036001355E+02  0.000000000E+00  0.00000E+00  9.000E+00
      21     1     1     2   511   515 -2.564203987E+00 -1.031222131E+01  1.067856894E+01  1.506482277E+01  1.685873940E-07  0.00000E+00  9.000E+00
      21     1     1     2   515   512  4.004799763E+00  8.945780146E+00  4.361381708E+00  1.072786344E+01  1.788139343E-07  0.00000E+00  9.000E+00
      21     1     1     2   513   511 -1.440595775E+00  1.366441164E+00 -9.821373325E+01  9.823380211E+01  1.348699152E-06  0.00000E+00  9.000E+00
</event>
<event>
      5  10001  2.40292E+09  3.60794E+00 -1.00000E+00  2.74375E-01
      21    -1     0     0   513   512  0.000000000E+00  0.000000000E+00  1.274057440E+02  1.274057440E+02  0.000000000E+00  0.00000E+00  9.000E+00
      -2    -1     0     0     0   511  0.000000000E+00  0.000000000E+00 -5.968503213E+00  5.968503213E+00  0.000000000E+00  0.00000E+00  9.000E+00
      -2     1     1     2     0   514  7.947518224E-01 -8.119881260E+00 -1.847184309E+00  8.371683942E+00  3.300000131E-01  0.00000E+00  9.000E+00
      21     1     1     2   513   511  1.995044142E+00  1.030915363E+01  1.189033663E+02  1.193661148E+02  1.348699152E-06  0.00000E+00  9.000E+00
      21     1     1     2   514   512 -2.789795965E+00 -2.189272367E+00  4.381058821E+00  5.636448475E+00  1.460009660E-07  0.00000E+00  9.000E+00
</event>
<event>
      5  10001  2.40292E+09  4.41545E+00 -1.00000E+00  2.53652E-01
      21    -1     0     0   515   516  0.000000000E+00  0.000000000E+00  1.743946014E+02  1.743946014E+02  0.000000000E+00  0.00000E+00  9.000E+00
      21    -1     0     0   514   512  0.000000000E+00  0.000000000E+00 -5.765753769E+00  5.765753769E+00  0.000000000E+00  0.00000E+00  9.000E+00
      21     1     1     2   515   512  1.171290739E+01 -1.259825997E+00  1.677468802E+02  1.681600285E+02  0.000000000E+00  0.00000E+00  9.000E+00
      21     1     1     2   511   516 -2.053505882E+00 -5.763427300E-01  6.071508131E-02  2.133715930E+00  6.790676461E-08  0.00000E+00  9.000E+00
      21     1     1     2   514   511 -9.659401512E+00  1.836168727E+00  8.212523895E-01  9.866610799E+00  4.759049244E-07  0.00000E+00  9.000E+00
</event>
<event>
      5  10001  2.40292E+09  9.32834E+00 -1.00000E+00  1.99253E-01
       5    -1     0     0   513     0  0.000000000E+00  0.000000000E+00  8.289707715E+01  8.289707715E+01  0.000000000E+00  0.00000E+00  9.000E+00
      21    -1     0     0   514   517  0.000000000E+00  0.000000000E+00 -8.627997313E+00  8.627997313E+00  0.000000000E+00  0.00000E+00  9.000E+00
      21     1     1     2   513   517  9.124635829E+00  9.766565664E+00  4.864442859E+00  1.422348720E+01  1.884864366E-07  0.00000E+00  9.000E+00
      21     1     1     2   514   511 -4.004079441E+00 -1.742570435E+01  2.004497215E+01  2.686054230E+01  4.768371582E-07  0.00000E+00  9.000E+00
       5     1     1     2   511     0 -5.120556387E+00  7.659138682E+00  4.935966483E+01  5.044104496E+01  4.800000191E+00  0.00000E+00  9.000E+00
</event>
<event>
      5  10001  2.40292E+09  4.90202E+00 -1.00000E+00  2.44167E-01
      21    -1     0     0   512   511  0.000000000E+00  0.000000000E+00  1.140901510E+00  1.140901510E+00  0.000000000E+00  0.00000E+00  9.000E+00
      21    -1     0     0   515   512  0.000000000E+00  0.000000000E+00 -1.111345345E+02  1.111345345E+02  0.000000000E+00  0.00000E+00  9.000E+00
      21     1     1     2   514   511 -8.890799211E+00  3.660850577E+00 -4.162960214E+01  4.272554168E+01  0.000000000E+00  0.00000E+00  9.000E+00
      21     1     1     2   513   514  9.410642462E+00 -1.454120156E+00 -4.096267449E+01  4.205490885E+01  0.000000000E+00  0.00000E+00  9.000E+00
      21     1     1     2   515   513 -5.198432515E-01 -2.206730421E+00 -2.740135638E+01  2.749498550E+01  0.000000000E+00  0.00000E+00  9.000E+00
</event>
<event>
      5  10001  2.40292E+09  4.29361E+00 -1.00000E+00  2.56324E-01
      21    -1     0     0   512   513  0.000000000E+00  0.000000000E+00  6.938269538E+02  6.938269538E+02  0.000000000E+00  0.00000E+00  9.000E+00
      21    -1     0     0   511   517  0.000000000E+00  0.000000000E+00 -5.962642686E+01  5.962642686E+01  0.000000000E+00  0.00000E+00  9.000E+00
      21     1     1     2   516   517  9.128860428E+00  1.023355655E+01 -5.715015325E+01  5.877245775E+01  9.536743164E-07  0.00000E+00  9.000E+00
      21     1     1     2   511   513 -5.028655359E+00 -1.150767163E+01  2.211914027E+01  2.543560983E+01  6.307962682E-07  0.00000E+00  9.000E+00
      21     1     1     2   512   516 -4.100205068E+00  1.274115080E+00  6.692315399E+02  6.692453130E+02  1.078959322E-05  0.00000E+00  9.000E+00
</event>
<event>
      5  10001  2.40292E+09  5.44326E+00 -1.00000E+00  2.32164E-01
      21    -1     0     0   514   517  0.000000000E+00  0.000000000E+00  1.516355389E+01  1.516355389E+01  0.000000000E+00  0.00000E+00  9.000E+00
      21    -1     0     0   515   514  0.000000000E+00  0.000000000E+00 -6.497922266E+01  6.497922266E+01  0.000000000E+00  0.00000E+00  9.000E+00
      21     1     1     2   511   513  1.037214142E+01  2.344247280E+00  1.031945121E+01  1.481782326E+01  4.768371582E-07  0.00000E+00  9.000E+00
      21     1     1     2   515   511 -1.575154318E+01 -1.512930659E+00 -5.675018058E+01  5.891504958E+01  6.743495762E-07  0.00000E+00  9.000E+00
      21     1     1     2   513   517  5.379401763E+00 -8.313166212E-01 -3.384939411E+00  6.409903702E+00  1.519626234E-07  0.00000E+00  9.000E+00
</event>
<event>
      5  10001  2.40292E+09  3.99355E+00 -1.00000E+00  2.63527E-01
       3    -1     0     0   511     0  0.000000000E+00  0.000000000E+00  3.601022633E+01  3.601022633E+01  0.000000000E+00  0.00000E+00  9.000E+00
      21    -1     0     0   512   514  0.000000000E+00  0.000000000E+00 -9.236386566E+00  9.236386566E+00  0.000000000E+00  0.00000E+00  9.000E+00
       3     1     1     2   512     0  2.166945278E+00  1.176142824E+01  2.496478326E+01  2.768604792E+01  5.000000000E-01  0.00000E+00  9.000E+00
       4     1     1     2   511     0  1.412377286E+00 -1.004758045E+01  5.759925046E+00  1.176330817E+01  1.500000000E+00  0.00000E+00  9.000E+00
      -4     1     1     2     0   514 -3.579322563E+00 -1.713847785E+00 -3.950868545E+00  5.797256808E+00  1.500000000E+00  0.00000E+00  9.000E+00
</event>
<event>
      5  10001  2.40292E+09  6.03970E+00 -1.00000E+00  2.24950E-01
      21    -1     0     0   513   512  0.000000000E+00  0.000000000E+00  2.623871114E+00  2.623871114E+00  0.000000000E+00  0.00000E+00  9.000E+00
      21    -1     0     0   515   513  0.000000000E+00  0.000000000E+00 -2.062445514E+02  2.062445514E+02  0.000000000E+00  0.00000E+00  9.000E+00
      21     1     1     2   514   512  1.342422709E+01  4.781761579E+00 -1.937721167E+01  2.405309645E+01  6.307962682E-07  0.00000E+00  9.000E+00
      21     1     1     2   515   511 -2.764906571E+00  1.560265257E-01 -3.243633832E+01  3.255434067E+01  4.768371582E-07  0.00000E+00  9.000E+00
      21     1     1     2   511   514 -1.065932052E+01 -4.937788105E+00 -1.518071303E+02  1.522609854E+02  1.907348633E-06  0.00000E+00  9.000E+00
</event>
<event>
      5  10001  2.40292E+09  2.56954E+00 -1.00000E+00  3.18731E-01
       2    -1     0     0   512     0  0.000000000E+00  0.000000000E+00  5.418254094E+02  5.418254094E+02  0.000000000E+00  0.00000E+00  9.000E+00
      -3    -1     0     0     0   511  0.000000000E+00  0.000000000E+00 -9.319468751E-01  9.319468751E-01  0.000000000E+00  0.00000E+00  9.000E+00
      -3     1     1     2     0   513  1.032929321E+01 -1.758019200E+00  3.265334452E+01  3.429687796E+01  5.000000000E-01  0.00000E+00  9.000E+00
       2     1     1     2   513     0 -1.176641667E+01  3.887500525E+00  4.244796268E+02  4.246605982E+02  3.300000131E-01  0.00000E+00  9.000E+00
      21     1     1     2   512   511  1.437123456E+00 -2.129481326E+00  8.376049121E+01  8.379988008E+01  0.000000000E+00  0.00000E+00  9.000E+00
</event>
<event>
      5  10001  2.40292E+09  6.03031E+00 -1.00000E+00  2.25054E-01
      21    -1     0     0   514   513  0.000000000E+00  0.000000000E+00  4.152030027E+01  4.152030027E+01  0.000000000E+00  0.00000E+00  9.000E+00
      21    -1     0     0   515   514  0.000000000E+00  0.000000000E+00 -2.667003619E+00  2.667003619E+00  0.000000000E+00  0.00000E+00  9.000E+00
      21     1     1     2   515   511 -3.162480137E+00  7.484049414E+00  1.642164951E+01  1.832164973E+01  0.000000000E+00  0.00000E+00  9.000E+00
      21     1     1     2   511   516  1.024483658E+00 -9.300354855E+00  2.026590792E+01  2.232158576E+01  0.000000000E+00  0.00000E+00  9.000E+00
      21     1     1     2   516   513  2.137996479E+00  1.816305442E+00  2.165739223E+00  3.544068394E+00  8.429369702E-08  0.00000E+00  9.000E+00
</event>
<event>
      5  10001  2.40292E+09  5.72470E+00 -1.00000E+00  2.28606E-01
      21    -1     0     0   512   515  0.000000000E+00  0.000000000E+00  6.745462475E+01  6.745462475E+01  0.000000000E+00  0.00000E+00  9.000E+00
      21    -1     0     0   511   512  0.000000000E+00  0.000000000E+00 -1.310899173E+01  1.310899173E+01  0.000000000E+00  0.00000E+00  9.000E+00
      21     1     1     2   517   515  9.718247552E+00  1.180448363E+01  5.217412700E+01  5.436846234E+01  6.743495762E-07  0.00000E+00  9.000E+00
      21     1     1     2   513   517 -8.316863877E+00 -6.253963637E+00  1.133707562E+01  1.538868317E+01  5.331201500E-07  0.00000E+00  9.000E+00
      21     1     1     2   511   513 -1.401383675E+00 -5.550519991E+00 -9.165569610E+00  1.080647096E+01  1.192092896E-07  0.00000E+00  9.000E+00
</event>
<event>
      5  10001  2.40292E+09  6.32693E+00 -1.00000E+00  2.21876E-01
      21    -1     0     0   512   513  0.000000000E+00  0.000000000E+00  4.979971850E+01  4.979971850E+01  0.000000000E+00  0.00000E+00  9.000E+00
      21    -1     0     0   511   516  0.000000000E+00  0.000000000E+00 -2.560251030E+01  2.560251030E+01  0.000000000E+00  0.00000E+00  9.000E+00
      21     1     1     2   514   516  8.692431440E-01 -1.174951746E+01 -2.079669996E+01  2.390208095E+01  3.371747881E-07  0.00000E+00  9.000E+00
      21     1     1     2   511   513 -6.983259162E+00  1.012197648E+01  9.751538175E+00  1.569435610E+01  3.153981341E-07  0.00000E+00  9.000E+00
      21     1     1     2   512   514  6.114016018E+00  1.627540976E+00  3.524236998E+01  3.580579176E+01  6.743495762E-07  0.00000E+00  9.000E+00
</event>
<event>
      5  10001  2.40292E+09  3.85926E+00 -1.00000E+00  2.67079E-01
      21    -1     0     0   511   513  0.000000000E+00  0.000000000E+00  9.922519282E+01  9.922519282E+01  0.000000000E+00  0.00000E+00  9.000E+00
       3    -1     0     0   513     0  0.000000000E+00  0.000000000E+00 -1.615628937E+00  1.615628937E+00  0.000000000E+00  0.00000E+00  9.000E+00
      21     1     1     2   516   515 -3.745641937E+00  6.932692588E+00  3.385817361E+01  3.476302605E+01  8.259061849E-07  0.00000E+00  9.000E+00
       3     1     1     2   515     0  2.633524314E+00 -1.157233898E+01  3.572241925E+01  3.764566000E+01  5.000000000E-01  0.00000E+00  9.000E+00
      21     1     1     2   511   516  1.112117623E+00  4.639646388E+00  2.802897103E+01  2.843213571E+01  3.371747881E-07  0.00000E+00  9.000E+00
</event>
<event>
      5  10001  2.40292E+09  4.22235E+00 -1.00000E+00  2.57951E-01
      21    -1     0     0   512   515  0.000000000E+00  0.000000000E+00  4.476077437E+01  4.476077437E+01  0.000000000E+00  0.00000E+00  9.000E+00
      21    -1     0     0   513   514  0.000000000E+00  0.000000000E+00 -4.073419731E+00  4.073419731E+00  0.000000000E+00  0.00000E+00  9.000E+00
      21     1     1     2   512   514 -2.522506819E+00  9.245777289E+00  3.520933174E+01  3.649033406E+01  4.768371582E-07  0.00000E+00  9.000E+00
      21     1     1     2   513   517  3.021751103E+00 -7.399452943E+00  6.382305782E+00  1.022823106E+01  2.384185791E-07  0.00000E+00  9.000E+00
      21     1     1     2   517   515 -4.992442834E-01 -1.846324346E+00 -9.042828810E-01  2.115628978E+00  6.580174615E-08  0.00000E+00  9.000E+00
</event>
<event>
      5  10001  2.40292E+09  5.60988E+00 -1.00000E+00  2.30022E-01
      21    -1     0     0   511   513  0.000000000E+00  0.000000000E+00  2.491935647E+02  2.491935647E+02  0.000000000E+00  0.00000E+00  9.000E+00
      21    -1     0     0   512   515  0.000000000E+00  0.000000000E+00 -6.634649584E+00  6.634649584E+00  0.000000000E+00  0.00000E+00  9.000E+00
      21     1     1     2   511   515  5.192613547E+00 -1.016170595E+01  2.063661226E+01  2.358162990E+01  1.118282261E-06  0.00000E+00  9.000E+00
      21     1     1     2   516   513 -1.053531917E+01  8.451090420E+00  2.252959542E+02  2.257004228E+02  2.697398305E-06  0.00000E+00  9.000E+00
      21     1     1     2   512   516  5.342705619E+00  1.710615533E+00 -3.373651296E+00  6.546161615E+00  2.269677253E-07  0.00000E+00  9.000E+00
</event>
<event>
      5  10001  2.40292E+09  6.00448E+00 -1.00000E+00  2.25343E-01
      21    -1     0     0   514   515  0.000000000E+00  0.000000000E+00  2.371112998E+01  2.371112998E+01  0.000000000E+00  0.00000E+00  9.000E+00
      21    -1     0     0   512   517  0.000000000E+00  0.000000000E+00 -5.290420369E+00  5.290420369E+00  0.000000000E+00  0.00000E+00  9.000E+00
      21     1     1     2   514   517 -6.024466439E+00  7.076652580E+00  1.283510783E+01  1.584655170E+01  0.000000000E+00  0.00000E+00  9.000E+00
      21     1     1     2   511   515  4.774252347E+00 -2.626707256E+00 -5.459244589E-01  5.476413972E+00  1.592752213E-07  0.00000E+00  9.000E+00
      21     1     1     2   512   511  1.250214092E+00 -4.449945325E+00  6.131526235E+00  7.678584677E+00  1.460009660E-07  0.00000E+00  9.000E+00
</event>
<event>
      5  10001  2.40292E+09  3.79285E+00 -1.00000E+00  2.68920E-01
       1    -1     0     0   512     0  0.000000000E+00  0.000000000E+00  2.075255857E+01  2.075255857E+01  0.000000000E+00  0.00000E+00  9.000E+00
      21    -1     0     0   514   511  0.000000000E+00  0.000000000E+00 -8.985255886E+01  8.985255886E+01  0.000000000E+00  0.00000E+00  9.000E+00
      21     1     1     2   512   511 -5.833388422E-01  1.102693849E+01  8.012390831E+00  1.364302252E+01  3.153981341E-07  0.00000E+00  9.000E+00
       1     1     1     2   513     0 -3.108447992E+00 -1.015769766E+01  7.024696724E+00  1.273956572E+01  3.300000131E-01  0.00000E+00  9.000E+00
      21     1     1     2   514   513  3.691786834E+00 -8.692408281E-01 -8.413708785E+01  8.422252918E+01  9.536743164E-07  0.00000E+00  9.000E+00
</event>
<event>
      5  10001  2.40292E+09  4.95637E+00 -1.00000E+00  2.43210E-01
      21    -1     0     0   515   513  0.000000000E+00  0.000000000E+00  6.000403865E+01  6.000403865E+01  0.000000000E+00  0.00000E+00  9.000E+00
      21    -1     0     0   511   512  0.000000000E+00  0.000000000E+00 -2.636720081E+01  2.636720081E+01  0.000000000E+00  0.00000E+00  9.000E+00
      -1     1     1     2     0   512 -9.890344964E+00 -7.374986039E+00 -1.310351342E+01  1.800056406E+01  3.300000131E-01  0.00000E+00  9.000E+00
       1     1     1     2   515     0  1.482451484E+01  7.841233667E+00  5.567856655E+01  5.815034702E+01  3.300000131E-01  0.00000E+00  9.000E+00
      21     1     1     2   511   513 -4.934169877E+00 -4.662476273E-01 -8.938215296E+00  1.022032837E+01  1.685873940E-07  0.00000E+00  9.000E+00
</event>
<event>
      5  10001  2.40292E+09  1.13507E+01 -1.00000E+00  1.89550E-01
      21    -1     0     0   514   512  0.000000000E+00  0.000000000E+00  3.524708433E+00  3.524708433E+00  0.000000000E+00  0.00000E+00  9.000E+00
      21    -1     0     0   511   513  0.000000000E+00  0.000000000E+00 -7.077488658E+01  7.077488658E+01  0.000000000E+00  0.00000E+00  9.000E+00
      21     1     1     2   514   513  9.863041338E+00 -6.263120859E+00 -1.024093196E+01  1.553650394E+01  3.153981341E-07  0.00000E+00  9.000E+00
      21     1     1     2   515   512 -7.176163037E-01  4.945219065E+00 -1.884835526E+01  1.949950412E+01  0.000000000E+00  0.00000E+00  9.000E+00
      21     1     1     2   511   515 -9.145425034E+00  1.317901795E+00 -3.816089093E+01  3.926358695E+01  4.768371582E-07  0.00000E+00  9.000E+00
</event>
<event>
      5  10001  2.40292E+09  4.21472E+00 -1.00000E+00  2.58128E-01
      21    -1     0     0   513   512  0.000000000E+00  0.000000000E+00  1.708127225E+00  1.708127225E+00  0.000000000E+00  0.00000E+00  9.000E+00
       2    -1     0     0   515     0  0.000000000E+00  0.000000000E+00 -6.416961074E+02  6.416961074E+02  0.000000000E+00  0.00000E+00  9.000E+00
      21     1     1     2   515   512  9.913757518E-01 -1.081797110E+01 -2.943224322E+02  2.945228436E+02  7.629394531E-06  0.00000E+00  9.000E+00
       2     1     1     2   511     0 -4.943860751E+00  9.355012044E+00 -3.442832279E+02  3.444459434E+02  3.300000131E-01  0.00000E+00  9.000E+00
      21     1     1     2   513   511  3.952484999E+00  1.462959060E+00 -1.382320122E+00  4.435447643E+00  3.017255177E-07  0.00000E+00  9.000E+00
</event>
<event>
      5  10001  2.40292E+09  4.98268E+00 -1.00000E+00  2.42753E-01
      21    -1     0     0   511   515  0.000000000E+00  0.000000000E+00  1.877247821E+01  1.877247821E+01  0.000000000E+00  0.00000E+00  9.000E+00
       2    -1     0     0   512     0  0.000000000E+00  0.000000000E+00 -2.812468887E+02  2.812468887E+02  0.000000000E+00  0.00000E+00  9.000E+00
      21     1     1     2   511   514  9.046005789E+00 -2.721411659E+00 -1.349733404E+01  1.647465715E+01  7.725644944E-07  0.00000E+00  9.000E+00
       2     1     1     2   514     0 -1.291976496E+01 -4.124114492E-01 -2.657412892E+02  2.660556936E+02  3.300000131E-01  0.00000E+00  9.000E+00
      21     1     1     2   512   515  3.873759176E+00  3.133823108E+00  1.676421275E+01  1.748901617E+01  8.596304120E-07  0.00000E+00  9.000E+00
</event>
<event>
      5  10001  2.40292E+09  7.91380E+00 -1.00000E+00  2.08221E-01
      21    -1     0     0   513   514  0.000000000E+00  0.000000000E+00  1.972017972E+02  1.972017972E+02  0.000000000E+00  0.00000E+00  9.000E+00
       1    -1     0     0   512     0  0.000000000E+00  0.000000000E+00 -4.323825849E+02  4.323825849E+02  0.000000000E+00  0.00000E+00  9.000E+00
      21     1     1     2   512   515  1.316467579E+01  7.936646224E+00  5.313185283E+01  5.531087441E+01  6.743495762E-07  0.00000E+00  9.000E+00
      21     1     1     2   515   514 -1.094126148E+01 -3.416108340E-01  1.427344789E+02  1.431536216E+02  0.000000000E+00  0.00000E+00  9.000E+00
       1     1     1     2   513     0 -2.223414313E+00 -7.595035390E+00 -4.310471194E+02  4.311198861E+02  3.300000131E-01  0.00000E+00  9.000E+00
</event>
<event>
      5  10001  2.40292E+09  2.29775E+01 -1.00000E+00  1.61506E-01
      21    -1     0     0   516   512  0.000000000E+00  0.000000000E+00  8.476394680E+01  8.476394680E+01  0.000000000E+00  0.00000E+00  9.000E+00
      21    -1     0     0   511   516  0.000000000E+00  0.000000000E+00 -4.089319795E+00  4.089319795E+00  0.000000000E+00  0.00000E+00  9.000E+00
      -3     1     1     2     0   512  7.345467579E+00  6.757247929E+00  3.061782741E+01  3.220741605E+01  5.000000000E-01  0.00000E+00  9.000E+00
      21     1     1     2   511   514 -1.191781163E+00 -3.753136050E+00 -1.804811386E+00  4.331710596E+00  2.897116854E-07  0.00000E+00  9.000E+00
       3     1     1     2   514     0 -6.153686416E+00 -3.004111879E+00  5.186161098E+01  5.231413994E+01  5.000000000E-01  0.00000E+00  9.000E+00
</event>
<event>
      5  10001  2.40292E+09  2.38419E+00 -1.00000E+00  3.30670E-01
      21    -1     0     0   513   511  0.000000000E+00  0.000000000E+00  2.987426608E+02  2.987426608E+02  0.000000000E+00  0.00000E+00  9.000E+00
      21    -1     0     0   512   513  0.000000000E+00  0.000000000E+00 -3.931466990E+01  3.931466990E+01  0.000000000E+00  0.00000E+00  9.000E+00
      21     1     1     2   515   517  1.038859590E+01  5.779941053E+00  9.406404870E+00  1.515952163E+01  1.039242493E-06  0.00000E+00  9.000E+00
      21     1     1     2   517   511 -8.113773901E+00 -6.493751009E+00  2.863263276E+02  2.865148653E+02  3.814697266E-06  0.00000E+00  9.000E+00
      21     1     1     2   512   515 -2.274822000E+00  7.138099561E-01 -3.630474158E+01  3.638294382E+01  6.743495762E-07  0.00000E+00  9.000E+00
</event>
<event>
      5  10001  2.40292E+09  3.15773E+00 -1.00000E+00  2.90142E-01
       2    -1     0     0   512     0  0.000000000E+00  0.000000000E+00  3.621001495E+00  3.621001495E+00  0.000000000E+00  0.00000E+00  9.000E+00
       2    -1     0     0   513     0  0.000000000E+00  0.000000000E+00 -8.971326196E+01  8.971326196E+01  0.000000000E+00  0.00000E+00  9.000E+00
       2     1     1     2   512     0  1.196848934E+01  6.324693650E+00 -1.908132360E+01  2.339769855E+01  3.300000131E-01  0.00000E+00  9.000E+00
       2     1     1     2   511     0 -1.509690045E+01 -6.749555099E+00 -5.092676940E+01  5.354547263E+01  3.300000131E-01  0.00000E+00  9.000E+00
      21     1     1     2   513   511  3.128411106E+00  4.248614483E-01 -1.608416746E+01  1.639109228E+01  3.371747881E-07  0.00000E+00  9.000E+00
</event>
<event>
      5  10001  2.40292E+09  5.00720E+00 -1.00000E+00  2.38319E-01
      21    -1     0     0   512   511  0.000000000E+00  0.000000000E+00  4.071749094E+01  4.071749094E+01  0.000000000E+00  0.00000E+00  9.000E+00
       2    -1     0     0   514     0  0.000000000E+00  0.000000000E+00 -4.677413059E+02  4.677413059E+02  0.000000000E+00  0.00000E+00  9.000E+00
      21     1     1     2   514   511 -2.082455706E+01  5.692286345E+00 -1.892308982E+02  1.904583869E+02  2.697398305E-06  0.00000E+00  9.000E+00
       2     1     1     2   513     0  2.500465756E+01 -8.448854186E+00 -2.771107439E+02  2.783650289E+02  3.300000131E-01  0.00000E+00  9.000E+00
      21     1     1     2   512   513 -4.180100497E+00  2.756567841E+00  3.931782710E+01  3.963538109E+01  1.507891493E-06  0.00000E+00  9.000E+00
</event>
<event>
      5  10001  2.40292E+09  2.23432E+01 -1.00000E+00  1.62455E-01
      -3    -1     0     0     0   515  0.000000000E+00  0.000000000E+00  2.157454257E+02  2.157454257E+02  0.000000000E+00  0.00000E+00  9.000E+00
      21    -1     0     0   512   513  0.000000000E+00  0.000000000E+00 -1.193342164E+01  1.193342164E+01  0.000000000E+00  0.00000E+00  9.000E+00
      21     1     1     2   511   513 -8.627803519E+00  6.483361683E+00  6.099477243E+01  6.194219270E+01  6.743495762E-07  0.00000E+00  9.000E+00
      21     1     1     2   512   515  1.587517952E+01 -2.759416415E+00 -5.627485448E+00  1.706763886E+01  5.990192664E-07  0.00000E+00  9.000E+00
      -3     1     1     2     0   511 -7.247376005E+00 -3.723945268E+00  1.484447171E+02  1.486690158E+02  5.000000000E-01  0.00000E+00  9.000E+00
</event>
<event>
      5  10001  2.40292E+09  4.39101E+00 -1.00000E+00  2.54177E-01
      21    -1     0     0   514   512  0.000000000E+00  0.000000000E+00  1.167261197E+02  1.167261197E+02  0.000000000E+00  0.00000E+00  9.000E+00
      21    -1     0     0   513   511  0.000000000E+00  0.000000000E+00 -9.375857589E+00  9.375857589E+00  0.000000000E+00  0.00000E+00  9.000E+00
      -2     1     1     2     0   512  1.258000217E+01 -2.225375415E-01  1.306270957E+01  1.813971496E+01  3.300000131E-01  0.00000E+00  9.000E+00
      21     1     1     2   514   511 -1.011422807E+01 -3.410252656E+00  1.001016644E+02  1.006691147E+02  1.907348633E-06  0.00000E+00  9.000E+00
       2     1     1     2   513     0 -2.465774104E+00  3.632790197E+00 -5.814111839E+00  7.293147676E+00  3.300000131E-01  0.00000E+00  9.000E+00
</event>
<event>
      5  10001  2.40292E+09  7.94768E+00 -1.00000E+00  2.07978E-01
      21    -1     0     0   515   512  0.000000000E+00  0.000000000E+00  1.238580073E+02  1.238580073E+02  0.000000000E+00  0.00000E+00  9.000E+00
      21    -1     0     0   511   515  0.000000000E+00  0.000000000E+00 -7.793930122E+00  7.793930122E+00  0.000000000E+00  0.00000E+00  9.000E+00
      21     1     1     2   513   516  3.069476552E+00 -1.307639286E+01  5.515525737E+00  1.452015016E+01  2.795705652E-07  0.00000E+00  9.000E+00
      21     1     1     2   516   512  2.437836788E+00  1.880658698E+01  1.065695419E+02  1.082436974E+02  0.000000000E+00  0.00000E+00  9.000E+00
      21     1     1     2   511   513 -5.507313340E+00 -5.730194119E+00  3.979009553E+00  8.888089890E+00  2.107342426E-07  0.00000E+00  9.000E+00
</event>
<event>
      5  10001  2.40292E+09  6.83942E+00 -1.00000E+00  2.16916E-01
      21    -1     0     0   514   516  0.000000000E+00  0.000000000E+00  9.988916468E+01  9.988916468E+01  0.000000000E+00  0.00000E+00  9.000E+00
      21    -1     0     0   512   513  0.000000000E+00  0.000000000E+00 -9.201809373E+00  9.201809373E+00  0.000000000E+00  0.00000E+00  9.000E+00
      21     1     1     2   514   513 -1.027242775E+01 -3.179110819E+00  7.461927949E+01  7.539009477E+01  9.536743164E-07  0.00000E+00  9.000E+00
      21     1     1     2   511   516  1.309034402E+01  9.411041765E+00  2.009576720E+01  2.576363082E+01  5.331201500E-07  0.00000E+00  9.000E+00
      21     1     1     2   512   511 -2.817916274E+00 -6.231930946E+00 -4.027691377E+00  7.937248469E+00  2.149076030E-07  0.00000E+00  9.000E+00
</event>
<event>
      5  10001  2.40292E+09  1.13553E+01 -1.00000E+00  1.89531E-01
      21    -1     0     0   512   511  0.000000000E+00  0.000000000E+00  6.798922235E+00  6.798922235E+00  0.000000000E+00  0.00000E+00  9.000E+00
       2    -1     0     0   515     0  0.000000000E+00  0.000000000E+00 -2.463079888E+02  2.463079888E+02  0.000000000E+00  0.00000E+00  9.000E+00
      21     1     1     2   515   511 -2.924098359E+01 -2.589319750E+01 -9.198610075E+01  9.993465630E+01  1.907348633E-06  0.00000E+00  9.000E+00
       2     1     1     2   513     0  1.664337685E+01  1.349074312E+01 -1.042188499E+02  1.063986829E+02  3.300000131E-01  0.00000E+00  9.000E+00
      21     1     1     2   512   513  1.259760673E+01  1.240245438E+01 -4.330411598E+01  4.677357193E+01  6.743495762E-07  0.00000E+00  9.000E+00
</event>
<event>
      5  10001  2.40292E+09  1.09393E+01 -1.00000E+00  1.91300E-01
      21    -1     0     0   514   515  0.000000000E+00  0.000000000E+00  1.073178368E+01  1.073178368E+01  0.000000000E+00  0.00000E+00  9.000E+00
      21    -1     0     0   516   514  0.000000000E+00  0.000000000E+00 -2.965059544E+01  2.965059544E+01  0.000000000E+00  0.00000E+00  9.000E+00
      21     1     1     2   513   515  1.137363683E+00  9.634142975E+00  6.757930982E+00  1.182285660E+01  1.192092896E-07  0.00000E+00  9.000E+00
       4     1     1     2   516     0 -2.327980975E-02 -5.279154214E+00 -5.266349933E+00  7.606211460E+00  1.500000000E+00  0.00000E+00  9.000E+00
      -4     1     1     2     0   513 -1.114083873E+00 -4.354988761E+00 -2.041039281E+01  2.095331107E+01  1.500000000E+00  0.00000E+00  9.000E+00
</event>
<event>
      5  10001  2.40292E+09  2.72849E+00 -1.00000E+00  3.09804E-01
      21    -1     0     0   511   515  0.000000000E+00  0.000000000E+00  1.610817189E+01  1.610817189E+01  0.000000000E+00  0.00000E+00  9.000E+00
      21    -1     0     0   513   512  0.000000000E+00  0.000000000E+00 -9.281019144E+00  9.281019144E+00  0.000000000E+00  0.00000E+00  9.000E+00
      21     1     1     2   511   512 -1.024391059E+01 -1.855315664E+00 -2.789326258E+00  1.077776607E+01  1.976862425E-07  0.00000E+00  9.000E+00
      21     1     1     2   513   514  7.442525347E+00  9.386039151E-01  4.619154344E+00  8.809582720E+00  0.000000000E+00  0.00000E+00  9.000E+00
      21     1     1     2   514   515  2.801385244E+00  9.167117489E-01  4.997324660E+00  5.801842248E+00  5.960464478E-08  0.00000E+00  9.000E+00
</event>
<event>
      5  10001  2.40292E+09  7.09662E+00 -1.00000E+00  2.14645E-01
      21    -1     0     0   516   512  0.000000000E+00  0.000000000E+00  1.169465844E+02  1.169465844E+02  0.000000000E+00  0.00000E+00  9.000E+00
      21    -1     0     0   517   515  0.000000000E+00  0.000000000E+00 -1.834820257E+00  1.834820257E+00  0.000000000E+00  0.00000E+00  9.000E+00
      21     1     1     2   516   515  4.743706142E-01 -1.150178202E+01  2.873227618E+01  3.095253966E+01  4.768371582E-07  0.00000E+00  9.000E+00
      21     1     1     2   517   511 -2.817721733E+00  8.198023832E+00  7.842356605E+01  7.890122218E+01  1.651812370E-06  0.00000E+00  9.000E+00
      21     1     1     2   511   512  2.343351119E+00  3.303758183E+00  7.955921897E+00  8.927642792E+00  1.685873940E-07  0.00000E+00  9.000E+00
</event>
<event>
      5  10001  2.40292E+09  7.40644E+00 -1.00000E+00  2.12078E-01
      21    -1     0     0   513   516  0.000000000E+00  0.000000000E+00  3.747253318E+01  3.747253318E+01  0.000000000E+00  0.00000E+00  9.000E+00
      21    -1     0     0   514   512  0.000000000E+00  0.000000000E+00 -3.161717234E+02  3.161717234E+02  0.000000000E+00  0.00000E+00  9.000E+00
      21     1     1     2   513   512  1.238542349E+01  7.896536948E+00 -3.126150642E+02  3.129599534E+02  5.394796609E-06  0.00000E+00  9.000E+00
      21     1     1     2   514   515 -5.020015625E+00 -7.118016136E+00  3.181485298E+01  3.298562688E+01  1.215700987E-06  0.00000E+00  9.000E+00
      21     1     1     2   515   516 -7.365407865E+00 -7.785208118E-01  2.101021070E+00  7.698676328E+00  1.712013080E-07  0.00000E+00  9.000E+00
</event>
<event>
      5  10001  2.40292E+09  2.20343E+01 -1.00000E+00  1.62931E-01
      21    -1     0     0   511   512  0.000000000E+00  0.000000000E+00  3.299086226E+01  3.299086226E+01  0.000000000E+00  0.00000E+00  9.000E+00
      21    -1     0     0   516   511  0.000000000E+00  0.000000000E+00 -1.834582510E+01  1.834582510E+01  0.000000000E+00  0.00000E+00  9.000E+00
      21     1     1     2   516   517  1.166233808E+01 -3.028537069E+00 -1.315605713E+01  1.783995531E+01  1.685873940E-07  0.00000E+00  9.000E+00
      21     1     1     2   513   512  2.118628176E+00 -2.039615568E+00  9.987942633E+00  1.041189776E+01  1.685873940E-07  0.00000E+00  9.000E+00
      21     1     1     2   517   513 -1.378096626E+01  5.068152637E+00  1.781315165E+01  2.308483428E+01  4.129530925E-07  0.00000E+00  9.000E+00
</event>
<event>
      5  10001  2.40292E+09  5.94205E+00 -1.00000E+00  2.26049E-01
      21    -1     0     0   514   511  0.000000000E+00  0.000000000E+00  1.440463402E+01  1.440463402E+01  0.000000000E+00  0.00000E+00  9.000E+00
      21    -1     0     0   516   515  0.000000000E+00  0.000000000E+00 -2.645495224E+02  2.645495224E+02  0.000000000E+00  0.00000E+00  9.000E+00
      21     1     1     2   514   515  1.956060254E+01 -6.583993142E-01 -2.243792179E+02  2.252311792E+02  5.394796609E-06  0.00000E+00  9.000E+00
      21     1     1     2   516   513 -2.550257654E+01  6.274288064E-01 -3.465417180E+01  4.303122937E+01  1.581489940E-06  0.00000E+00  9.000E+00
      21     1     1     2   513   511  5.941974002E+00  3.097050780E-02  8.888501379E+00  1.069174780E+01  4.298152060E-07  0.00000E+00  9.000E+00
</event>
<event>
      5  10001  2.40292E+09  1.03852E+01 -1.00000E+00  1.93821E-01
       2    -1     0     0   515     0  0.000000000E+00  0.000000000E+00  1.829000002E+02  1.829000002E+02  0.000000000E+00  0.00000E+00  9.000E+00
      21    -1     0     0   513   514  0.000000000E+00  0.000000000E+00 -4.978440326E+01  4.978440326E+01  0.000000000E+00  0.00000E+00  9.000E+00
      21     1     1     2   513   512 -1.930823895E+01  8.123121307E+00 -4.567394117E+01  5.024840389E+01  1.168007728E-06  0.00000E+00  9.000E+00
       2     1     1     2   512     0  2.266903363E+01  1.703185820E+00  8.208282192E+01  8.517326154E+01  3.300000131E-01  0.00000E+00  9.000E+00
      21     1     1     2   515   514 -3.360794682E+00 -9.826307127E+00  9.670671617E+01  9.726273801E+01  1.348699152E-06  0.00000E+00  9.000E+00
</event>
<event>
      5  10001  2.40292E+09  3.20452E+00 -1.00000E+00  2.88308E-01
      21    -1     0     0   512   513  0.000000000E+00  0.000000000E+00  2.867286063E+01  2.867286063E+01  0.000000000E+00  0.00000E+00  9.000E+00
      21    -1     0     0   511   514  0.000000000E+00  0.000000000E+00 -2.048435954E+01  2.048435954E+01  0.000000000E+00  0.00000E+00  9.000E+00
      -2     1     1     2     0   513 -1.169479790E+01 -1.449365033E+00  5.637164714E+00  1.306734415E+01  3.300000131E-01  0.00000E+00  9.000E+00
       2     1     1     2   511     0  9.169573089E+00 -5.227435111E-01 -1.535712253E+01  1.789705126E+01  3.300000131E-01  0.00000E+00  9.000E+00
      21     1     1     2   512   514  2.525224815E+00  1.972108544E+00  1.790845890E+01  1.819282476E+01  2.384185791E-07  0.00000E+00  9.000E+00
</event>
<event>
      5  10001  2.40292E+09  8.64440E+00 -1.00000E+00  2.03303E-01
      21    -1     0     0   513   514  0.000000000E+00  0.000000000E+00  8.838202159E+01  8.838202159E+01  0.000000000E+00  0.00000E+00  9.000E+00
      21    -1     0     0   516   515  0.000000000E+00  0.000000000E+00 -5.048923688E+02  5.048923688E+02  0.000000000E+00  0.00000E+00  9.000E+00
      21     1     1     2   511   514  1.399562236E+00  1.872505498E+01  3.578339481E+01  4.041086243E+01  1.966049969E-06  0.00000E+00  9.000E+00
      21     1     1     2   516   511 -6.359097248E+00 -1.164488961E+01 -5.021188405E+02  5.022941086E+02  1.078959322E-05  0.00000E+00  9.000E+00
      21     1     1     2   513   515  4.959535013E+00 -7.080165371E+00  4.982509851E+01  5.056941932E+01  0.000000000E+00  0.00000E+00  9.000E+00
</event>
<event>
      5  10001  2.40292E+09  7.82813E+00 -1.00000E+00  2.08845E-01
       1    -1     0     0   515     0  0.000000000E+00  0.000000000E+00  5.201175087E+02  5.201175087E+02  0.000000000E+00  0.00000E+00  9.000E+00
      21    -1     0     0   512   511  0.000000000E+00  0.000000000E+00 -2.264908885E+00  2.264908885E+00  0.000000000E+00  0.00000E+00  9.000E+00
      21     1     1     2   515   513  1.112225102E+01 -9.340212716E+00  3.491578669E+02  3.494598118E+02  6.607249480E-06  0.00000E+00  9.000E+00
       1     1     1     2   512     0 -9.454032668E+00  1.692392394E+00  1.629005964E+02  1.631838109E+02  3.300000131E-01  0.00000E+00  9.000E+00
      21     1     1     2   513   511 -1.668218356E+00  7.647820322E+00  5.794136492E+00  9.738794887E+00  6.078504936E-07  0.00000E+00  9.000E+00
</event>
<event>
      5  10001  2.40292E+09  6.50771E+00 -1.00000E+00  2.20055E-01
      21    -1     0     0   514   511  0.000000000E+00  0.000000000E+00  7.483126539E+00  7.483126539E+00  0.000000000E+00  0.00000E+00  9.000E+00
      21    -1     0     0   513   516  0.000000000E+00  0.000000000E+00 -1.385675161E+01  1.385675161E+01  0.000000000E+00  0.00000E+00  9.000E+00
      21     1     1     2   514   516 -1.839319629E+00  8.001805267E+00 -1.337348470E+00  8.318682898E+00  1.182743003E-07  0.00000E+00  9.000E+00
      21     1     1     2   513   512 -1.456700597E+00 -6.721572897E+00 -6.239493625E+00  9.286161722E+00  8.429369702E-08  0.00000E+00  9.000E+00
      21     1     1     2   512   511  3.296020227E+00 -1.280232370E+00  1.203217023E+00  3.735033529E+00  5.771194914E-08  0.00000E+00  9.000E+00
</event>
<event>
      5  10001  2.40292E+09  5.20839E+00 -1.00000E+00  2.35373E-01
       3    -1     0     0   514     0  0.000000000E+00  0.000000000E+00  5.097604838E+01  5.097604838E+01  0.000000000E+00  0.00000E+00  9.000E+00
      21    -1     0     0   515   514  0.000000000E+00  0.000000000E+00 -8.198810904E+00  8.198810904E+00  0.000000000E+00  0.00000E+00  9.000E+00
      21     1     1     2   513   512  3.575452224E+00 -5.762650122E+00  2.318255333E-01  6.785701004E+00  5.989497599E-08  0.00000E+00  9.000E+00
       3     1     1     2   512     0 -3.856071909E+00  9.995131425E+00  4.580235347E+01  4.704123219E+01  5.000000000E-01  0.00000E+00  9.000E+00
      21     1     1     2   515   513  2.806196851E-01 -4.232481303E+00 -3.256941525E+00  5.347926091E+00  9.424321831E-08  0.00000E+00  9.000E+00
</event>
<event>
      5  10001  2.40292E+09  1.67269E+01 -1.00000E+00  1.72993E-01
       2    -1     0     0   511     0  0.000000000E+00  0.000000000E+00  2.100101514E+02  2.100101514E+02  0.000000000E+00  0.00000E+00  9.000E+00
      21    -1     0     0   515   513  0.000000000E+00  0.000000000E+00 -3.719082176E+01  3.719082176E+01  0.000000000E+00  0.00000E+00  9.000E+00
      21     1     1     2   511   513 -7.762190590E+00 -1.686020792E+01  2.134926117E+01  2.828973606E+01  3.371747881E-07  0.00000E+00  9.000E+00
      21     1     1     2   515   512  1.557233288E+01  3.165173117E+01 -2.398722007E+01  4.265813362E+01  8.259061849E-07  0.00000E+00  9.000E+00
       2     1     1     2   512     0 -7.810142293E+00 -1.479152325E+01  1.754572886E+02  1.762531035E+02  3.300000131E-01  0.00000E+00  9.000E+00
</event>
<event>
      5  10001  2.40292E+09  5.74697E+00 -1.00000E+00  2.28337E-01
      21    -1     0     0   514   513  0.000000000E+00  0.000000000E+00  1.981799138E+01  1.981799138E+01  0.000000000E+00  0.00000E+00  9.000E+00
      21    -1     0     0   511   516  0.000000000E+00  0.000000000E+00 -2.501006224E+02  2.501006224E+02  0.000000000E+00  0.00000E+00  9.000E+00
      21     1     1     2   514   516 -1.837025711E+01  4.755099468E+00  4.343669061E+00  1.946650401E+01  4.042583694E-07  0.00000E+00  9.000E+00
      21     1     1     2   517   513  1.948871471E+01 -1.039218015E+01 -7.606382245E+00  2.335946190E+01  7.817075878E-07  0.00000E+00  9.000E+00
      21     1     1     2   511   517 -1.118457599E+00  5.637080679E+00 -2.270199178E+02  2.270926479E+02  0.000000000E+00  0.00000E+00  9.000E+00
</event>
<event>
      5  10001  2.40292E+09  6.77165E+00 -1.00000E+00  2.17537E-01
      21    -1     0     0   512   516  0.000000000E+00  0.000000000E+00  1.871687057E+01  1.871687057E+01  0.000000000E+00  0.00000E+00  9.000E+00
      21    -1     0     0   511   512  0.000000000E+00  0.000000000E+00 -8.752385575E+01  8.752385575E+01  0.000000000E+00  0.00000E+00  9.000E+00
      21     1     1     2   511   515 -4.150186702E-01  1.344214769E+01 -8.159273525E+01  8.269363954E+01  1.651812370E-06  0.00000E+00  9.000E+00
      21     1     1     2   513   516  2.267686610E-01 -6.662140274E+00  1.499811448E+01  1.641276866E+01  6.529361695E-07  0.00000E+00  9.000E+00
      21     1     1     2   515   513  1.882500092E-01 -6.780007419E+00 -2.212364407E+00  7.134318113E+00  1.032382731E-07  0.00000E+00  9.000E+00
</event>
<event>
      5  10001  2.40292E+09  3.13876E+00 -1.00000E+00  2.90900E-01
      21    -1     0     0   514   513  0.000000000E+00  0.000000000E+00  1.402995808E+01  1.402995808E+01  0.000000000E+00  0.00000E+00  9.000E+00
      -2    -1     0     0     0   517  0.000000000E+00  0.000000000E+00 -1.429977915E+01  1.429977915E+01  0.000000000E+00  0.00000E+00  9.000E+00
      21     1     1     2   514   517  3.632125714E-01 -9.896024183E+00 -2.481088874E+00  1.020877172E+01  7.884953353E-08  0.00000E+00  9.000E+00
      21     1     1     2   511   513  2.746234362E+00  1.031578523E+01  6.722894612E+00  1.261564663E+01  0.000000000E+00  0.00000E+00  9.000E+00
      -2     1     1     2     0   511 -3.109446933E+00 -4.197610428E-01 -4.511626805E+00  5.505318883E+00  3.300000131E-01  0.00000E+00  9.000E+00
</event>
<event>
      5  10001  2.40292E+09  8.68294E+00 -1.00000E+00  2.03062E-01
      21    -1     0     0   512   511  0.000000000E+00  0.000000000E+00  1.890958697E+02  1.890958697E+02  0.000000000E+00  0.00000E+00  9.000E+00
      21    -1     0     0   516   513  0.000000000E+00  0.000000000E+00 -3.313769525E+00  3.313769525E+00  0.000000000E+00  0.00000E+00  9.000E+00
      21     1     1     2   512   515  3.140027904E+00 -8.490554633E+00  1.385110014E+02  1.388065085E+02  3.814697266E-06  0.00000E+00  9.000E+00
      21     1     1     2   516   511  1.042918623E+00  1.609952307E+01  2.562838419E+01  3.028359950E+01  6.743495762E-07  0.00000E+00  9.000E+00
      21     1     1     2   515   513 -4.182946527E+00 -7.608968436E+00  2.164271466E+01  2.331953130E+01  0.000000000E+00  0.00000E+00  9.000E+00
</event>
<event>
      5  10001  2.40292E+09  9.14000E+00 -1.00000E+00  2.00321E-01
      21    -1     0     0   514   513  0.000000000E+00  0.000000000E+00  2.873251751E+02  2.873251751E+02  0.000000000E+00  0.00000E+00  9.000E+00
      21    -1     0     0   511   517  0.000000000E+00  0.000000000E+00 -7.154795307E+01  7.154795307E+01  0.000000000E+00  0.00000E+00  9.000E+00
      21     1     1     2   514   517 -2.792222271E+01  5.557764138E+00  2.721629103E+02  2.736479289E+02  0.000000000E+00  0.00000E+00  9.000E+00
      21     1     1     2   515   513  2.961249218E+01  3.424587396E+00 -1.783337192E+00  2.986315093E+01  1.254886584E-06  0.00000E+00  9.000E+00
      21     1     1     2   511   515 -1.690269464E+00 -8.982351534E+00 -5.460235108E+01  5.536204832E+01  1.651812370E-06  0.00000E+00  9.000E+00
</event>
<event>
      5  10001  2.40292E+09  8.19944E+00 -1.00000E+00  2.06217E-01
      21    -1     0     0   512   515  0.000000000E+00  0.000000000E+00  5.547554371E+00  5.547554371E+00  0.000000000E+00  0.00000E+00  9.000E+00
      21    -1     0     0   511   512  0.000000000E+00  0.000000000E+00 -1.935807559E+01  1.935807559E+01  0.000000000E+00  0.00000E+00  9.000E+00
      21     1     1     2   511   516 -2.841083360E+00  8.261183202E+00 -5.354684722E+00  1.024653849E+01  2.665600750E-07  0.00000E+00  9.000E+00
      21     1     1     2   513   515  3.038410312E+00 -3.741772494E+00  2.729115003E-01  4.827761315E+00  1.571260147E-07  0.00000E+00  9.000E+00
      21     1     1     2   516   513 -1.973269526E-01 -4.519410707E+00 -8.728748002E+00  9.831330162E+00  1.192092896E-07  0.00000E+00  9.000E+00
</event>
<event>
      5  10001  2.40292E+09  1.08514E+01 -1.00000E+00  1.91686E-01
      21    -1     0     0   514   511  0.000000000E+00  0.000000000E+00  9.957029784E+00  9.957029784E+00  0.000000000E+00  0.00000E+00  9.000E+00
      21    -1     0     0   517   514  0.000000000E+00  0.000000000E+00 -3.633369110E+01  3.633369110E+01  0.000000000E+00  0.00000E+00  9.000E+00
      21     1     1     2   513   511  4.772384248E-01 -1.009622412E+01  5.851373984E+00  1.167904429E+01  2.384185791E-07  0.00000E+00  9.000E+00
      21     1     1     2   512   513  2.001264353E-01  5.911144864E+00 -7.645270741E+00  9.666015151E+00  8.429369702E-08  0.00000E+00  9.000E+00
      21     1     1     2   517   512 -6.773648602E-01  4.185079256E+00 -2.458276456E+01  2.494566145E+01  3.371747881E-07  0.00000E+00  9.000E+00
</event>
<event>
      5  10001  2.40292E+09  2.49289E+00 -1.00000E+00  3.23448E-01
      21    -1     0     0   512   511  0.000000000E+00  0.000000000E+00  1.273279318E+00  1.273279318E+00  0.000000000E+00  0.00000E+00  9.000E+00
       1    -1     0     0   511     0  0.000000000E+00  0.000000000E+00 -5.602821131E+02  5.602821131E+02  0.000000000E+00  0.00000E+00  9.000E+00
      21     1     1     2   512   515 -2.869215860E+00  2.482997186E+01 -1.844822373E+02  1.861678162E+02  2.697398305E-06  0.00000E+00  9.000E+00
      21     1     1     2   515   513  2.236394767E+00 -1.986983263E+01 -2.690368321E+02  2.697788515E+02  3.814697266E-06  0.00000E+00  9.000E+00
       1     1     1     2   513     0  6.328210926E-01 -4.960139232E+00 -1.054897644E+02  1.056087247E+02  3.300000131E-01  0.00000E+00  9.000E+00
</event>
<event>
      5  10001  2.40292E+09  2.64961E+00 -1.00000E+00  3.14100E-01
       2    -1     0     0   512     0  0.000000000E+00  0.000000000E+00  1.668132358E+02  1.668132358E+02  0.000000000E+00  0.00000E+00  9.000E+00
      21    -1     0     0   514   511  0.000000000E+00  0.000000000E+00 -2.697701369E+01  2.697701369E+01  0.000000000E+00  0.00000E+00  9.000E+00
      21     1     1     2   514   513 -1.063101182E+01  7.162275174E+00 -1.327508243E+01  1.845384544E+01  5.840038640E-07  0.00000E+00  9.000E+00
       2     1     1     2   513     0  8.538813010E+00 -5.536535600E+00  1.639056623E+02  1.642216173E+02  3.300000131E-01  0.00000E+00  9.000E+00
      21     1     1     2   512   511  2.092198812E+00 -1.625739574E+00 -1.079435776E+01  1.111478675E+01  3.153981341E-07  0.00000E+00  9.000E+00
</event>
<event>
      5  10001  2.40292E+09  4.12691E+00 -1.00000E+00  2.60209E-01
      21    -1     0     0   514   515  0.000000000E+00  0.000000000E+00  5.700937201E-01  5.700937201E-01  0.000000000E+00  0.00000E+00  9.000E+00
      -2    -1     0     0     0   511  0.000000000E+00  0.000000000E+00 -2.970256597E+02  2.970256597E+02  0.000000000E+00  0.00000E+00  9.000E+00
      -2     1     1     2     0   513 -5.378746056E+00  3.494551966E+00 -1.508745700E+02  1.510112167E+02  3.300000131E-01  0.00000E+00  9.000E+00
      21     1     1     2   514   511  9.445464296E+00 -6.904076733E+00 -9.186394038E+01  9.260597505E+01  2.336015456E-06  0.00000E+00  9.000E+00
      21     1     1     2   513   515 -4.066718240E+00  3.409524767E+00 -5.371705561E+01  5.397856167E+01  6.743495762E-07  0.00000E+00  9.000E+00
</event>
<event>
      5  10001  2.40292E+09  1.60532E+01 -1.00000E+00  1.74605E-01
      21    -1     0     0   513   515  0.000000000E+00  0.000000000E+00  3.330212149E+01  3.330212149E+01  0.000000000E+00  0.00000E+00  9.000E+00
       1    -1     0     0   515     0  0.000000000E+00  0.000000000E+00 -1.998213199E+02  1.998213199E+02  0.000000000E+00  0.00000E+00  9.000E+00
      21     1     1     2   513   511  1.133088437E+01  7.316843331E+00  2.428169566E+01  2.777635471E+01  3.371747881E-07  0.00000E+00  9.000E+00
       1     1     1     2   512     0 -1.444644134E+01  5.746160920E+00 -1.912781172E+02  1.919092105E+02  3.300000131E-01  0.00000E+00  9.000E+00
      21     1     1     2   511   512  3.115556977E+00 -1.306300425E+01  4.772231560E-01  1.343787622E+01  2.258029947E-07  0.00000E+00  9.000E+00
</event>
<event>
      5  10001  2.40292E+09  3.27604E+00 -1.00000E+00  2.85602E-01
      21    -1     0     0   513   512  0.000000000E+00  0.000000000E+00  1.350031593E+01  1.350031593E+01  0.000000000E+00  0.00000E+00  9.000E+00
       3    -1     0     0   511     0  0.000000000E+00  0.000000000E+00 -9.489233430E+01  9.489233430E+01  0.000000000E+00  0.00000E+00  9.000E+00
      21     1     1     2   511   512 -1.190014471E+01  1.215232045E+00 -6.910406651E+01  7.013174917E+01  0.000000000E+00  0.00000E+00  9.000E+00
       3     1     1     2   514     0  1.121243888E+01 -4.417836793E+00 -2.358943385E+01  2.649429103E+01  5.000000000E-01  0.00000E+00  9.000E+00
      21     1     1     2   513   514  6.877058307E-01  3.202604749E+00  1.130148199E+01  1.176661003E+01  2.384185791E-07  0.00000E+00  9.000E+00
</event>
<event>
      5  10001  2.40292E+09  2.10086E+01 -1.00000E+00  1.64584E-01
      21    -1     0     0   515   512  0.000000000E+00  0.000000000E+00  5.315794842E+00  5.315794842E+00  0.000000000E+00  0.00000E+00  9.000E+00
      21    -1     0     0   511   516  0.000000000E+00  0.000000000E+00 -2.783308856E+01  2.783308856E+01  0.000000000E+00  0.00000E+00  9.000E+00
      21     1     1     2   515   516  9.295118761E-01  5.608053433E+00 -1.160241654E+01  1.292015191E+01  0.000000000E+00  0.00000E+00  9.000E+00
      21     1     1     2   517   512  4.386194552E-01 -1.435268395E+00 -1.448912857E+01  1.456664783E+01  2.384185791E-07  0.00000E+00  9.000E+00
      21     1     1     2   511   517 -1.368131331E+00 -4.172785039E+00  3.574251398E+00  5.662083660E+00  7.300048300E-08  0.00000E+00  9.000E+00
</event>
<event>
      5  10001  2.40292E+09  3.50310E+00 -1.00000E+00  2.77706E-01
       3    -1     0     0   515     0  0.000000000E+00  0.000000000E+00  4.592648235E+01  4.592648235E+01  0.000000000E+00  0.00000E+00  9.000E+00
      21    -1     0     0   514   515  0.000000000E+00  0.000000000E+00 -8.823046700E+00  8.823046700E+00  0.000000000E+00  0.00000E+00  9.000E+00
      21     1     1     2   514   513  6.993082100E+00  8.080462428E+00 -3.846282777E+00  1.135741879E+01  1.032382731E-07  0.00000E+00  9.000E+00
       3     1     1     2   512     0 -4.767121440E+00 -7.325819940E+00  3.984428722E+01  4.079473384E+01  5.000000000E-01  0.00000E+00  9.000E+00
      21     1     1     2   513   512 -2.225960660E+00 -7.546424879E-01  1.105431205E+00  2.597376425E+00  5.161913656E-08  0.00000E+00  9.000E+00
</event>
<event>
      5  10001  2.40292E+09  5.94733E+00 -1.00000E+00  2.25989E-01
      -2    -1     0     0     0   511  0.000000000E+00  0.000000000E+00  4.569925894E+00  4.569925894E+00  0.000000000E+00  0.00000E+00  9.000E+00
      21    -1     0     0   516   512  0.000000000E+00  0.000000000E+00 -4.321352994E+01  4.321352994E+01  0.000000000E+00  0.00000E+00  9.000E+00
      -2     1     1     2     0   514  9.374548737E+00  2.575873294E+00 -7.027428765E+00  1.200045592E+01  3.300000131E-01  0.00000E+00  9.000E+00
      21     1     1     2   516   511 -1.249066821E+01 -2.758951229E-01 -2.045264643E+01  2.396671977E+01  0.000000000E+00  0.00000E+00  9.000E+00
      21     1     1     2   514   512  3.116119470E+00 -2.299978171E+00 -1.116352885E+01  1.181628015E+01  1.192092896E-07  0.00000E+00  9.000E+00
</event>
<event>
      5  10001  2.40292E+09  1.67134E+01 -1.00000E+00  1.73024E-01
      21    -1     0     0   513   511  0.000000000E+00  0.000000000E+00  3.149111842E+02  3.149111842E+02  0.000000000E+00  0.00000E+00  9.000E+00
      21    -1     0     0   515   513  0.000000000E+00  0.000000000E+00 -2.139122773E+00  2.139122773E+00  0.000000000E+00  0.00000E+00  9.000E+00
      21     1     1     2   512   511  8.822894187E+00 -5.436312554E+00  2.801406586E+02  2.803322771E+02  0.000000000E+00  0.00000E+00  9.000E+00
      21     1     1     2   516   512 -1.381812974E+00 -3.873537505E+00  4.145602099E+00  5.839496268E+00  2.308477966E-07  0.00000E+00  9.000E+00
      21     1     1     2   515   516 -7.441081213E+00  9.309850058E+00  2.848580077E+01  3.087853369E+01  5.840038640E-07  0.00000E+00  9.000E+00
</event>
<event>
      5  10001  2.40292E+09  1.70173E+01 -1.00000E+00  1.72327E-01
      21    -1     0     0   514   515  0.000000000E+00  0.000000000E+00  9.525981613E-01  9.525981613E-01  0.000000000E+00  0.00000E+00  9.000E+00
      21    -1     0     0   511   517  0.000000000E+00  0.000000000E+00 -3.853281290E+02  3.853281290E+02  0.000000000E+00  0.00000E+00  9.000E+00
      21     1     1     2   514   517  1.095297658E+01  1.021505021E+01 -9.660734805E+01  9.776141695E+01  1.348699152E-06  0.00000E+00  9.000E+00
      21     1     1     2   511   512 -4.773841616E+00  8.582569209E-01 -1.702275542E+02  1.702966423E+02  1.907348633E-06  0.00000E+00  9.000E+00
      21     1     1     2   512   515 -6.179134966E+00 -1.107330713E+01 -1.175406286E+02  1.182226680E+02  1.907348633E-06  0.00000E+00  9.000E+00
</event>
<event>
      5  10001  2.40292E+09  2.44804E+00 -1.00000E+00  3.26348E-01
      21    -1     0     0   514   511  0.000000000E+00  0.000000000E+00  7.624443867E+00  7.624443867E+00  0.000000000E+00  0.00000E+00  9.000E+00
      21    -1     0     0   515   513  0.000000000E+00  0.000000000E+00 -3.269873204E+01  3.269873204E+01  0.000000000E+00  0.00000E+00  9.000E+00
      21     1     1     2   515   516  8.016735606E-01 -1.431171618E+01 -1.121080652E+01  1.819752959E+01  2.665600750E-07  0.00000E+00  9.000E+00
      21     1     1     2   516   511  1.618661368E+00  1.467895128E+01 -1.231567610E+01  1.922934094E+01  3.371747881E-07  0.00000E+00  9.000E+00
      21     1     1     2   514   513 -2.420334929E+00 -3.672351011E-01 -1.547805557E+00  2.896305375E+00  4.214684851E-08  0.00000E+00  9.000E+00
</event>
<event>
      5  10001  2.40292E+09  1.08457E+01 -1.00000E+00  1.91712E-01
       2    -1     0     0   513     0  0.000000000E+00  0.000000000E+00  9.284174156E+01  9.284174156E+01  0.000000000E+00  0.00000E+00  9.000E+00
      21    -1     0     0   512   513  0.000000000E+00  0.000000000E+00 -7.769430339E+01  7.769430339E+01  0.000000000E+00  0.00000E+00  9.000E+00
      -2     1     1     2     0   511 -4.100042316E+00 -1.243321024E+01  6.303631021E+00  1.453408848E+01  3.300000131E-01  0.00000E+00  9.000E+00
       2     1     1     2   512     0 -6.257518925E+00  1.564919893E+01 -7.224746127E+01  7.418799452E+01  3.300000131E-01  0.00000E+00  9.000E+00
       2     1     1     2   511     0  1.035756124E+01 -3.215988689E+00  8.109126841E+01  8.181396196E+01  3.300000131E-01  0.00000E+00  9.000E+00
</event>
<event>
      5  10001  2.40292E+09  3.24859E+00 -1.00000E+00  2.86627E-01
      -2    -1     0     0     0   514  0.000000000E+00  0.000000000E+00  4.177307615E+02  4.177307615E+02  0.000000000E+00  0.00000E+00  9.000E+00
      21    -1     0     0   512   513  0.000000000E+00  0.000000000E+00 -7.440394074E-01  7.440394074E-01  0.000000000E+00  0.00000E+00  9.000E+00
      -2     1     1     2     0   513 -5.616526695E+00 -1.113475969E+01  2.865771936E+02  2.868486099E+02  3.300000131E-01  0.00000E+00  9.000E+00
      21     1     1     2   515   514  8.402652914E+00  9.464809952E+00  1.212301652E+02  1.218890486E+02  3.015782986E-06  0.00000E+00  9.000E+00
      21     1     1     2   512   515 -2.786126219E+00  1.669949737E+00  9.179363271E+00  9.737142368E+00  1.685873940E-07  0.00000E+00  9.000E+00
</event>
<event>
      5  10001  2.40292E+09  2.43515E+00 -1.00000E+00  3.27201E-01
      21    -1     0     0   511   514  0.000000000E+00  0.000000000E+00  1.498685633E+01  1.498685633E+01  0.000000000E+00  0.00000E+00  9.000E+00
      21    -1     0     0   512   516  0.000000000E+00  0.000000000E+00 -2.191916213E+01  2.191916213E+01  0.000000000E+00  0.00000E+00  9.000E+00
      21     1     1     2   511   516 -7.557962838E+00  1.168161845E+01 -1.443983659E+01  2.005222912E+01  1.685873940E-07  0.00000E+00  9.000E+00
      21     1     1     2   512   513  7.446160765E+00 -9.249032544E+00  3.893632790E+00  1.249601094E+01  2.149076030E-07  0.00000E+00  9.000E+00
      21     1     1     2   513   514  1.118020735E-01 -2.432585909E+00  3.613897998E+00  4.357778407E+00  0.000000000E+00  0.00000E+00  9.000E+00
</event>
<event>
      5  10001  2.40292E+09  2.11938E+01 -1.00000E+00  1.64277E-01
      21    -1     0     0   515   512  0.000000000E+00  0.000000000E+00  4.190648209E+01  4.190648209E+01  0.000000000E+00  0.00000E+00  9.000E+00
      21    -1     0     0   517   514  0.000000000E+00  0.000000000E+00 -4.122780249E+00  4.122780249E+00  0.000000000E+00  0.00000E+00  9.000E+00
      21     1     1     2   515   514  1.084405343E+00  2.795779827E+00  1.505650346E+00  3.355488452E+00  2.190014490E-07  0.00000E+00  9.000E+00
      21     1     1     2   511   512  2.023996342E+00  1.310705881E+00  3.733780976E+01  3.741559232E+01  4.768371582E-07  0.00000E+00  9.000E+00
      21     1     1     2   517   511 -3.108401685E+00 -4.106485708E+00 -1.059758256E+00  5.258181574E+00  1.341104507E-07  0.00000E+00  9.000E+00
</event>
<event>
      5  10001  2.40292E+09  1.32359E+01 -1.00000E+00  1.82610E-01
      21    -1     0     0   513   511  0.000000000E+00  0.000000000E+00  2.759733035E+01  2.759733035E+01  0.000000000E+00  0.00000E+00  9.000E+00
      21    -1     0     0   517   516  0.000000000E+00  0.000000000E+00 -1.264803292E+01  1.264803292E+01  0.000000000E+00  0.00000E+00  9.000E+00
      21     1     1     2   513   516  1.618650991E+01 -2.138762262E+00  2.663980201E+00  1.654310121E+01  3.053829302E-07  0.00000E+00  9.000E+00
      21     1     1     2   517   512 -8.444404388E+00 -2.020228246E+00  1.062239638E-01  8.683350227E+00  2.686764746E-07  0.00000E+00  9.000E+00
      21     1     1     2   512   511 -7.742105521E+00  4.158990508E+00  1.217909327E+01  1.501891184E+01  2.384185791E-07  0.00000E+00  9.000E+00
</event>
<event>
      5  10001  2.40292E+09  2.99175E+01 -1.00000E+00  1.53088E-01
      21    -1     0     0   514   511  0.000000000E+00  0.000000000E+00  1.598611547E+01  1.598611547E+01  0.000000000E+00  0.00000E+00  9.000E+00
       1    -1     0     0   511     0  0.000000000E+00  0.000000000E+00 -1.890051661E+02  1.890051661E+02  0.000000000E+00  0.00000E+00  9.000E+00
      21     1     1     2   513   512 -6.717313693E+00 -5.352506884E+00  1.358607453E+01  1.607336475E+01  9.830249847E-07  0.00000E+00  9.000E+00
       1     1     1     2   512     0 -5.569781646E+00  9.673008309E+00 -1.423141594E+02  1.427515970E+02  3.300000131E-01  0.00000E+00  9.000E+00
      21     1     1     2   514   513  1.228709534E+01 -4.320501425E+00 -4.429096571E+01  4.616631985E+01  6.743495762E-07  0.00000E+00  9.000E+00
</event>
<event>
      5  10001  2.40292E+09  4.94985E+00 -1.00000E+00  2.43324E-01
      21    -1     0     0   515   513  0.000000000E+00  0.000000000E+00  5.717819614E+02  5.717819614E+02  0.000000000E+00  0.00000E+00  9.000E+00
      21    -1     0     0   511   515  0.000000000E+00  0.000000000E+00 -1.692845136E+00  1.692845136E+00  0.000000000E+00  0.00000E+00  9.000E+00
      21     1     1     2   516   513 -1.109796543E+01 -9.372607911E+00  5.326478764E+02  5.328459166E+02  7.629394531E-06  0.00000E+00  9.000E+00
      21     1     1     2   511   512  6.812897653E+00  2.888376068E+00  1.273335651E+01  1.472741181E+01  7.907449699E-07  0.00000E+00  9.000E+00
      21     1     1     2   512   516  4.285067772E+00  6.484231844E+00  2.470788331E+01  2.590147807E+01  3.371747881E-07  0.00000E+00  9.000E+00
</event>
<event>
      5  10001  2.40292E+09  1.56922E+01 -1.00000E+00  1.75511E-01
      21    -1     0     0   514   511  0.000000000E+00  0.000000000E+00  9.597186049E+01  9.597186049E+01  0.000000000E+00  0.00000E+00  9.000E+00
      21    -1     0     0   513   516  0.000000000E+00  0.000000000E+00 -3.346505349E+01  3.346505349E+01  0.000000000E+00  0.00000E+00  9.000E+00
      21     1     1     2   514   516 -2.403556195E+00  9.629848313E+00 -3.040189537E+01  3.198103037E+01  4.768371582E-07  0.00000E+00  9.000E+00
      21     1     1     2   513   515  2.514351722E+00 -1.904384084E+01  7.212684931E+01  7.464095544E+01  9.536743164E-07  0.00000E+00  9.000E+00
      21     1     1     2   515   511 -1.107955264E-01  9.413992523E+00  2.078185307E+01  2.281492818E+01  0.000000000E+00  0.00000E+00  9.000E+00
</event>
<event>
      5  10001  2.40292E+09  4.75701E+00 -1.00000E+00  2.46814E-01
      21    -1     0     0   512   513  0.000000000E+00  0.000000000E+00  4.548002307E+00  4.548002307E+00  0.000000000E+00  0.00000E+00  9.000E+00
      21    -1     0     0   517   511  0.000000000E+00  0.000000000E+00 -4.194524196E+01  4.194524196E+01  0.000000000E+00  0.00000E+00  9.000E+00
      21     1     1     2   512   511  1.718238341E+00 -1.051389568E+01 -4.194027266E+00  1.144920129E+01  2.230201594E-07  0.00000E+00  9.000E+00
      21     1     1     2   517   514  2.634295031E-01  4.538408489E+00 -9.702701027E+00  1.071489402E+01  0.000000000E+00  0.00000E+00  9.000E+00
      21     1     1     2   514   513 -1.981667844E+00  5.975487195E+00 -2.350051136E+01  2.432914895E+01  0.000000000E+00  0.00000E+00  9.000E+00
</event>
<event>
      5  10001  2.40292E+09  5.52457E+00 -1.00000E+00  2.31105E-01
      21    -1     0     0   515   511  0.000000000E+00  0.000000000E+00  4.507105241E+01  4.507105241E+01  0.000000000E+00  0.00000E+00  9.000E+00
      21    -1     0     0   516   513  0.000000000E+00  0.000000000E+00 -3.412346605E+00  3.412346605E+00  0.000000000E+00  0.00000E+00  9.000E+00
      21     1     1     2   515   513 -6.010464385E+00  7.183500492E+00  6.123558173E+00  1.119045692E+01  8.429369702E-08  0.00000E+00  9.000E+00
      21     1     1     2   516   512  1.548088277E+00 -6.553932388E+00  1.916132775E+01  2.031027051E+01  4.129530925E-07  0.00000E+00  9.000E+00
      21     1     1     2   512   511  4.462376108E+00 -6.295681043E-01  1.637381988E+01  1.698267158E+01  0.000000000E+00  0.00000E+00  9.000E+00
</event>
<event>
      5  10001  2.40292E+09  9.33741E+00 -1.00000E+00  1.99203E-01
      21    -1     0     0   512   511  0.000000000E+00  0.000000000E+00  8.853870300E+00  8.853870300E+00  0.000000000E+00  0.00000E+00  9.000E+00
       3    -1     0     0   514     0  0.000000000E+00  0.000000000E+00 -6.338665212E+01  6.338665212E+01  0.000000000E+00  0.00000E+00  9.000E+00
      21     1     1     2   514   511 -1.110642017E+01 -6.638918894E-01  3.884019807E+00  1.178469054E+01  2.920019320E-07  0.00000E+00  9.000E+00
      21     1     1     2   512   513  9.031094634E+00  4.898429389E+00 -3.175764867E+01  3.337818944E+01  4.768371582E-07  0.00000E+00  9.000E+00
       3     1     1     2   513     0  2.075325531E+00 -4.234537500E+00 -2.665915296E+01  2.707764244E+01  5.000000000E-01  0.00000E+00  9.000E+00
</event>
<event>
      5  10001  2.40292E+09  8.41113E+00 -1.00000E+00  2.04801E-01
       1    -1     0     0   515     0  0.000000000E+00  0.000000000E+00  5.184513140E+02  5.184513140E+02  0.000000000E+00  0.00000E+00  9.000E+00
      21    -1     0     0   511   515  0.000000000E+00  0.000000000E+00 -7.790465815E+01  7.790465815E+01  0.000000000E+00  0.00000E+00  9.000E+00
      21     1     1     2   512   513  1.272064350E+01  1.192944576E+00  3.773311715E+01  3.983749512E+01  1.261592536E-06  0.00000E+00  9.000E+00
       1     1     1     2   513     0 -1.328566170E+01 -9.585070821E+00  4.792954448E+02  4.795754526E+02  3.300000131E-01  0.00000E+00  9.000E+00
      21     1     1     2   511   512  5.650181992E-01  8.392126245E+00 -7.648190619E+01  7.694302439E+01  2.523185073E-06  0.00000E+00  9.000E+00
</event>
<event>
      5  10001  2.40292E+09  1.59302E+01 -1.00000E+00  1.74911E-01
      21    -1     0     0   514   512  0.000000000E+00  0.000000000E+00  6.097062913E+01  6.097062913E+01  0.000000000E+00  0.00000E+00  9.000E+00
      21    -1     0     0   511   514  0.000000000E+00  0.000000000E+00 -2.353338861E+01  2.353338861E+01  0.000000000E+00  0.00000E+00  9.000E+00
      21     1     1     2   516   512 -1.955733775E+01  1.219352470E+01  4.968726403E+01  5.477221660E+01  0.000000000E+00  0.00000E+00  9.000E+00
      21     1     1     2   511   513  1.282508870E+01 -8.732827021E+00 -2.189607347E-01  1.551750984E+01  5.000291632E-07  0.00000E+00  9.000E+00
      21     1     1     2   513   516  6.732249049E+00 -3.460697675E+00 -1.203106277E+01  1.421429130E+01  4.129530925E-07  0.00000E+00  9.000E+00
</event>
<event>
      5  10001  2.40292E+09  1.04587E+01 -1.00000E+00  1.93475E-01
      21    -1     0     0   515   511  0.000000000E+00  0.000000000E+00  5.408001285E+00  5.408001285E+00  0.000000000E+00  0.00000E+00  9.000E+00
      21    -1     0     0   512   516  0.000000000E+00  0.000000000E+00 -4.667532526E+01  4.667532526E+01  0.000000000E+00  0.00000E+00  9.000E+00
      21     1     1     2   515   516 -4.613094483E+00  8.237134618E+00 -3.429271542E+01  3.556854451E+01  8.259061849E-07  0.00000E+00  9.000E+00
      21     1     1     2   514   511 -2.570583752E+00 -5.082992669E+00  4.489795658E-01  5.713693897E+00  1.724934116E-07  0.00000E+00  9.000E+00
      21     1     1     2   512   514  7.183678235E+00 -3.154141950E+00 -7.423588116E+00  1.080108814E+01  0.000000000E+00  0.00000E+00  9.000E+00
</event>
<event>
      5  10001  2.40292E+09  4.48459E+00 -1.00000E+00  2.52193E-01
      21    -1     0     0   513   511  0.000000000E+00  0.000000000E+00  5.499330524E+00  5.499330524E+00  0.000000000E+00  0.00000E+00  9.000E+00
      21    -1     0     0   512   517  0.000000000E+00  0.000000000E+00 -2.413627420E+02  2.413627420E+02  0.000000000E+00  0.00000E+00  9.000E+00
      21     1     1     2   513   517 -6.679226331E+00  1.174461708E+01 -4.081428309E+00  1.411404095E+01  7.702617635E-07  0.00000E+00  9.000E+00
      21     1     1     2   512   514  2.673299462E+00 -9.728662047E+00 -2.184330002E+02  2.186658844E+02  2.697398305E-06  0.00000E+00  9.000E+00
      21     1     1     2   514   511  4.005926869E+00 -2.015955034E+00 -1.334898297E+01  1.408214725E+01  0.000000000E+00  0.00000E+00  9.000E+00
</event>
<event>
      5  10001  2.40292E+09  1.09146E+01 -1.00000E+00  1.91408E-01
      21    -1     0     0   515   512  0.000000000E+00  0.000000000E+00  2.344245135E+01  2.344245135E+01  0.000000000E+00  0.00000E+00  9.000E+00
      21    -1     0     0   511   515  0.000000000E+00  0.000000000E+00 -1.138524888E+02  1.138524888E+02  0.000000000E+00  0.00000E+00  9.000E+00
      21     1     1     2   511   516  1.065966314E+00 -1.261358337E+01 -1.093640178E+02  1.100941741E+02  0.000000000E+00  0.00000E+00  9.000E+00
      21     1     1     2   513   512  5.817725861E+00  5.785305257E+00  1.420526785E+01  1.640443007E+01  0.000000000E+00  0.00000E+00  9.000E+00
      21     1     1     2   516   513 -6.883692176E+00  6.828278117E+00  4.748712540E+00  1.079633599E+01  2.064765462E-07  0.00000E+00  9.000E+00
</event>
<event>
      5  10001  2.40292E+09  2.97201E+01 -1.00000E+00  1.53288E-01
      21    -1     0     0   514   513  0.000000000E+00  0.000000000E+00  3.695544297E+01  3.695544297E+01  0.000000000E+00  0.00000E+00  9.000E+00
      21    -1     0     0   517   514  0.000000000E+00  0.000000000E+00 -9.505483462E+01  9.505483462E+01  0.000000000E+00  0.00000E+00  9.000E+00
      21     1     1     2   517   511  4.022342023E+00  1.781389823E+01 -8.795610339E+01  8.983201171E+01  1.651812370E-06  0.00000E+00  9.000E+00
      21     1     1     2   512   513 -8.505728225E+00 -1.486973709E+01  6.676586271E+00  1.838568187E+01  2.528810911E-07  0.00000E+00  9.000E+00
      21     1     1     2   511   512  4.483386202E+00 -2.944161142E+00  2.318012547E+01  2.379258400E+01  5.840038640E-07  0.00000E+00  9.000E+00
</event>
<event>
      5  10001  2.40292E+09  1.30106E+01 -1.00000E+00  1.83359E-01
      21    -1     0     0   515   511  0.000000000E+00  0.000000000E+00  9.473076493E+00  9.473076493E+00  0.000000000E+00  0.00000E+00  9.000E+00
      21    -1     0     0   516   515  0.000000000E+00  0.000000000E+00 -1.444353922E+01  1.444353922E+01  0.000000000E+00  0.00000E+00  9.000E+00
      21     1     1     2   516   517  8.768830543E+00 -4.678136249E+00 -5.481669884E+00  1.135015650E+01  1.788139343E-07  0.00000E+00  9.000E+00
      21     1     1     2   513   511 -9.617964247E-01  2.515446179E+00 -2.735815411E+00  3.838907111E+00  0.000000000E+00  0.00000E+00  9.000E+00
      21     1     1     2   517   513 -7.807034118E+00  2.162690070E+00  3.247022571E+00  8.727552099E+00  1.884864366E-07  0.00000E+00  9.000E+00
</event>
<event>
      5  10001  2.40292E+09  1.06341E+01 -1.00000E+00  1.92664E-01
      21    -1     0     0   512   511  0.000000000E+00  0.000000000E+00  2.509994706E+01  2.509994706E+01  0.000000000E+00  0.00000E+00  9.000E+00
      21    -1     0     0   514   512  0.000000000E+00  0.000000000E+00 -1.070145715E+01  1.070145715E+01  0.000000000E+00  0.00000E+00  9.000E+00
      21     1     1     2   513   511  3.431760263E+00 -1.181736231E+01  8.579504484E+00  1.500116421E+01  0.000000000E+00  0.00000E+00  9.000E+00
       4     1     1     2   514     0 -5.671628586E+00  9.222469851E+00 -2.903256517E+00  1.130929792E+01  1.500000000E+00  0.00000E+00  9.000E+00
      -4     1     1     2     0   513  2.239868323E+00  2.594892463E+00  8.722241948E+00  9.490942081E+00  1.500000000E+00  0.00000E+00  9.000E+00
</event>
<event>
      5  10001  2.40292E+09  9.62453E+00 -1.00000E+00  1.97639E-01
      -2    -1     0     0     0   513  0.000000000E+00  0.000000000E+00  1.255810516E+01  1.255810516E+01  0.000000000E+00  0.00000E+00  9.000E+00
      -3    -1     0     0     0   512  0.000000000E+00  0.000000000E+00 -7.529861651E+02  7.529861651E+02  0.000000000E+00  0.00000E+00  9.000E+00
      -2     1     1     2     0   515  2.129281616E+01 -1.775373933E+01 -1.359713804E+01  3.087993431E+01  3.300000131E-01  0.00000E+00  9.000E+00
      21     1     1     2   515   512 -1.314178352E+01  1.263611056E+01 -1.751021189E+01  2.527815825E+01  7.152557373E-07  0.00000E+00  9.000E+00
      -3     1     1     2     0   513 -8.151032638E+00  5.117628766E+00 -7.093207100E+02  7.093861777E+02  5.000000000E-01  0.00000E+00  9.000E+00
</event>
<event>
      5  10001  2.40292E+09  5.58833E+00 -1.00000E+00  2.30293E-01
      21    -1     0     0   511   515  0.000000000E+00  0.000000000E+00  2.295588533E+02  2.295588533E+02  0.000000000E+00  0.00000E+00  9.000E+00
      21    -1     0     0   514   512  0.000000000E+00  0.000000000E+00 -4.719925495E+02  4.719925495E+02  0.000000000E+00  0.00000E+00  9.000E+00
      21     1     1     2   511   513 -1.795893860E+00  1.862699502E+01  5.521205357E+01  5.829717864E+01  1.348699152E-06  0.00000E+00  9.000E+00
      21     1     1     2   514   515 -2.774098936E+00 -1.541068866E+01  1.724328802E+02  1.731423782E+02  1.907348633E-06  0.00000E+00  9.000E+00
      21     1     1     2   513   512  4.569992796E+00 -3.216306363E+00 -4.700786300E+02  4.701118461E+02  5.394796609E-06  0.00000E+00  9.000E+00
</event>
<event>
      5  10001  2.40292E+09  6.97619E+00 -1.00000E+00  2.15692E-01
       2    -1     0     0   513     0  0.000000000E+00  0.000000000E+00  8.706600073E+02  8.706600073E+02  0.000000000E+00  0.00000E+00  9.000E+00
      21    -1     0     0   511   512  0.000000000E+00  0.000000000E+00 -4.254171484E+00  4.254171484E+00  0.000000000E+00  0.00000E+00  9.000E+00
      21     1     1     2   513   512 -1.657322433E+01  3.906111081E+00  1.300937203E+02  1.312032985E+02  2.697398305E-06  0.00000E+00  9.000E+00
       2     1     1     2   516     0  9.600084544E+00 -3.701876216E+00  7.366544307E+02  7.367263567E+02  3.300000131E-01  0.00000E+00  9.000E+00
      21     1     1     2   511   516  6.973139787E+00 -2.042348647E-01 -3.423151706E-01  6.984523609E+00  7.746006428E-07  0.00000E+00  9.000E+00
</event>
<event>
      5  10001  2.40292E+09  1.01845E+01 -1.00000E+00  1.94786E-01
      21    -1     0     0   514   512  0.000000000E+00  0.000000000E+00  2.183413495E+01  2.183413495E+01  0.000000000E+00  0.00000E+00  9.000E+00
      21    -1     0     0   513   514  0.000000000E+00  0.000000000E+00 -8.116466212E+01  8.116466212E+01  0.000000000E+00  0.00000E+00  9.000E+00
      21     1     1     2   511   515  4.519701484E+00  1.968286153E+01 -5.745855825E+01  6.090425811E+01  6.743495762E-07  0.00000E+00  9.000E+00
      21     1     1     2   515   512  3.348285671E+00 -1.321611947E+01  1.630799271E+01  2.125623337E+01  6.743495762E-07  0.00000E+00  9.000E+00
      21     1     1     2   513   511 -7.867987156E+00 -6.466742056E+00 -1.817996163E+01  2.083830559E+01  0.000000000E+00  0.00000E+00  9.000E+00
</event>
<event>
      5  10001  2.40292E+09  1.08052E+01 -1.00000E+00  1.91892E-01
       2    -1     0     0   513     0  0.000000000E+00  0.000000000E+00  1.694711424E+02  1.694711424E+02  0.000000000E+00  0.00000E+00  9.000E+00
      21    -1     0     0   512   514  0.000000000E+00  0.000000000E+00 -3.240264177E+01  3.240264177E+01  0.000000000E+00  0.00000E+00  9.000E+00
      21     1     1     2   513   514  1.746685362E+01  1.374727618E+01  2.132755080E+01  3.080491845E+01  1.039242493E-06  0.00000E+00  9.000E+00
       2     1     1     2   516     0 -2.684434982E+01 -1.911506298E+01  1.403631254E+02  1.441801672E+02  3.300000131E-01  0.00000E+00  9.000E+00
      21     1     1     2   512   516  9.377496200E+00  5.367786793E+00 -2.462217563E+01  2.688869842E+01  8.259061849E-07  0.00000E+00  9.000E+00
</event>
<event>
      5  10001  2.40292E+09  7.67528E+00 -1.00000E+00  2.09984E-01
      21    -1     0     0   511   514  0.000000000E+00  0.000000000E+00  3.627630017E-01  3.627630017E-01  0.000000000E+00  0.00000E+00  9.000E+00
      21    -1     0     0   512   515  0.000000000E+00  0.000000000E+00 -6.097566432E+02  6.097566432E+02  0.000000000E+00  0.00000E+00  9.000E+00
      21     1     1     2   511   515  4.043946354E+00  9.267909519E+00 -9.738715182E+01  9.791069905E+01  2.336015456E-06  0.00000E+00  9.000E+00
      21     1     1     2   512   513 -7.476048081E+00 -5.757381152E+00 -3.188332041E+02  3.189728057E+02  5.394796609E-06  0.00000E+00  9.000E+00
      21     1     1     2   513   514  3.432101727E+00 -3.510528367E+00 -1.931735243E+02  1.932359015E+02  0.000000000E+00  0.00000E+00  9.000E+00
</event>
<event>
      5  10001  2.40292E+09  9.69722E+00 -1.00000E+00  1.97254E-01
      -3    -1     0     0     0   514  0.000000000E+00  0.000000000E+00  2.972749277E+01  2.972749277E+01  0.000000000E+00  0.00000E+00  9.000E+00
      21    -1     0     0   511   513  0.000000000E+00  0.000000000E+00 -1.558736496E+01  1.558736496E+01  0.000000000E+00  0.00000E+00  9.000E+00
      -3     1     1     2     0   513  1.301675020E+01  3.529776489E+00  1.932701749E+01  2.357283846E+01  5.000000000E-01  0.00000E+00  9.000E+00
      21     1     1     2   511   512 -8.243402463E+00 -9.718048974E-01 -1.101100245E+01  1.378913572E+01  2.064765462E-07  0.00000E+00  9.000E+00
      21     1     1     2   512   514 -4.773347736E+00 -2.557971592E+00  5.824112761E+00  7.952883548E+00  8.429369702E-08  0.00000E+00  9.000E+00
</event>
<event>
      5  10001  2.40292E+09  6.74370E+00 -1.00000E+00  2.17796E-01
      21    -1     0     0   513   511  0.000000000E+00  0.000000000E+00  1.932736751E+02  1.932736751E+02  0.000000000E+00  0.00000E+00  9.000E+00
      -3    -1     0     0     0   515  0.000000000E+00  0.000000000E+00 -1.542430666E+01  1.542430666E+01  0.000000000E+00  0.00000E+00  9.000E+00
      -3     1     1     2     0   511  9.469156036E+00 -1.755975032E-01 -9.106833039E+00  1.314838996E+01  5.000000000E-01  0.00000E+00  9.000E+00
      21     1     1     2   512   515 -1.141894573E+01  6.631077748E+00  6.061883912E+00  1.452962320E+01  2.528810911E-07  0.00000E+00  9.000E+00
      21     1     1     2   513   512  1.949789692E+00 -6.455480245E+00  1.808943175E+02  1.810199686E+02  0.000000000E+00  0.00000E+00  9.000E+00
</event>
<event>
      5  10001  2.40292E+09  4.10163E+00 -1.00000E+00  2.60823E-01
      21    -1     0     0   514   515  0.000000000E+00  0.000000000E+00  1.171906618E+02  1.171906618E+02  0.000000000E+00  0.00000E+00  9.000E+00
      21    -1     0     0   511   516  0.000000000E+00  0.000000000E+00 -3.270602034E+00  3.270602034E+00  0.000000000E+00  0.00000E+00  9.000E+00
      21     1     1     2   514   516 -1.242978810E+01 -1.337589386E+00  1.290634304E+01  1.796837411E+01  4.460403188E-07  0.00000E+00  9.000E+00
      21     1     1     2   511   512  8.530182825E+00  2.608992921E+00  2.850239952E+01  2.986565991E+01  4.768371582E-07  0.00000E+00  9.000E+00
      21     1     1     2   512   515  3.899605274E+00 -1.271403536E+00  7.251131719E+01  7.262722980E+01  9.536743164E-07  0.00000E+00  9.000E+00
</event>
<event>
      5  10001  2.40292E+09  8.58306E+00 -1.00000E+00  2.03691E-01
      21    -1     0     0   513   511  0.000000000E+00  0.000000000E+00  5.104287652E+01  5.104287652E+01  0.000000000E+00  0.00000E+00  9.000E+00
      21    -1     0     0   517   515  0.000000000E+00  0.000000000E+00 -1.985140122E+00  1.985140122E+00  0.000000000E+00  0.00000E+00  9.000E+00
      21     1     1     2   513   515 -2.266049538E+00 -7.614198971E+00  1.845127615E+01  2.008881774E+01  0.000000000E+00  0.00000E+00  9.000E+00
      21     1     1     2   514   511  3.229209608E+00  4.076470254E+00  5.511219986E+00  7.577529291E+00  1.576990671E-07  0.00000E+00  9.000E+00
      21     1     1     2   517   514 -9.631600697E-01  3.537728717E+00  2.509524025E+01  2.536166961E+01  3.371747881E-07  0.00000E+00  9.000E+00
</event>
<event>
      5  10001  2.40292E+09  7.37406E+00 -1.00000E+00  2.12338E-01
      21    -1     0     0   512   514  0.000000000E+00  0.000000000E+00  3.106640246E+01  3.106640246E+01  0.000000000E+00  0.00000E+00  9.000E+00
      21    -1     0     0   517   511  0.000000000E+00  0.000000000E+00 -3.094343925E+01  3.094343925E+01  0.000000000E+00  0.00000E+00  9.000E+00
      21     1     1     2   512   516  2.155998268E+01 -6.133124847E-01 -1.080438172E+01  2.412350866E+01  3.153981341E-07  0.00000E+00  9.000E+00
      21     1     1     2   517   514 -1.593634533E+01  5.383162917E+00  2.003998098E+01  2.616383732E+01  6.307962682E-07  0.00000E+00  9.000E+00
      21     1     1     2   516   511 -5.623637356E+00 -4.769850432E+00 -9.112636058E+00  1.172249573E+01  1.192092896E-07  0.00000E+00  9.000E+00
</event>
<event>
      5  10001  2.40292E+09  9.05180E+00 -1.00000E+00  2.00834E-01
       2    -1     0     0   511     0  0.000000000E+00  0.000000000E+00  2.478552248E+01  2.478552248E+01  0.000000000E+00  0.00000E+00  9.000E+00
      21    -1     0     0   515   511  0.000000000E+00  0.000000000E+00 -2.139202501E+01  2.139202501E+01  0.000000000E+00  0.00000E+00  9.000E+00
      21     1     1     2   512   513  6.991429808E+00 -1.736902134E+00 -1.483508437E+01  1.649171453E+01  2.920019320E-07  0.00000E+00  9.000E+00
       2     1     1     2   513     0 -6.863060362E+00  9.078180350E+00  1.915712040E+01  2.228495272E+01  3.300000131E-01  0.00000E+00  9.000E+00
      21     1     1     2   515   512 -1.283694463E-01 -7.341278216E+00 -9.285385594E-01  7.400880246E+00  5.674193133E-08  0.00000E+00  9.000E+00
</event>
<event>
      5  10001  2.40292E+09  4.97230E+00 -1.00000E+00  2.42933E-01
      21    -1     0     0   511   515  0.000000000E+00  0.000000000E+00  1.599295704E+01  1.599295704E+01  0.000000000E+00  0.00000E+00  9.000E+00
       1    -1     0     0   513     0  0.000000000E+00  0.000000000E+00 -1.919311412E+02  1.919311412E+02  0.000000000E+00  0.00000E+00  9.000E+00
      21     1     1     2   513   515 -9.662410317E+00 -8.685731878E+00  1.104286097E+01  1.705136035E+01  9.233911863E-07  0.00000E+00  9.000E+00
       1     1     1     2   514     0  8.874450759E+00  3.776309043E+00 -1.854060228E+02  1.856569917E+02  3.300000131E-01  0.00000E+00  9.000E+00
      21     1     1     2   511   514  7.879595584E-01  4.909422835E+00 -1.575022339E+00  5.215746180E+00  9.185692672E-08  0.00000E+00  9.000E+00
</event>
<event>
      5  10001  2.40292E+09  7.07861E+00 -1.00000E+00  2.14800E-01
      21    -1     0     0   512   513  0.000000000E+00  0.000000000E+00  1.009827287E+02  1.009827287E+02  0.000000000E+00  0.00000E+00  9.000E+00
      21    -1     0     0   516   512  0.000000000E+00  0.000000000E+00 -1.214481297E+00  1.214481297E+00  0.000000000E+00  0.00000E+00  9.000E+00
      21     1     1     2   514   513 -4.259547918E+00  7.239384577E+00  4.923191828E+01  4.994331002E+01  9.536743164E-07  0.00000E+00  9.000E+00
      21     1     1     2   515   514  1.945422303E+00 -8.870601714E+00  4.613678361E+01  4.702206976E+01  6.743495762E-07  0.00000E+00  9.000E+00
      21     1     1     2   516   515  2.314125615E+00  1.631217137E+00  4.399545478E+00  5.231830189E+00  8.429369702E-08  0.00000E+00  9.000E+00
</event>
<event>
      5  10001  2.40292E+09  1.08268E+01 -1.00000E+00  1.91796E-01
      21    -1     0     0   511   513  0.000000000E+00  0.000000000E+00  6.042166593E+01  6.042166593E+01  0.000000000E+00  0.00000E+00  9.000E+00
      21    -1     0     0   516   511  0.000000000E+00  0.000000000E+00 -8.577513811E+00  8.577513811E+00  0.000000000E+00  0.00000E+00  9.000E+00
      21     1     1     2   516   517  1.204462299E+01 -1.408340046E+00 -2.077283829E+00  1.230331146E+01  3.125693942E-07  0.00000E+00  9.000E+00
      21     1     1     2   517   512 -5.626270191E+00  6.807237664E+00  3.285555734E+01  3.402177316E+01  4.768371582E-07  0.00000E+00  9.000E+00
      21     1     1     2   512   513 -6.418352801E+00 -5.398897617E+00  2.106587861E+01  2.267409512E+01  4.129530925E-07  0.00000E+00  9.000E+00
</event>
<event>
      5  10001  2.40292E+09  3.61356E+00 -1.00000E+00  2.74202E-01
      21    -1     0     0   512   513  0.000000000E+00  0.000000000E+00  9.407411989E+01  9.407411989E+01  0.000000000E+00  0.00000E+00  9.000E+00
       2    -1     0     0   511     0  0.000000000E+00  0.000000000E+00 -4.866221999E+01  4.866221999E+01  0.000000000E+00  0.00000E+00  9.000E+00
      21     1     1     2   514   513  4.776607578E+00 -1.196696255E+01  9.136823924E+01  9.227231066E+01  0.000000000E+00  0.00000E+00  9.000E+00
       2     1     1     2   512     0 -1.902616904E+00  9.776574865E+00 -4.577364162E+01  4.684588065E+01  3.300000131E-01  0.00000E+00  9.000E+00
      21     1     1     2   511   514 -2.873990675E+00  2.190387686E+00 -1.826977164E-01  3.618148569E+00  6.052880291E-08  0.00000E+00  9.000E+00
</event>
<event>
      5  10001  2.40292E+09  1.02175E+01 -1.00000E+00  1.94625E-01
      21    -1     0     0   515   513  0.000000000E+00  0.000000000E+00  1.155708032E+00  1.155708032E+00  0.000000000E+00  0.00000E+00  9.000E+00
      21    -1     0     0   511   514  0.000000000E+00  0.000000000E+00 -1.983702794E+02  1.983702794E+02  0.000000000E+00  0.00000E+00  9.000E+00
      21     1     1     2   515   514 -1.184204480E+01  1.867937942E+00 -1.041926152E+02  1.048800471E+02  1.907348633E-06  0.00000E+00  9.000E+00
      21     1     1     2   512   513  7.224557522E+00  8.494555016E-01 -1.773910923E+01  1.917268375E+01  5.331201500E-07  0.00000E+00  9.000E+00
      21     1     1     2   511   512  4.617487273E+00 -2.717393444E+00 -7.528284696E+01  7.547325660E+01  0.000000000E+00  0.00000E+00  9.000E+00
</event>
<event>
      5  10001  2.40292E+09  1.62857E+01 -1.00000E+00  1.74038E-01
      21    -1     0     0   516   513  0.000000000E+00  0.000000000E+00  1.046880199E+01  1.046880199E+01  0.000000000E+00  0.00000E+00  9.000E+00
      21    -1     0     0   511   516  0.000000000E+00  0.000000000E+00 -3.417646533E+01  3.417646533E+01  0.000000000E+00  0.00000E+00  9.000E+00
      21     1     1     2   512   513 -2.382997902E+00 -1.485947204E+01 -4.661555309E+00  1.575476709E+01  1.788139343E-07  0.00000E+00  9.000E+00
      21     1     1     2   511   514 -5.638490716E+00  8.930451344E+00 -5.058166756E+00  1.171027710E+01  1.460009660E-07  0.00000E+00  9.000E+00
      21     1     1     2   514   512  8.021488618E+00  5.929020693E+00 -1.398794127E+01  1.718022313E+01  0.000000000E+00  0.00000E+00  9.000E+00
</event>
<event>
      5  10001  2.40292E+09  6.56479E+00 -1.00000E+00  2.19496E-01
      21    -1     0     0   514   511  0.000000000E+00  0.000000000E+00  2.320425419E+00  2.320425419E+00  0.000000000E+00  0.00000E+00  9.000E+00
      -1    -1     0     0     0   512  0.000000000E+00  0.000000000E+00 -2.666627243E+02  2.666627243E+02  0.000000000E+00  0.00000E+00  9.000E+00
      -1     1     1     2     0   513  6.561064117E-01 -5.488062606E+00 -2.002787876E+02  2.003553118E+02  3.300000131E-01  0.00000E+00  9.000E+00
      21     1     1     2   514   512  9.891994120E-01  1.189664555E+01 -1.524409335E+01  1.936210404E+01  2.384185791E-07  0.00000E+00  9.000E+00
      21     1     1     2   513   511 -1.645305824E+00 -6.408582947E+00 -4.881941798E+01  4.926573391E+01  9.536743164E-07  0.00000E+00  9.000E+00
</event>
<event>
      5  10001  2.40292E+09  6.75284E+00 -1.00000E+00  2.17711E-01
      -4    -1     0     0     0   511  0.000000000E+00  0.000000000E+00  1.922798358E+01  1.922798358E+01  0.000000000E+00  0.00000E+00  9.000E+00
      21    -1     0     0   515   512  0.000000000E+00  0.000000000E+00 -1.843997745E+01  1.843997745E+01  0.000000000E+00  0.00000E+00  9.000E+00
      -4     1     1     2     0   514  1.258879385E+00 -1.435867034E+01 -8.188119379E+00  1.664486378E+01  1.500000000E+00  0.00000E+00  9.000E+00
      21     1     1     2   515   511 -2.768958193E+00  1.150018755E+01  1.181646019E+01  1.671975402E+01  2.384185791E-07  0.00000E+00  9.000E+00
      21     1     1     2   514   512  1.510078808E+00  2.858482797E+00 -2.840334672E+00  4.303343230E+00  1.115100797E-07  0.00000E+00  9.000E+00
</event>
<event>
      5  10001  2.40292E+09  7.23670E+00 -1.00000E+00  2.13462E-01
      21    -1     0     0   513   512  0.000000000E+00  0.000000000E+00  3.127808506E+00  3.127808506E+00  0.000000000E+00  0.00000E+00  9.000E+00
      21    -1     0     0   511   516  0.000000000E+00  0.000000000E+00 -3.533447558E+02  3.533447558E+02  0.000000000E+00  0.00000E+00  9.000E+00
      21     1     1     2   513   516  4.015331680E+00 -1.686751485E+01 -2.454841272E+01  3.005429276E+01  3.371747881E-07  0.00000E+00  9.000E+00
      21     1     1     2   514   512 -3.879836135E+00  9.632084687E+00 -2.788927167E+02  2.790859681E+02  3.814697266E-06  0.00000E+00  9.000E+00
      21     1     1     2   511   514 -1.354955452E-01  7.235430166E+00 -4.677581790E+01  4.733230344E+01  0.000000000E+00  0.00000E+00  9.000E+00
</event>
<event>
      5  10001  2.40292E+09  4.32770E+00 -1.00000E+00  2.55563E-01
       2    -1     0     0   511     0  0.000000000E+00  0.000000000E+00  6.721559317E+02  6.721559317E+02  0.000000000E+00  0.00000E+00  9.000E+00
      -1    -1     0     0     0   514  0.000000000E+00  0.000000000E+00 -1.173382280E+01  1.173382280E+01  0.000000000E+00  0.00000E+00  9.000E+00
      21     1     1     2   511   514  1.138699711E+01 -2.836484509E+00  2.693717375E+01  2.938231913E+01  3.371747881E-07  0.00000E+00  9.000E+00
       2     1     1     2   515     0 -1.560030944E+01  1.848185627E+00  6.434481124E+02  6.436399363E+02  3.300000131E-01  0.00000E+00  9.000E+00
      -1     1     1     2     0   515  4.213312332E+00  9.882988820E-01 -9.963177203E+00  1.086749904E+01  3.300000131E-01  0.00000E+00  9.000E+00
</event>
<event>
      5  10001  2.40292E+09  4.41186E+00 -1.00000E+00  2.53729E-01
      21    -1     0     0   512   514  0.000000000E+00  0.000000000E+00  8.375629116E+01  8.375629116E+01  0.000000000E+00  0.00000E+00  9.000E+00
      21    -1     0     0   516   511  0.000000000E+00  0.000000000E+00 -4.373047645E+01  4.373047645E+01  0.000000000E+00  0.00000E+00  9.000E+00
      21     1     1     2   512   513 -3.523958088E+00 -1.097068085E+01  7.266407011E+01  7.357201372E+01  9.536743164E-07  0.00000E+00  9.000E+00
      21     1     1     2   516   514  6.704569741E+00  7.913189423E+00  7.962124854E+00  1.307536823E+01  5.717076687E-07  0.00000E+00  9.000E+00
      21     1     1     2   513   511 -3.180611653E+00  3.057491423E+00 -4.060038025E+01  4.083938566E+01  4.768371582E-07  0.00000E+00  9.000E+00
</event>
<event>
      5  10001  2.40292E+09  5.48486E+00 -1.00000E+00  2.31619E-01
       1    -1     0     0   512     0  0.000000000E+00  0.000000000E+00  5.301481260E+02  5.301481260E+02  0.000000000E+00  0.00000E+00  9.000E+00
      21    -1     0     0   513   511  0.000000000E+00  0.000000000E+00 -7.058601010E+01  7.058601010E+01  0.000000000E+00  0.00000E+00  9.000E+00
      21     1     1     2   513   515  1.264792911E+01  3.829309835E+00 -6.914756737E+01  7.039900423E+01  1.651812370E-06  0.00000E+00  9.000E+00
       1     1     1     2   515     0 -1.139412556E+01  1.510318016E+00  5.194187883E+02  5.195460458E+02  3.300000131E-01  0.00000E+00  9.000E+00
      21     1     1     2   512   511 -1.253803548E+00 -5.339627852E+00  9.290894939E+00  1.078908605E+01  0.000000000E+00  0.00000E+00  9.000E+00
</event>
<event>
      5  10001  2.40292E+09  4.70366E+00 -1.00000E+00  2.47824E-01
       2    -1     0     0   511     0  0.000000000E+00  0.000000000E+00  1.451410711E+03  1.451410711E+03  0.000000000E+00  0.00000E+00  9.000E+00
       3    -1     0     0   512     0  0.000000000E+00  0.000000000E+00 -2.049702614E+01  2.049702614E+01  0.000000000E+00  0.00000E+00  9.000E+00
       2     1     1     2   513     0  9.573791546E+00 -1.889089783E+00  1.431650596E+03  1.431683891E+03  3.300000131E-01  0.00000E+00  9.000E+00
       3     1     1     2   511     0 -1.035011727E+01 -1.649828126E+00 -1.894616346E+01  2.165765385E+01  5.000000000E-01  0.00000E+00  9.000E+00
      21     1     1     2   512   513  7.763257267E-01  3.538917909E+00  1.820925182E+01  1.856619168E+01  3.371747881E-07  0.00000E+00  9.000E+00
</event>
<event>
      5  10001  2.40292E+09  4.45749E+00 -1.00000E+00  2.52760E-01
      21    -1     0     0   514   511  0.000000000E+00  0.000000000E+00  7.009934941E+01  7.009934941E+01  0.000000000E+00  0.00000E+00  9.000E+00
      21    -1     0     0   512   513  0.000000000E+00  0.000000000E+00 -1.985234427E+01  1.985234427E+01  0.000000000E+00  0.00000E+00  9.000E+00
      21     1     1     2   514   513  1.380859185E+01  3.748064897E+00 -1.537891539E+01  2.100562396E+01  2.920019320E-07  0.00000E+00  9.000E+00
      21     1     1     2   512   515 -9.853130618E+00 -1.692936240E+00  1.442112253E+01  1.754762066E+01  4.129530925E-07  0.00000E+00  9.000E+00
      21     1     1     2   515   511 -3.955461234E+00 -2.055128657E+00  5.120479801E+01  5.139844906E+01  9.536743164E-07  0.00000E+00  9.000E+00
</event>
<event>
      5  10001  2.40292E+09  6.82855E+00 -1.00000E+00  2.17015E-01
       2    -1     0     0   513     0  0.000000000E+00  0.000000000E+00  4.057432030E+02  4.057432030E+02  0.000000000E+00  0.00000E+00  9.000E+00
      21    -1     0     0   516   512  0.000000000E+00  0.000000000E+00 -2.486293853E+01  2.486293853E+01  0.000000000E+00  0.00000E+00  9.000E+00
      21     1     1     2   516   515  9.345549671E+00  2.012243293E+01 -1.323438343E+01  2.583409589E+01  8.259061849E-07  0.00000E+00  9.000E+00
       2     1     1     2   515     0 -2.572318114E+00 -1.925511812E+01  3.969159922E+02  3.973912306E+02  3.300000131E-01  0.00000E+00  9.000E+00
      21     1     1     2   513   512 -6.773231557E+00 -8.673148098E-01 -2.801344296E+00  7.380815034E+00  2.149076030E-07  0.00000E+00  9.000E+00
</event>
<event>
      5  10001  2.40292E+09  2.31058E+00 -1.00000E+00  3.35960E-01
       2    -1     0     0   512     0  0.000000000E+00  0.000000000E+00  9.362531235E+02  9.362531235E+02  0.000000000E+00  0.00000E+00  9.000E+00
      21    -1     0     0   513   512  0.000000000E+00  0.000000000E+00 -2.264425919E+00  2.264425919E+00  0.000000000E+00  0.00000E+00  9.000E+00
      21     1     1     2   513   514 -2.538127156E+00  8.552379482E+00  9.882157081E+00  1.331323826E+01  7.633118912E-07  0.00000E+00  9.000E+00
       2     1     1     2   511     0  5.207109043E+00 -9.823169265E+00  9.203822129E+02  9.204494203E+02  3.300000131E-01  0.00000E+00  9.000E+00
      21     1     1     2   514   511 -2.668981886E+00  1.270789783E+00  3.724327642E+00  4.754890889E+00  3.500980176E-07  0.00000E+00  9.000E+00
</event>
<event>
      5  10001  2.40292E+09  5.42978E+00 -1.00000E+00  2.32342E-01
      21    -1     0     0   511   513  0.000000000E+00  0.000000000E+00  3.570895683E+01  3.570895683E+01  0.000000000E+00  0.00000E+00  9.000E+00
       2    -1     0     0   513     0  0.000000000E+00  0.000000000E+00 -1.465842887E+01  1.465842887E+01  0.000000000E+00  0.00000E+00  9.000E+00
      21     1     1     2   511   512  3.575222013E+00  7.121736861E+00  1.921914434E+01  2.080569291E+01  2.384185791E-07  0.00000E+00  9.000E+00
       2     1     1     2   515     0 -1.055995394E+01 -1.042280297E+01 -8.156469837E+00  1.693470842E+01  3.300000131E-01  0.00000E+00  9.000E+00
      21     1     1     2   512   515  6.984731928E+00  3.301066110E+00  9.987853462E+00  1.262698437E+01  3.153981341E-07  0.00000E+00  9.000E+00
</event>
<event>
      5  10001  2.40292E+09  4.92805E+00 -1.00000E+00  2.43706E-01
      21    -1     0     0   514   516  0.000000000E+00  0.000000000E+00  2.561508483E+01  2.561508483E+01  0.000000000E+00  0.00000E+00  9.000E+00
      -1    -1     0     0     0   514  0.000000000E+00  0.000000000E+00 -1.218749265E+01  1.218749265E+01  0.000000000E+00  0.00000E+00  9.000E+00
      -1     1     1     2     0   511  5.355322165E+00 -7.370242164E+00 -6.758924664E+00  1.134865224E+01  3.300000131E-01  0.00000E+00  9.000E+00
      21     1     1     2   511   513 -3.121681487E+00  1.176244412E+01  1.434090478E+01  1.880854957E+01  2.920019320E-07  0.00000E+00  9.000E+00
      21     1     1     2   513   516 -2.233640678E+00 -4.392201955E+00  5.845612072E+00  7.645375673E+00  1.460009660E-07  0.00000E+00  9.000E+00
</event>
<event>
      5  10001  2.40292E+09  3.79141E+00 -1.00000E+00  2.68961E-01
      21    -1     0     0   512   511  0.000000000E+00  0.000000000E+00  1.972668301E+01  1.972668301E+01  0.000000000E+00  0.00000E+00  9.000E+00
      21    -1     0     0   514   515  0.000000000E+00  0.000000000E+00 -4.257703255E+02  4.257703255E+02  0.000000000E+00  0.00000E+00  9.000E+00
      21     1     1     2   512   515  7.201072396E+00 -1.016026178E+01  1.540690325E+01  1.981057876E+01  6.078504936E-07  0.00000E+00  9.000E+00
      21     1     1     2   516   511 -3.498231081E+00  9.345557620E+00 -9.693410174E+00  1.391183916E+01  4.460403188E-07  0.00000E+00  9.000E+00
      21     1     1     2   514   516 -3.702841315E+00  8.147041590E-01 -4.117571355E+02  4.117745906E+02  0.000000000E+00  0.00000E+00  9.000E+00
</event>
<event>
      5  10001  2.40292E+09  1.69732E+01 -1.00000E+00  1.72427E-01
      21    -1     0     0   513   511  0.000000000E+00  0.000000000E+00  2.874394402E+00  2.874394402E+00  0.000000000E+00  0.00000E+00  9.000E+00
      21    -1     0     0   514   513  0.000000000E+00  0.000000000E+00 -8.518569844E+01  8.518569844E+01  0.000000000E+00  0.00000E+00  9.000E+00
      21     1     1     2   516   511 -8.514667684E-02 -9.153800697E+00 -9.151280572E+00  1.294392727E+01  1.685873940E-07  0.00000E+00  9.000E+00
       4     1     1     2   514     0  6.181981214E+00  7.968550565E-01 -3.308121449E+01  3.369671529E+01  1.500000000E+00  0.00000E+00  9.000E+00
      -4     1     1     2     0   516 -6.096834537E+00  8.356945640E+00 -4.007880898E+01  4.141945028E+01  1.500000000E+00  0.00000E+00  9.000E+00
</event>
<event>
      5  10001  2.40292E+09  9.86524E+00 -1.00000E+00  1.96382E-01
      21    -1     0     0   512   516  0.000000000E+00  0.000000000E+00  7.506604771E+00  7.506604771E+00  0.000000000E+00  0.00000E+00  9.000E+00
      21    -1     0     0   515   512  0.000000000E+00  0.000000000E+00 -1.099159347E+02  1.099159347E+02  0.000000000E+00  0.00000E+00  9.000E+00
      21     1     1     2   514   516  1.176556287E+01 -1.100735267E+01 -4.060595838E+00  1.661561678E+01  2.795705652E-07  0.00000E+00  9.000E+00
      21     1     1     2   511   514 -3.012648869E+00  9.678785608E+00 -7.744683013E+01  7.810740325E+01  1.348699152E-06  0.00000E+00  9.000E+00
      21     1     1     2   515   511 -8.752914002E+00  1.328567060E+00 -2.090190396E+01  2.269951944E+01  0.000000000E+00  0.00000E+00  9.000E+00
</event>
<event>
      5  10001  2.40292E+09  3.44278E+00 -1.00000E+00  2.79707E-01
       2    -1     0     0   512     0  0.000000000E+00  0.000000000E+00  1.599671858E+02  1.599671858E+02  0.000000000E+00  0.00000E+00  9.000E+00
      21    -1     0     0   514   512  0.000000000E+00  0.000000000E+00 -1.369968126E+01  1.369968126E+01  0.000000000E+00  0.00000E+00  9.000E+00
      21     1     1     2   511   513 -1.245516112E+01 -1.451982545E+00  1.889846730E+01  2.268019749E+01  4.129530925E-07  0.00000E+00  9.000E+00
       2     1     1     2   513     0  1.163658183E+01  4.795984307E+00  1.386354472E+02  1.392059899E+02  3.300000131E-01  0.00000E+00  9.000E+00
      21     1     1     2   514   511  8.185792842E-01 -3.344001761E+00 -1.126640997E+01  1.178067967E+01  3.769728732E-07  0.00000E+00  9.000E+00
</event>
<event>
      5  10001  2.40292E+09  5.98174E+00 -1.00000E+00  2.25599E-01
      -1    -1     0     0     0   514  0.000000000E+00  0.000000000E+00  7.274513284E+00  7.274513284E+00  0.000000000E+00  0.00000E+00  9.000E+00
       1    -1     0     0   512     0  0.000000000E+00  0.000000000E+00 -2.710961036E+01  2.710961036E+01  0.000000000E+00  0.00000E+00  9.000E+00
      21     1     1     2   513   515  2.171674064E+00  1.225649483E+01 -1.166365619E+01  1.705809806E+01  2.384185791E-07  0.00000E+00  9.000E+00
      21     1     1     2   515   514  2.269888992E+00 -8.249785696E+00 -2.115642246E+00  8.814040059E+00  0.000000000E+00  0.00000E+00  9.000E+00
      21     1     1     2   512   513 -4.441563055E+00 -4.006709131E+00 -6.055798640E+00  8.511985526E+00  8.429369702E-08  0.00000E+00  9.000E+00
</event>
<event>
      5  10001  2.40292E+09  5.70940E+00 -1.00000E+00  2.28792E-01
      21    -1     0     0   511   515  0.000000000E+00  0.000000000E+00  7.781772238E+01  7.781772238E+01  0.000000000E+00  0.00000E+00  9.000E+00
      21    -1     0     0   512   514  0.000000000E+00  0.000000000E+00 -1.201585930E+01  1.201585930E+01  0.000000000E+00  0.00000E+00  9.000E+00
      21     1     1     2   511   513  5.508252570E+00  9.414603045E+00  6.923753530E+01  7.009145377E+01  9.536743164E-07  0.00000E+00  9.000E+00
      21     1     1     2   512   515 -1.080734020E+01 -7.289290269E+00 -4.766084673E+00  1.387976650E+01  2.731427965E-07  0.00000E+00  9.000E+00
      21     1     1     2   513   514  5.299087635E+00 -2.125312777E+00  1.330412455E+00  5.862361423E+00  1.210576058E-07  0.00000E+00  9.000E+00
</event>
<event>
      5  10001  2.40292E+09  3.05893E+01 -1.00000E+00  1.52421E-01
      21    -1     0     0   516   511  0.000000000E+00  0.000000000E+00  4.486467034E+01  4.486467034E+01  0.000000000E+00  0.00000E+00  9.000E+00
       2    -1     0     0   513     0  0.000000000E+00  0.000000000E+00 -1.388063049E+02  1.388063049E+02  0.000000000E+00  0.00000E+00  9.000E+00
      21     1     1     2   513   512  1.406178871E+01 -1.839413446E+01 -8.149960853E+01  8.472463794E+01  1.651812370E-06  0.00000E+00  9.000E+00
       2     1     1     2   516     0 -3.943072441E+01  1.302965477E+00 -4.114140408E+01  5.700178748E+01  3.300000131E-01  0.00000E+00  9.000E+00
      21     1     1     2   512   511  2.536893569E+01  1.709116898E+01  2.869937807E+01  4.194454979E+01  4.768371582E-07  0.00000E+00  9.000E+00
</event>
<event>
      5  10001  2.40292E+09  8.76344E+00 -1.00000E+00  2.02563E-01
      21    -1     0     0   514   513  0.000000000E+00  0.000000000E+00  2.884208871E+00  2.884208871E+00  0.000000000E+00  0.00000E+00  9.000E+00
      21    -1     0     0   512   511  0.000000000E+00  0.000000000E+00 -7.082270577E+01  7.082270577E+01  0.000000000E+00  0.00000E+00  9.000E+00
      21     1     1     2   514   511  9.317756417E+00 -2.727487838E-01 -7.978972569E+00  1.227024775E+01  2.230201594E-07  0.00000E+00  9.000E+00
      21     1     1     2   512   515 -2.166210166E+00 -6.973684316E-01 -4.227479480E+01  4.233600199E+01  8.259061849E-07  0.00000E+00  9.000E+00
      21     1     1     2   515   513 -7.151546250E+00  9.701172154E-01 -1.768472953E+01  1.910066490E+01  0.000000000E+00  0.00000E+00  9.000E+00
</event>
<event>
      5  10001  2.40292E+09  9.07362E+00 -1.00000E+00  2.00706E-01
      21    -1     0     0   512   513  0.000000000E+00  0.000000000E+00  6.255303816E+01  6.255303816E+01  0.000000000E+00  0.00000E+00  9.000E+00
       1    -1     0     0   513     0  0.000000000E+00  0.000000000E+00 -5.018143454E+02  5.018143454E+02  0.000000000E+00  0.00000E+00  9.000E+00
      21     1     1     2   512   515  7.575284537E+00  8.356762067E+00  6.042599168E+01  6.146967446E+01  1.348699152E-06  0.00000E+00  9.000E+00
       1     1     1     2   511     0 -1.023214687E+01 -8.709328769E+00 -5.000167624E+02  5.001973819E+02  3.300000131E-01  0.00000E+00  9.000E+00
      21     1     1     2   515   511  2.656862336E+00  3.525667016E-01  3.294635345E-01  2.700327197E+00  2.909544735E-08  0.00000E+00  9.000E+00
</event>
<event>
      5  10001  2.40292E+09  8.62510E+00 -1.00000E+00  2.03425E-01
      21    -1     0     0   511   513  0.000000000E+00  0.000000000E+00  3.903808300E+02  3.903808300E+02  0.000000000E+00  0.00000E+00  9.000E+00
      21    -1     0     0   514   511  0.000000000E+00  0.000000000E+00 -4.032360531E-01  4.032360531E-01  0.000000000E+00  0.00000E+00  9.000E+00
      -1     1     1     2     0   513  9.697015968E+00 -4.818777964E+00  1.651981481E+02  1.655529818E+02  3.300000131E-01  0.00000E+00  9.000E+00
      21     1     1     2   514   512 -7.311334185E+00 -1.116917002E+00  1.480886061E+02  1.482731883E+02  1.907348633E-06  0.00000E+00  9.000E+00
       1     1     1     2   512     0 -2.385681783E+00  5.935694967E+00  7.669083969E+01  7.695789592E+01  3.300000131E-01  0.00000E+00  9.000E+00
</event>
<event>
      5  10001  2.40292E+09  2.96977E+00 -1.00000E+00  2.98069E-01
       3    -1     0     0   512     0  0.000000000E+00  0.000000000E+00  1.916567250E+01  1.916567250E+01  0.000000000E+00  0.00000E+00  9.000E+00
       2    -1     0     0   513     0  0.000000000E+00  0.000000000E+00 -1.240048553E+01  1.240048553E+01  0.000000000E+00  0.00000E+00  9.000E+00
       2     1     1     2   511     0 -2.977282224E-01 -1.152709980E+01 -1.907141345E+00  1.169225214E+01  3.300000131E-01  0.00000E+00  9.000E+00
       3     1     1     2   513     0 -5.635165738E-01  1.459227526E+01  6.343784154E+00  1.592939564E+01  5.000000000E-01  0.00000E+00  9.000E+00
      21     1     1     2   512   511  8.612447962E-01 -3.065175456E+00  2.328544160E+00  3.944510246E+00  2.980232239E-08  0.00000E+00  9.000E+00
</event>
<event>
      5  10001  2.40292E+09  1.23095E+01 -1.00000E+00  1.85820E-01
      21    -1     0     0   514   513  0.000000000E+00  0.000000000E+00  8.357303134E+01  8.357303134E+01  0.000000000E+00  0.00000E+00  9.000E+00
      21    -1     0     0   515   511  0.000000000E+00  0.000000000E+00 -1.986811164E+01  1.986811164E+01  0.000000000E+00  0.00000E+00  9.000E+00
      21     1     1     2   514   511  1.621984322E+01 -1.604637749E+01 -1.013146562E+01  2.496429731E+01  2.665600750E-07  0.00000E+00  9.000E+00
      21     1     1     2   516   513 -6.010541191E+00  1.484798945E+01  3.917743891E+01  4.232565553E+01  4.768371582E-07  0.00000E+00  9.000E+00
      21     1     1     2   515   516 -1.020930203E+01  1.198388036E+00  3.465894641E+01  3.615119014E+01  4.768371582E-07  0.00000E+00  9.000E+00
</event>
<event>
      5  10001  2.40292E+09  5.93649E+00 -1.00000E+00  2.26113E-01
      21    -1     0     0   512   511  0.000000000E+00  0.000000000E+00  1.297579267E+02  1.297579267E+02  0.000000000E+00  0.00000E+00  9.000E+00
      21    -1     0     0   515   513  0.000000000E+00  0.000000000E+00 -4.559045044E+00  4.559045044E+00  0.000000000E+00  0.00000E+00  9.000E+00
      21     1     1     2   512   517 -9.838450805E+00 -7.883623460E+00  5.463005930E+01  5.606594343E+01  9.536743164E-07  0.00000E+00  9.000E+00
      21     1     1     2   515   511  3.912779113E+00  7.525427320E+00  7.170659419E+01  7.220649242E+01  9.536743164E-07  0.00000E+00  9.000E+00
      21     1     1     2   517   513  5.925671692E+00  3.581961404E-01 -1.137771838E+00  6.044535899E+00  4.470348358E-08  0.00000E+00  9.000E+00
</event>
<event>
      5  10001  2.40292E+09  3.52990E+00 -1.00000E+00  2.76837E-01
      21    -1     0     0   514   513  0.000000000E+00  0.000000000E+00  1.975929790E+01  1.975929790E+01  0.000000000E+00  0.00000E+00  9.000E+00
      21    -1     0     0   517   516  0.000000000E+00  0.000000000E+00 -7.393399711E+00  7.393399711E+00  0.000000000E+00  0.00000E+00  9.000E+00
      21     1     1     2   514   516 -6.269257744E+00 -7.742493100E+00 -7.775316170E-01  9.992714720E+00  1.559291000E-07  0.00000E+00  9.000E+00
      21     1     1     2   517   511  2.565548177E+00  5.261998622E+00  1.037498728E+01  1.191264152E+01  2.064765462E-07  0.00000E+00  9.000E+00
      21     1     1     2   511   513  3.703709567E+00  2.480494478E+00  2.768442520E+00  5.247341365E+00  1.228781231E-07  0.00000E+00  9.000E+00
</event>
<event>
      5  10001  2.40292E+09  3.03921E+00 -1.00000E+00  2.95029E-01
      21    -1     0     0   514   516  0.000000000E+00  0.000000000E+00  8.476346274E+01  8.476346274E+01  0.000000000E+00  0.00000E+00  9.000E+00
      21    -1     0     0   515   513  0.000000000E+00  0.000000000E+00 -1.759130817E+01  1.759130817E+01  0.000000000E+00  0.00000E+00  9.000E+00
      21     1     1     2   512   513 -3.445790273E+00  1.145935443E+01  5.322830007E-01  1.197804658E+01  8.462232867E-08  0.00000E+00  9.000E+00
      21     1     1     2   515   516  4.150283398E-01 -1.168586136E+01 -8.950305685E+00  1.472547371E+01  0.000000000E+00  0.00000E+00  9.000E+00
      21     1     1     2   514   512  3.030761933E+00  2.265069254E-01  7.559017725E+01  7.565125062E+01  9.536743164E-07  0.00000E+00  9.000E+00
</event>
<event>
      5  10001  2.40292E+09  1.22064E+01 -1.00000E+00  1.86200E-01
      -3    -1     0     0     0   511  0.000000000E+00  0.000000000E+00  4.549571874E+01  4.549571874E+01  0.000000000E+00  0.00000E+00  9.000E+00
      21    -1     0     0   511   512  0.000000000E+00  0.000000000E+00 -1.237573947E+01  1.237573947E+01  0.000000000E+00  0.00000E+00  9.000E+00
      -3     1     1     2     0   514 -2.539821217E-01 -9.080653593E+00  3.852928206E+01  3.958886652E+01  5.000000000E-01  0.00000E+00  9.000E+00
      21     1     1     2   513   512  5.223899634E+00  1.166026578E+00 -6.990295763E+00  8.804145627E+00  1.192092896E-07  0.00000E+00  9.000E+00
      21     1     1     2   514   513 -4.969917512E+00  7.914627015E+00  1.580992979E+00  9.478446057E+00  1.413648275E-07  0.00000E+00  9.000E+00
</event>
<event>
      5  10001  2.40292E+09  5.01121E+00 -1.00000E+00  2.38259E-01
      21    -1     0     0   515   513  0.000000000E+00  0.000000000E+00  6.476444637E+02  6.476444637E+02  0.000000000E+00  0.00000E+00  9.000E+00
      21    -1     0     0   511   516  0.000000000E+00  0.000000000E+00 -1.350677629E+00  1.350677629E+00  0.000000000E+00  0.00000E+00  9.000E+00
      21     1     1     2   515   516 -3.643830593E+00 -1.143879462E+01  5.895193610E+02  5.896415865E+02  7.629394531E-06  0.00000E+00  9.000E+00
      21     1     1     2   512   513  3.188319693E+00  7.169101672E+00  1.177440360E+01  1.414913359E+01  2.920019320E-07  0.00000E+00  9.000E+00
      21     1     1     2   511   512  4.555109004E-01  4.269692946E+00  4.500002148E+01  4.520442126E+01  6.743495762E-07  0.00000E+00  9.000E+00
</event>
<event>
      5  10001  2.40292E+09  5.66844E+00 -1.00000E+00  2.29294E-01
      21    -1     0     0   514   513  0.000000000E+00  0.000000000E+00  4.780740468E+00  4.780740468E+00  0.000000000E+00  0.00000E+00  9.000E+00
      21    -1     0     0   511   514  0.000000000E+00  0.000000000E+00 -1.354418673E+02  1.354418673E+02  0.000000000E+00  0.00000E+00  9.000E+00
      21     1     1     2   512   513 -1.144715523E+01  4.646967246E+00 -4.465012453E+00  1.313651413E+01  2.384185791E-07  0.00000E+00  9.000E+00
      21     1     1     2   511   515  8.131426798E+00  4.624755155E-01 -9.128428801E+01  9.164690515E+01  1.348699152E-06  0.00000E+00  9.000E+00
      21     1     1     2   515   512  3.315728429E+00 -5.109442761E+00 -3.491182636E+01  3.543918848E+01  4.768371582E-07  0.00000E+00  9.000E+00
</event>
<event>
      5  10001  2.40292E+09  2.65002E+00 -1.00000E+00  3.14077E-01
       2    -1     0     0   513     0  0.000000000E+00  0.000000000E+00  3.895882189E+02  3.895882189E+02  0.000000000E+00  0.00000E+00  9.000E+00
      21    -1     0     0   515   514  0.000000000E+00  0.000000000E+00 -9.153997880E+00  9.153997880E+00  0.000000000E+00  0.00000E+00  9.000E+00
      21     1     1     2   511   514 -1.372685004E+01 -8.010576993E+00 -1.392490831E+00  1.595414637E+01  6.334308179E-07  0.00000E+00  9.000E+00
       2     1     1     2   515     0  1.275964930E+01  1.047774063E+01  1.435654447E+02  1.445120670E+02  3.300000131E-01  0.00000E+00  9.000E+00
      21     1     1     2   513   511  9.672007399E-01 -2.467163633E+00  2.382612672E+02  2.382760035E+02  0.000000000E+00  0.00000E+00  9.000E+00
</event>
<event>
      5  10001  2.40292E+09  8.14818E+00 -1.00000E+00  2.06569E-01
      21    -1     0     0   512   515  0.000000000E+00  0.000000000E+00  3.159727303E+01  3.159727303E+01  0.000000000E+00  0.00000E+00  9.000E+00
      21    -1     0     0   513   514  0.000000000E+00  0.000000000E+00 -1.094624252E+02  1.094624252E+02  0.000000000E+00  0.00000E+00  9.000E+00
      21     1     1     2   513   515 -1.411647806E+01  7.692121971E+00  1.290316686E+01  2.061396148E+01  3.371747881E-07  0.00000E+00  9.000E+00
       4     1     1     2   512     0  2.145589037E+01 -4.162023706E+00  6.479947799E+00  2.284551151E+01  1.500000000E+00  0.00000E+00  9.000E+00
      -4     1     1     2     0   514 -7.339412309E+00 -3.530098265E+00 -9.724826685E+01  9.760022527E+01  1.500000000E+00  0.00000E+00  9.000E+00
</event>
<event>
      5  10001  2.40292E+09  3.38511E+00 -1.00000E+00  2.81684E-01
      21    -1     0     0   511   514  0.000000000E+00  0.000000000E+00  1.842627059E+01  1.842627059E+01  0.000000000E+00  0.00000E+00  9.000E+00
      21    -1     0     0   513   512  0.000000000E+00  0.000000000E+00 -1.148363720E+02  1.148363720E+02  0.000000000E+00  0.00000E+00  9.000E+00
      21     1     1     2   511   516  1.046714714E+01 -6.042168708E+00  1.550696630E+01  1.966049276E+01  1.079486029E-06  0.00000E+00  9.000E+00
      21     1     1     2   513   514 -1.355996830E+01  7.418183715E+00 -1.008927136E+02  1.020697891E+02  1.348699152E-06  0.00000E+00  9.000E+00
      21     1     1     2   516   512  3.092821161E+00 -1.376015006E+00 -1.102435409E+01  1.153236069E+01  1.685873940E-07  0.00000E+00  9.000E+00
</event>
<event>
      5  10001  2.40292E+09  7.89959E+00 -1.00000E+00  2.08324E-01
      21    -1     0     0   515   512  0.000000000E+00  0.000000000E+00  4.305451564E+01  4.305451564E+01  0.000000000E+00  0.00000E+00  9.000E+00
      21    -1     0     0   516   517  0.000000000E+00  0.000000000E+00 -1.890757827E+02  1.890757827E+02  0.000000000E+00  0.00000E+00  9.000E+00
      21     1     1     2   515   517  3.044993251E-01 -2.040697256E+01  3.998489898E+01  4.489242025E+01  9.536743164E-07  0.00000E+00  9.000E+00
      21     1     1     2   511   512  2.724554315E+00  6.855191743E+00 -7.648387908E+01  7.683879625E+01  9.536743164E-07  0.00000E+00  9.000E+00
      21     1     1     2   516   511 -3.029053640E+00  1.355178082E+01 -1.095222869E+02  1.103990818E+02  1.348699152E-06  0.00000E+00  9.000E+00
</event>
<event>
      5  10001  2.40292E+09  9.20077E+00 -1.00000E+00  1.99973E-01
      21    -1     0     0   513   511  0.000000000E+00  0.000000000E+00  2.067563701E+02  2.067563701E+02  0.000000000E+00  0.00000E+00  9.000E+00
      21    -1     0     0   516   514  0.000000000E+00  0.000000000E+00 -2.152669766E+01  2.152669766E+01  0.000000000E+00  0.00000E+00  9.000E+00
      21     1     1     2   513   514 -1.098034117E+01 -3.248725737E-01 -1.987880334E+01  2.271211696E+01  4.129530925E-07  0.00000E+00  9.000E+00
      21     1     1     2   512   511  5.455567972E+00  4.251089596E+00  9.202087639E+01  9.228042412E+01  1.348699152E-06  0.00000E+00  9.000E+00
      21     1     1     2   516   512  5.524773202E+00 -3.926217022E+00  1.130875994E+02  1.132905267E+02  1.348699152E-06  0.00000E+00  9.000E+00
</event>
<event>
      5  10001  2.40292E+09  6.42009E+00 -1.00000E+00  2.20927E-01
      21    -1     0     0   515   512  0.000000000E+00  0.000000000E+00  6.784723868E+01  6.784723868E+01  0.000000000E+00  0.00000E+00  9.000E+00
      21    -1     0     0   516   515  0.000000000E+00  0.000000000E+00 -1.248247799E+01  1.248247799E+01  0.000000000E+00  0.00000E+00  9.000E+00
      21     1     1     2   516   517 -1.095659213E+00 -1.015875161E+01 -9.296467699E+00  1.381394278E+01  2.064765462E-07  0.00000E+00  9.000E+00
      -5     1     1     2     0   512 -2.744897000E+00  6.057720963E+00  3.490596389E+01  3.585661389E+01  4.800000191E+00  0.00000E+00  9.000E+00
       5     1     1     2   517     0  3.840556213E+00  4.101030646E+00  2.975526450E+01  3.065916000E+01  4.800000191E+00  0.00000E+00  9.000E+00
</event>
<event>
      5  10001  2.40292E+09  5.95784E+00 -1.00000E+00  2.25870E-01
      21    -1     0     0   514   512  0.000000000E+00  0.000000000E+00  2.098608137E+01  2.098608137E+01  0.000000000E+00  0.00000E+00  9.000E+00
       2    -1     0     0   513     0  0.000000000E+00  0.000000000E+00 -9.308074144E+01  9.308074144E+01  0.000000000E+00  0.00000E+00  9.000E+00
      21     1     1     2   513   512  8.785055343E+00  7.759170371E+00  7.293512647E+00  1.380497189E+01  1.192092896E-07  0.00000E+00  9.000E+00
       2     1     1     2   511     0 -1.360252844E+01 -4.253910411E+00 -8.835418137E+01  8.949689826E+01  3.300000131E-01  0.00000E+00  9.000E+00
      21     1     1     2   514   511  4.817473097E+00 -3.505259960E+00  8.966008650E+00  1.076495265E+01  2.665600750E-07  0.00000E+00  9.000E+00
</event>
<event>
      5  10001  2.40292E+09  9.87414E+00 -1.00000E+00  1.96336E-01
       2    -1     0     0   515     0  0.000000000E+00  0.000000000E+00  9.057086873E+02  9.057086873E+02  0.000000000E+00  0.00000E+00  9.000E+00
      21    -1     0     0   512   515  0.000000000E+00  0.000000000E+00 -3.718009185E+01  3.718009185E+01  0.000000000E+00  0.00000E+00  9.000E+00
      21     1     1     2   511   514  1.069404336E+01  6.101418898E+00  1.695431024E+01  2.095324585E+01  1.752011592E-06  0.00000E+00  9.000E+00
       2     1     1     2   514     0 -1.084425593E+01  3.771569732E+00  8.860241092E+02  8.860985575E+02  3.300000131E-01  0.00000E+00  9.000E+00
      21     1     1     2   512   511  1.502125704E-01 -9.872988630E+00 -3.444982394E+01  3.583697584E+01  2.567846683E-06  0.00000E+00  9.000E+00
</event>
<event>
      5  10001  2.40292E+09  8.57814E+00 -1.00000E+00  2.03722E-01
      -4    -1     0     0     0   514  0.000000000E+00  0.000000000E+00  2.999012560E+02  2.999012560E+02  0.000000000E+00  0.00000E+00  9.000E+00
      21    -1     0     0   512   511  0.000000000E+00  0.000000000E+00 -3.891564994E+00  3.891564994E+00  0.000000000E+00  0.00000E+00  9.000E+00
      21     1     1     2   513   511  1.523128868E+01 -1.101793536E+01  4.447607286E+01  4.828569262E+01  6.743495762E-07  0.00000E+00  9.000E+00
      21     1     1     2   512   514 -2.355066033E+01  8.955764472E+00  8.278600963E+01  8.653532637E+01  0.000000000E+00  0.00000E+00  9.000E+00
      -4     1     1     2     0   513  8.319371649E+00  2.062170891E+00  1.687476085E+02  1.689718020E+02  1.500000000E+00  0.00000E+00  9.000E+00
</event>
<event>
      5  10001  2.40292E+09  8.67971E+00 -1.00000E+00  2.03082E-01
       1    -1     0     0   511     0  0.000000000E+00  0.000000000E+00  5.910912200E+00  5.910912200E+00  0.000000000E+00  0.00000E+00  9.000E+00
      21    -1     0     0   515   516  0.000000000E+00  0.000000000E+00 -4.103029330E+01  4.103029330E+01  0.000000000E+00  0.00000E+00  9.000E+00
      21     1     1     2   511   512 -2.028393477E-01 -4.232154785E+00 -1.357864327E-01  4.239188115E+00  9.503141805E-08  0.00000E+00  9.000E+00
       1     1     1     2   515     0 -7.235951013E+00  9.950931966E+00 -2.917923016E+01  3.166885547E+01  3.300000131E-01  0.00000E+00  9.000E+00
      21     1     1     2   512   516  7.438790360E+00 -5.718777182E+00 -5.804364504E+00  1.103316191E+01  1.884864366E-07  0.00000E+00  9.000E+00
</event>
<event>
      5  10001  2.40292E+09  1.65224E+01 -1.00000E+00  1.73472E-01
      21    -1     0     0   513   514  0.000000000E+00  0.000000000E+00  4.527769071E+01  4.527769071E+01  0.000000000E+00  0.00000E+00  9.000E+00
       1    -1     0     0   512     0  0.000000000E+00  0.000000000E+00 -1.210690727E+02  1.210690727E+02  0.000000000E+00  0.00000E+00  9.000E+00
      21     1     1     2   511   514 -5.649917884E+01 -3.905128998E+00 -1.341174254E+01  5.820036151E+01  9.973764736E-07  0.00000E+00  9.000E+00
       1     1     1     2   513     0  6.369369875E+01  1.408675167E+01 -6.821089279E+01  9.438304206E+01  3.300000131E-01  0.00000E+00  9.000E+00
      21     1     1     2   512   511 -7.194519915E+00 -1.018162268E+01  5.831253378E+00  1.376335980E+01  2.384185791E-07  0.00000E+00  9.000E+00
</event>
<event>
      5  10001  2.40292E+09  8.87706E+00 -1.00000E+00  2.01871E-01
       2    -1     0     0   511     0  0.000000000E+00  0.000000000E+00  6.096041559E+02  6.096041559E+02  0.000000000E+00  0.00000E+00  9.000E+00
      21    -1     0     0   513   511  0.000000000E+00  0.000000000E+00 -1.537945944E+00  1.537945944E+00  0.000000000E+00  0.00000E+00  9.000E+00
      21     1     1     2   513   515 -9.306266647E+00 -1.633828480E+00  1.522158924E+01  1.791571303E+01  6.951036328E-07  0.00000E+00  9.000E+00
       2     1     1     2   514     0  5.200159181E+00  5.963983061E+00  5.379633645E+02  5.380216550E+02  3.300000131E-01  0.00000E+00  9.000E+00
      21     1     1     2   515   514  4.106107466E+00 -4.330154581E+00  5.488125618E+01  5.520473383E+01  9.536743164E-07  0.00000E+00  9.000E+00
</event>
<event>
      5  10001  2.40292E+09  1.59528E+01 -1.00000E+00  1.74854E-01
      -2    -1     0     0     0   512  0.000000000E+00  0.000000000E+00  2.431962577E+01  2.431962577E+01  0.000000000E+00  0.00000E+00  9.000E+00
      21    -1     0     0   512   511  0.000000000E+00  0.000000000E+00 -1.923406019E+02  1.923406019E+02  0.000000000E+00  0.00000E+00  9.000E+00
      -2     1     1     2     0   516 -1.667469098E+01  8.094302839E+00  1.615123507E+01  2.458728029E+01  3.300000131E-01  0.00000E+00  9.000E+00
      21     1     1     2   513   511  9.832483514E+00  7.028056912E-01 -1.798492029E+02  1.801191479E+02  2.697398305E-06  0.00000E+00  9.000E+00
      21     1     1     2   516   513  6.842207467E+00 -8.797108530E+00 -4.323008370E+00  1.195379952E+01  2.980232239E-07  0.00000E+00  9.000E+00
</event>
<event>
      5  10001  2.40292E+09  7.10061E+00 -1.00000E+00  2.14611E-01
       2    -1     0     0   511     0  0.000000000E+00  0.000000000E+00  6.697195734E+02  6.697195734E+02  0.000000000E+00  0.00000E+00  9.000E+00
      21    -1     0     0   513   511  0.000000000E+00  0.000000000E+00 -4.106434663E-01  4.106434663E-01  0.000000000E+00  0.00000E+00  9.000E+00
      21     1     1     2   512   514 -3.482948563E-01 -1.030344658E+01  1.590505782E+02  1.593843428E+02  1.907348633E-06  0.00000E+00  9.000E+00
       2     1     1     2   514     0 -1.332581050E+00  1.217675851E+01  5.010481248E+02  5.011979464E+02  3.300000131E-01  0.00000E+00  9.000E+00
      21     1     1     2   513   512  1.680875907E+00 -1.873311927E+00  9.210226987E+00  9.547927657E+00  4.768371582E-07  0.00000E+00  9.000E+00
</event>
<event>
      5  10001  2.40292E+09  3.56740E+00 -1.00000E+00  2.75641E-01
      21    -1     0     0   515   514  0.000000000E+00  0.000000000E+00  2.180001609E+01  2.180001609E+01  0.000000000E+00  0.00000E+00  9.000E+00
       2    -1     0     0   513     0  0.000000000E+00  0.000000000E+00 -5.106261306E+01  5.106261306E+01  0.000000000E+00  0.00000E+00  9.000E+00
      21     1     1     2   515   512 -2.925260835E+00 -1.053411661E+01  1.757235650E+01  2.069571156E+01  2.384185791E-07  0.00000E+00  9.000E+00
      21     1     1     2   513   514  5.306221354E+00  7.877688430E+00 -6.129661414E+00  1.130427835E+01  1.460009660E-07  0.00000E+00  9.000E+00
       2     1     1     2   512     0 -2.380960519E+00  2.656428185E+00 -4.070529206E+01  4.086263924E+01  3.300000131E-01  0.00000E+00  9.000E+00
</event>
<event>
      5  10001  2.40292E+09  1.35581E+01 -1.00000E+00  1.81571E-01
      21    -1     0     0   511   513  0.000000000E+00  0.000000000E+00  1.596241670E+00  1.596241670E+00  0.000000000E+00  0.00000E+00  9.000E+00
      21    -1     0     0   512   516  0.000000000E+00  0.000000000E+00 -2.447238025E+02  2.447238025E+02  0.000000000E+00  0.00000E+00  9.000E+00
      21     1     1     2   511   516  4.580024557E-01  1.256997068E+01 -3.673393268E+01  3.882777020E+01  8.259061849E-07  0.00000E+00  9.000E+00
      21     1     1     2   512   514  1.165642323E+00 -1.441427700E+01 -9.709492744E+01  9.816595661E+01  1.348699152E-06  0.00000E+00  9.000E+00
      21     1     1     2   514   513 -1.623644779E+00  1.844306319E+00 -1.092987007E+02  1.093263174E+02  1.348699152E-06  0.00000E+00  9.000E+00
</event>
<event>
      5  10001  2.40292E+09  6.59406E+00 -1.00000E+00  2.19213E-01
      21    -1     0     0   515   512  0.000000000E+00  0.000000000E+00  1.234010992E+02  1.234010992E+02  0.000000000E+00  0.00000E+00  9.000E+00
      21    -1     0     0   517   513  0.000000000E+00  0.000000000E+00 -9.020159417E-01  9.020159417E-01  0.000000000E+00  0.00000E+00  9.000E+00
      21     1     1     2   515   513  1.253830005E+00 -9.221553204E+00  5.318760150E+01  5.399564877E+01  0.000000000E+00  0.00000E+00  9.000E+00
      -4     1     1     2     0   512 -1.722330590E+00  4.638358232E+00  1.691660899E+01  1.768904886E+01  1.500000000E+00  0.00000E+00  9.000E+00
       4     1     1     2   517     0  4.685005851E-01  4.583194971E+00  5.239487280E+01  5.261841754E+01  1.500000000E+00  0.00000E+00  9.000E+00
</event>
<event>
      5  10001  2.40292E+09  1.30499E+01 -1.00000E+00  1.83227E-01
      21    -1     0     0   514   512  0.000000000E+00  0.000000000E+00  4.515922104E+01  4.515922104E+01  0.000000000E+00  0.00000E+00  9.000E+00
      -4    -1     0     0     0   511  0.000000000E+00  0.000000000E+00 -2.292620343E+01  2.292620343E+01  0.000000000E+00  0.00000E+00  9.000E+00
      -4     1     1     2     0   513  3.850876912E+00 -6.725297158E+00 -1.528992833E+01  1.720728867E+01  1.500000000E+00  0.00000E+00  9.000E+00
      21     1     1     2   514   511 -1.503064953E+01  8.221040990E+00  3.550147382E+01  3.941903834E+01  8.259061849E-07  0.00000E+00  9.000E+00
      21     1     1     2   513   512  1.117977262E+01 -1.495743832E+00  2.021472117E+00  1.145909747E+01  1.074538015E-07  0.00000E+00  9.000E+00
</event>
<event>
      5  10001  2.40292E+09  4.40107E+00 -1.00000E+00  2.53960E-01
      21    -1     0     0   515   513  0.000000000E+00  0.000000000E+00  2.813013992E+01  2.813013992E+01  0.000000000E+00  0.00000E+00  9.000E+00
      21    -1     0     0   512   515  0.000000000E+00  0.000000000E+00 -2.964210293E+01  2.964210293E+01  0.000000000E+00  0.00000E+00  9.000E+00
      21     1     1     2   512   516  1.838373735E+01 -6.577772326E+00 -2.177592362E+01  2.924755951E+01  4.129530925E-07  0.00000E+00  9.000E+00
      21     1     1     2   516   511 -8.279327539E+00  5.122706816E+00  1.152101968E+01  1.508387497E+01  3.371747881E-07  0.00000E+00  9.000E+00
      21     1     1     2   511   513 -1.010440981E+01  1.455065510E+00  8.742940932E+00  1.344080836E+01  2.384185791E-07  0.00000E+00  9.000E+00
</event>
<event>
      5  10001  2.40292E+09  5.86757E+00 -1.00000E+00  2.26908E-01
      -1    -1     0     0     0   513  0.000000000E+00  0.000000000E+00  1.776405490E+01  1.776405490E+01  0.000000000E+00  0.00000E+00  9.000E+00
      21    -1     0     0   513   514  0.000000000E+00  0.000000000E+00 -1.443531112E+01  1.443531112E+01  0.000000000E+00  0.00000E+00  9.000E+00
      -1     1     1     2     0   511 -3.967716034E+00  1.129307767E+01  1.186736439E+01  1.685881406E+01  3.300000131E-01  0.00000E+00  9.000E+00
      21     1     1     2   512   514  2.416364069E+00 -4.909015387E+00 -1.418326017E+00  5.652335453E+00  1.712013080E-07  0.00000E+00  9.000E+00
      21     1     1     2   511   512  1.551351964E+00 -6.384062280E+00 -7.120294592E+00  9.688216513E+00  2.528810911E-07  0.00000E+00  9.000E+00
</event>
<event>
      5  10001  2.40292E+09  5.00473E+00 -1.00000E+00  2.38357E-01
       1    -1     0     0   515     0  0.000000000E+00  0.000000000E+00  6.751011759E+00  6.751011759E+00  0.000000000E+00  0.00000E+00  9.000E+00
      21    -1     0     0   511   516  0.000000000E+00  0.000000000E+00 -6.150496753E+01  6.150496753E+01  0.000000000E+00  0.00000E+00  9.000E+00
      21     1     1     2   515   516 -1.477515080E+00  8.273737136E+00 -4.786585854E+01  4.859812950E+01  1.348699152E-06  0.00000E+00  9.000E+00
      21     1     1     2   511   512  4.121062853E+00 -1.252229010E+01 -6.292907749E+00  1.460792923E+01  3.475518164E-07  0.00000E+00  9.000E+00
       1     1     1     2   512     0 -2.643547773E+00  4.248552968E+00 -5.951894837E-01  5.049920561E+00  3.300000131E-01  0.00000E+00  9.000E+00
</event>
<event>
      5  10001  2.40292E+09  1.92454E+01 -1.00000E+00  1.67717E-01
      21    -1     0     0   511   513  0.000000000E+00  0.000000000E+00  1.744756898E+01  1.744756898E+01  0.000000000E+00  0.00000E+00  9.000E+00
       2    -1     0     0   513     0  0.000000000E+00  0.000000000E+00 -6.976900824E+02  6.976900824E+02  0.000000000E+00  0.00000E+00  9.000E+00
      21     1     1     2   511   512  3.991406733E+00 -2.509826559E+01  7.655494321E+00  2.654168150E+01  1.046057270E-06  0.00000E+00  9.000E+00
      21     1     1     2   512   514 -1.040237775E+01  1.350471936E+01 -3.130476601E+02  3.135114422E+02  3.814697266E-06  0.00000E+00  9.000E+00
       2     1     1     2   514     0  6.410971015E+00  1.159354624E+01 -3.748503477E+02  3.750845277E+02  3.300000131E-01  0.00000E+00  9.000E+00
</event>
<event>
      5  10001  2.40292E+09  4.93854E+00 -1.00000E+00  2.43522E-01
       2    -1     0     0   512     0  0.000000000E+00  0.000000000E+00  3.625108335E+00  3.625108335E+00  0.000000000E+00  0.00000E+00  9.000E+00
       1    -1     0     0   511     0  0.000000000E+00  0.000000000E+00 -2.545616963E+02  2.545616963E+02  0.000000000E+00  0.00000E+00  9.000E+00
       1     1     1     2   514     0 -2.223071786E-01 -9.772691254E+00 -2.306310215E+02  2.308383242E+02  3.300000131E-01  0.00000E+00  9.000E+00
       2     1     1     2   511     0 -3.699531838E+00  1.277350963E+01 -1.589875704E+01  2.072989290E+01  3.300000131E-01  0.00000E+00  9.000E+00
      21     1     1     2   512   514  3.921839017E+00 -3.000818375E+00 -4.406809362E+00  6.618587534E+00  1.332800375E-07  0.00000E+00  9.000E+00
</event>
<event>
      5  10001  2.40292E+09  9.66965E+00 -1.00000E+00  1.97399E-01
      21    -1     0     0   513   511  0.000000000E+00  0.000000000E+00  2.018090761E+00  2.018090761E+00  0.000000000E+00  0.00000E+00  9.000E+00
      21    -1     0     0   515   514  0.000000000E+00  0.000000000E+00 -1.193423081E+02  1.193423081E+02  0.000000000E+00  0.00000E+00  9.000E+00
      21     1     1     2   513   514  1.030342816E+01  2.550181013E+00 -1.670553319E+01  1.979239486E+01  3.371747881E-07  0.00000E+00  9.000E+00
      21     1     1     2   516   511 -1.572855309E+00 -2.851900340E+00 -5.644082077E+01  5.653471021E+01  6.743495762E-07  0.00000E+00  9.000E+00
      21     1     1     2   515   516 -8.730572856E+00  3.017193269E-01 -4.417786341E+01  4.503329382E+01  4.768371582E-07  0.00000E+00  9.000E+00
</event>
<event>
      5  10001  2.40292E+09  9.34580E+00 -1.00000E+00  1.99156E-01
      21    -1     0     0   512   514  0.000000000E+00  0.000000000E+00  1.550117186E+02  1.550117186E+02  0.000000000E+00  0.00000E+00  9.000E+00
      21    -1     0     0   511   517  0.000000000E+00  0.000000000E+00 -1.646867294E+01  1.646867294E+01  0.000000000E+00  0.00000E+00  9.000E+00
      21     1     1     2   512   517  3.317022281E+00 -1.108355447E+01  1.436038119E+02  1.440690897E+02  0.000000000E+00  0.00000E+00  9.000E+00
      21     1     1     2   515   514  6.028493757E+00  1.115613348E+01  5.044077654E+00  1.364715247E+01  5.778884718E-07  0.00000E+00  9.000E+00
      21     1     1     2   511   515 -9.345516039E+00 -7.257900892E-02 -1.010484389E+01  1.376414937E+01  0.000000000E+00  0.00000E+00  9.000E+00
</event>
<event>
      5  10001  2.40292E+09  1.23173E+01 -1.00000E+00  1.85792E-01
      21    -1     0     0   513   514  0.000000000E+00  0.000000000E+00  1.953089981E+00  1.953089981E+00  0.000000000E+00  0.00000E+00  9.000E+00
       2    -1     0     0   514     0  0.000000000E+00  0.000000000E+00 -5.767788423E+02  5.767788423E+02  0.000000000E+00  0.00000E+00  9.000E+00
      21     1     1     2   512   511  2.130483708E+00  2.047085966E+01 -7.740553625E+01  8.009501919E+01  1.348699152E-06  0.00000E+00  9.000E+00
       2     1     1     2   511     0  1.716808220E+00 -1.590245324E+01 -4.791137861E+02  4.793808136E+02  3.300000131E-01  0.00000E+00  9.000E+00
      21     1     1     2   513   512 -3.847291928E+00 -4.568406418E+00 -1.830642998E+01  1.925609958E+01  4.129530925E-07  0.00000E+00  9.000E+00
</event>
<event>
      5  10001  2.40292E+09  1.83588E+01 -1.00000E+00  1.69453E-01
      21    -1     0     0   511   514  0.000000000E+00  0.000000000E+00  1.515706071E+02  1.515706071E+02  0.000000000E+00  0.00000E+00  9.000E+00
      -1    -1     0     0     0   512  0.000000000E+00  0.000000000E+00 -1.469294639E+02  1.469294639E+02  0.000000000E+00  0.00000E+00  9.000E+00
      -1     1     1     2     0   514 -2.762850806E+01  1.006236038E+01 -3.219930713E+01  4.360607565E+01  3.300000131E-01  0.00000E+00  9.000E+00
      21     1     1     2   515   512  1.341593794E+01 -2.168333117E+01 -1.069442826E+02  1.099419566E+02  2.336015456E-06  0.00000E+00  9.000E+00
      21     1     1     2   511   515  1.421257011E+01  1.162097079E+01  1.437847330E+02  1.449520388E+02  1.907348633E-06  0.00000E+00  9.000E+00
</event>
<event>
      5  10001  2.40292E+09  8.54544E+00 -1.00000E+00  2.03931E-01
       2    -1     0     0   513     0  0.000000000E+00  0.000000000E+00  3.831829461E+02  3.831829461E+02  0.000000000E+00  0.00000E+00  9.000E+00
      21    -1     0     0   511   512  0.000000000E+00  0.000000000E+00 -1.834638361E+01  1.834638361E+01  0.000000000E+00  0.00000E+00  9.000E+00
      21     1     1     2   514   512 -8.284930021E+00 -1.191345760E+01 -1.418721464E+01  2.029402860E+01  1.776178411E-06  0.00000E+00  9.000E+00
       2     1     1     2   511     0  1.929646093E+00  1.364528187E+01  3.688985457E+02  3.691560147E+02  3.300000131E-01  0.00000E+00  9.000E+00
      21     1     1     2   513   514  6.355283928E+00 -1.731824263E+00  1.012523139E+01  1.207928640E+01  0.000000000E+00  0.00000E+00  9.000E+00
</event>
<event>
      5  10001  2.40292E+09  2.78736E+00 -1.00000E+00  3.06756E-01
      21    -1     0     0   511   514  0.000000000E+00  0.000000000E+00  1.733470667E-01  1.733470667E-01  0.000000000E+00  0.00000E+00  9.000E+00
       2    -1     0     0   514     0  0.000000000E+00  0.000000000E+00 -9.553798025E+02  9.553798025E+02  0.000000000E+00  0.00000E+00  9.000E+00
      21     1     1     2   511   515 -5.618165102E+00  8.815814306E+00 -2.104155375E+02  2.106750597E+02  0.000000000E+00  0.00000E+00  9.000E+00
       2     1     1     2   512     0  4.033418425E+00 -5.524019717E+00 -6.074231827E+02  6.074617808E+02  3.300000131E-01  0.00000E+00  9.000E+00
      21     1     1     2   515   512  1.584746677E+00 -3.291794589E+00 -1.373677352E+02  1.374163091E+02  0.000000000E+00  0.00000E+00  9.000E+00
</event>
<event>
      5  10001  2.40292E+09  1.34263E+01 -1.00000E+00  1.81991E-01
      21    -1     0     0   513   512  0.000000000E+00  0.000000000E+00  9.686295585E+00  9.686295585E+00  0.000000000E+00  0.00000E+00  9.000E+00
      21    -1     0     0   514   513  0.000000000E+00  0.000000000E+00 -5.919177974E+01  5.919177974E+01  0.000000000E+00  0.00000E+00  9.000E+00
      21     1     1     2   514   516 -1.800964203E+01 -2.829859158E-01 -3.162415736E+01  3.639388157E+01  6.743495762E-07  0.00000E+00  9.000E+00
      21     1     1     2   516   511  1.604659799E+01  8.644180860E+00 -9.814060170E+00  2.070098903E+01  2.384185791E-07  0.00000E+00  9.000E+00
      21     1     1     2   511   512  1.963044041E+00 -8.361194944E+00 -8.067266623E+00  1.178320472E+01  1.685873940E-07  0.00000E+00  9.000E+00
</event>
<event>
      5  10001  2.40292E+09  4.02055E+00 -1.00000E+00  2.62839E-01
      21    -1     0     0   515   511  0.000000000E+00  0.000000000E+00  7.694431411E+01  7.694431411E+01  0.000000000E+00  0.00000E+00  9.000E+00
      21    -1     0     0   512   515  0.000000000E+00  0.000000000E+00 -4.789866607E+00  4.789866607E+00  0.000000000E+00  0.00000E+00  9.000E+00
      21     1     1     2   517   511 -1.002047472E+01  4.038378807E-01  6.916176549E+01  6.988506853E+01  9.536743164E-07  0.00000E+00  9.000E+00
      21     1     1     2   513   517  8.091389237E+00 -2.308434059E+00  3.460709292E+00  9.098129280E+00  1.460009660E-07  0.00000E+00  9.000E+00
      21     1     1     2   512   513  1.929085479E+00  1.904596178E+00 -4.680272785E-01  2.750982901E+00  6.322027277E-08  0.00000E+00  9.000E+00
</event>
<event>
      5  10001  2.40292E+09  8.32984E+00 -1.00000E+00  2.05338E-01
      21    -1     0     0   514   512  0.000000000E+00  0.000000000E+00  2.866563139E+00  2.866563139E+00  0.000000000E+00  0.00000E+00  9.000E+00
      21    -1     0     0   511   516  0.000000000E+00  0.000000000E+00 -3.756565807E+02  3.756565807E+02  0.000000000E+00  0.00000E+00  9.000E+00
      21     1     1     2   514   516 -2.500571559E+01  1.055267808E+01 -2.883627569E+02  2.896372290E+02  3.814697266E-06  0.00000E+00  9.000E+00
      21     1     1     2   515   512  8.652028973E+00 -9.817866398E-01 -2.256745216E+01  2.418907620E+01  4.129530925E-07  0.00000E+00  9.000E+00
      21     1     1     2   511   515  1.635368661E+01 -9.570891441E+00 -6.185980849E+01  6.469683868E+01  6.743495762E-07  0.00000E+00  9.000E+00
</event>
<event>
      5  10001  2.40292E+09  1.21928E+01 -1.00000E+00  1.86250E-01
      21    -1     0     0   513   512  0.000000000E+00  0.000000000E+00  1.146997095E+01  1.146997095E+01  0.000000000E+00  0.00000E+00  9.000E+00
       2    -1     0     0   512     0  0.000000000E+00  0.000000000E+00 -2.918979157E+02  2.918979157E+02  0.000000000E+00  0.00000E+00  9.000E+00
      21     1     1     2   513   514  7.151517001E+00  7.231793676E+00  5.672394545E+00  1.164556117E+01  7.817075878E-07  0.00000E+00  9.000E+00
       2     1     1     2   511     0 -1.717960879E+01 -1.460328495E+00 -2.754724212E+02  2.760116578E+02  3.300000131E-01  0.00000E+00  9.000E+00
      21     1     1     2   514   511  1.002809179E+01 -5.771465180E+00 -1.062791817E+01  1.571066771E+01  4.768371582E-07  0.00000E+00  9.000E+00
</event>
<event>
      5  10001  2.40292E+09  3.40884E+00 -1.00000E+00  2.80863E-01
       3    -1     0     0   514     0  0.000000000E+00  0.000000000E+00  4.475495231E+00  4.475495231E+00  0.000000000E+00  0.00000E+00  9.000E+00
      21    -1     0     0   515   512  0.000000000E+00  0.000000000E+00 -4.238702352E+02  4.238702352E+02  0.000000000E+00  0.00000E+00  9.000E+00
      21     1     1     2   514   511  6.131616809E+00  9.701206465E+00 -8.426119280E+01  8.503916006E+01  9.536743164E-07  0.00000E+00  9.000E+00
       3     1     1     2   515     0 -7.703358779E+00 -1.272594430E+01 -9.505268891E+00  1.766045106E+01  5.000000000E-01  0.00000E+00  9.000E+00
      21     1     1     2   511   512  1.571741970E+00  3.024737834E+00 -3.256282783E+02  3.256461193E+02  6.607249480E-06  0.00000E+00  9.000E+00
</event>
<event>
      5  10001  2.40292E+09  9.85855E+00 -1.00000E+00  1.96416E-01
      21    -1     0     0   511   515  0.000000000E+00  0.000000000E+00  7.891944198E+01  7.891944198E+01  0.000000000E+00  0.00000E+00  9.000E+00
       2    -1     0     0   515     0  0.000000000E+00  0.000000000E+00 -1.740316345E+00  1.740316345E+00  0.000000000E+00  0.00000E+00  9.000E+00
      21     1     1     2   511   514 -1.073492153E+00  2.454752714E+00  5.872377470E+00  6.454689260E+00  1.192092896E-07  0.00000E+00  9.000E+00
       2     1     1     2   513     0  4.879442486E+00 -8.517351184E+00  1.878368292E+01  2.119645900E+01  3.300000131E-01  0.00000E+00  9.000E+00
      21     1     1     2   514   513 -3.805950333E+00  6.062598470E+00  5.252306524E+01  5.300861006E+01  9.536743164E-07  0.00000E+00  9.000E+00
</event>
<event>
      5  10001  2.40292E+09  6.50740E+00 -1.00000E+00  2.20058E-01
      21    -1     0     0   512   513  0.000000000E+00  0.000000000E+00  2.021169432E+00  2.021169432E+00  0.000000000E+00  0.00000E+00  9.000E+00
       2    -1     0     0   514     0  0.000000000E+00  0.000000000E+00 -4.374743468E+02  4.374743468E+02  0.000000000E+00  0.00000E+00  9.000E+00
      21     1     1     2   514   513 -2.348967300E-01  1.442740450E+01 -2.717361721E+01  3.076703836E+01  1.011524364E-06  0.00000E+00  9.000E+00
       2     1     1     2   511     0 -4.429876013E+00 -1.354092884E+01 -3.269401982E+02  3.272506419E+02  3.300000131E-01  0.00000E+00  9.000E+00
      21     1     1     2   512   511  4.664772743E+00 -8.864756558E-01 -8.133936197E+01  8.147783594E+01  1.907348633E-06  0.00000E+00  9.000E+00
</event>
<event>
      5  10001  2.40292E+09  7.58200E+00 -1.00000E+00  2.10697E-01
      21    -1     0     0   515   511  0.000000000E+00  0.000000000E+00  7.270974369E+01  7.270974369E+01  0.000000000E+00  0.00000E+00  9.000E+00
      21    -1     0     0   513   516  0.000000000E+00  0.000000000E+00 -2.646816013E+01  2.646816013E+01  0.000000000E+00  0.00000E+00  9.000E+00
      21     1     1     2   515   516 -1.855064406E+00  1.008940065E+01  7.085958205E+01  7.159830751E+01  9.536743164E-07  0.00000E+00  9.000E+00
      21     1     1     2   513   514  3.435910260E+00 -2.324798374E+00 -1.182269183E+01  1.252941375E+01  4.129530925E-07  0.00000E+00  9.000E+00
      21     1     1     2   514   511 -1.580845854E+00 -7.764602279E+00 -1.279530667E+01  1.505018256E+01  1.685873940E-07  0.00000E+00  9.000E+00
</event>
<event>
      5  10001  2.40292E+09  6.98701E+00 -1.00000E+00  2.15596E-01
      -4    -1     0     0     0   511  0.000000000E+00  0.000000000E+00  2.756218496E+02  2.756218496E+02  0.000000000E+00  0.00000E+00  9.000E+00
      -1    -1     0     0     0   512  0.000000000E+00  0.000000000E+00 -5.574051534E-01  5.574051534E-01  0.000000000E+00  0.00000E+00  9.000E+00
      -4     1     1     2     0   513  5.634600051E-02 -7.903175377E+00  1.115284842E+02  1.118182281E+02  1.500000000E+00  0.00000E+00  9.000E+00
      -1     1     1     2     0   511  3.586020097E+00  8.331253857E+00  5.353417878E+01  5.429812639E+01  3.300000131E-01  0.00000E+00  9.000E+00
      21     1     1     2   513   512 -3.642366098E+00 -4.280784796E-01  1.100017815E+02  1.100629002E+02  1.348699152E-06  0.00000E+00  9.000E+00
</event>
<event>
      5  10001  2.40292E+09  3.20219E+00 -1.00000E+00  2.88398E-01
      21    -1     0     0   514   512  0.000000000E+00  0.000000000E+00  1.082047681E+02  1.082047681E+02  0.000000000E+00  0.00000E+00  9.000E+00
      21    -1     0     0   511   515  0.000000000E+00  0.000000000E+00 -1.481400413E+01  1.481400413E+01  0.000000000E+00  0.00000E+00  9.000E+00
      21     1     1     2   514   515  4.315190730E+00  1.065963563E+01 -1.107759209E+01  1.596752170E+01  4.460403188E-07  0.00000E+00  9.000E+00
      21     1     1     2   513   512 -7.416304880E+00 -9.861447946E+00  1.026093149E+02  1.033485425E+02  2.336015456E-06  0.00000E+00  9.000E+00
      21     1     1     2   511   513  3.101114150E+00 -7.981876805E-01  1.859041116E+00  3.702707984E+00  8.161702119E-08  0.00000E+00  9.000E+00
</event>
<event>
      5  10001  2.40292E+09  4.21729E+00 -1.00000E+00  2.58068E-01
      21    -1     0     0   516   513  0.000000000E+00  0.000000000E+00  3.430134101E+01  3.430134101E+01  0.000000000E+00  0.00000E+00  9.000E+00
      21    -1     0     0   511   512  0.000000000E+00  0.000000000E+00 -9.467335754E+01  9.467335754E+01  0.000000000E+00  0.00000E+00  9.000E+00
      21     1     1     2   511   517  1.178595800E+01  4.435836067E+00 -7.600716260E+01  7.704332686E+01  1.348699152E-06  0.00000E+00  9.000E+00
      21     1     1     2   517   513 -7.603577107E+00 -3.894322119E+00  3.298655093E+01  3.407480993E+01  6.743495762E-07  0.00000E+00  9.000E+00
      21     1     1     2   516   512 -4.182380888E+00 -5.415139479E-01 -1.735140486E+01  1.785656176E+01  0.000000000E+00  0.00000E+00  9.000E+00
</event>
<event>
      5  10001  2.40292E+09  3.16024E+00 -1.00000E+00  2.90042E-01
      -3    -1     0     0     0   514  0.000000000E+00  0.000000000E+00  1.338316137E+01  1.338316137E+01  0.000000000E+00  0.00000E+00  9.000E+00
      21    -1     0     0   513   512  0.000000000E+00  0.000000000E+00 -1.698218605E+02  1.698218605E+02  0.000000000E+00  0.00000E+00  9.000E+00
      -3     1     1     2     0   512  2.982676060E+01  6.163140560E-01 -7.944587202E+00  3.087688386E+01  5.000000000E-01  0.00000E+00  9.000E+00
      21     1     1     2   511   514 -2.959693582E+01  4.146453008E-01 -1.483356018E+02  1.512600453E+02  1.907348633E-06  0.00000E+00  9.000E+00
      21     1     1     2   513   511 -2.298247834E-01 -1.030959357E+00 -1.585101550E-01  1.068092737E+00  2.945100572E-08  0.00000E+00  9.000E+00
</event>
<event>
      5  10001  2.40292E+09  1.11953E+01 -1.00000E+00  1.90199E-01
      21    -1     0     0   513   511  0.000000000E+00  0.000000000E+00  3.917491630E+00  3.917491630E+00  0.000000000E+00  0.00000E+00  9.000E+00
       2    -1     0     0   514     0  0.000000000E+00  0.000000000E+00 -1.127433628E+03  1.127433628E+03  0.000000000E+00  0.00000E+00  9.000E+00
      21     1     1     2   512   511  6.004372930E+00  1.057024402E+01 -1.069311514E+01  1.619028302E+01  7.251217997E-07  0.00000E+00  9.000E+00
       2     1     1     2   513     0 -1.040899867E+01 -4.059092739E+00 -1.100418076E+03  1.100474840E+03  3.300000131E-01  0.00000E+00  9.000E+00
      21     1     1     2   514   512  4.404625738E+00 -6.511151281E+00 -1.240494539E+01  1.468599635E+01  5.840038640E-07  0.00000E+00  9.000E+00
</event>
<event>
      5  10001  2.40292E+09  6.18330E+00 -1.00000E+00  2.23384E-01
      21    -1     0     0   513   511  0.000000000E+00  0.000000000E+00  2.154845375E+01  2.154845375E+01  0.000000000E+00  0.00000E+00  9.000E+00
      21    -1     0     0   514   515  0.000000000E+00  0.000000000E+00 -1.892145507E+01  1.892145507E+01  0.000000000E+00  0.00000E+00  9.000E+00
      21     1     1     2   514   512 -9.702745510E+00 -7.999622462E+00 -1.199804838E+01  1.738074782E+01  2.920019320E-07  0.00000E+00  9.000E+00
      21     1     1     2   512   511  4.221765583E+00  1.086180424E+01  1.018354584E+01  1.547600407E+01  1.192092896E-07  0.00000E+00  9.000E+00
      21     1     1     2   513   515  5.480979927E+00 -2.862181776E+00  4.441501210E+00  7.613156932E+00  1.460009660E-07  0.00000E+00  9.000E+00
</event>
<event>
      5  10001  2.40292E+09  1.05762E+01 -1.00000E+00  1.92929E-01
      21    -1     0     0   516   512  0.000000000E+00  0.000000000E+00  3.155945549E+00  3.155945549E+00  0.000000000E+00  0.00000E+00  9.000E+00
      21    -1     0     0   517   516  0.000000000E+00  0.000000000E+00 -1.882933969E+02  1.882933969E+02  0.000000000E+00  0.00000E+00  9.000E+00
      21     1     1     2   517   514 -5.161503489E+00 -8.700805408E+00 -1.709928359E+02  1.712918418E+02  2.697398305E-06  0.00000E+00  9.000E+00
      21     1     1     2   514   511  2.133359667E-01  8.547750179E+00 -1.206565316E+01  1.478815511E+01  2.920019320E-07  0.00000E+00  9.000E+00
      21     1     1     2   511   512  4.948167522E+00  1.530552290E-01 -2.078962328E+00  5.369345592E+00  7.300048300E-08  0.00000E+00  9.000E+00
</event>
<event>
      5  10001  2.40292E+09  1.08475E+01 -1.00000E+00  1.91704E-01
       3    -1     0     0   514     0  0.000000000E+00  0.000000000E+00  3.539539766E+01  3.539539766E+01  0.000000000E+00  0.00000E+00  9.000E+00
      21    -1     0     0   515   513  0.000000000E+00  0.000000000E+00 -3.531275041E+02  3.531275041E+02  0.000000000E+00  0.00000E+00  9.000E+00
      21     1     1     2   514   513  1.340634945E+01  7.389496847E+00 -2.353523320E+02  2.358496450E+02  2.697398305E-06  0.00000E+00  9.000E+00
       3     1     1     2   511     0 -8.886987666E+00  2.471712587E+00  3.428374272E+01  3.550651951E+01  5.000000000E-01  0.00000E+00  9.000E+00
      21     1     1     2   515   511 -4.519361781E+00 -9.861209434E+00 -1.166635171E+02  1.171667372E+02  1.907348633E-06  0.00000E+00  9.000E+00
</event>
<event>
      5  10001  2.40292E+09  8.80396E+00 -1.00000E+00  2.02315E-01
      21    -1     0     0   512   513  0.000000000E+00  0.000000000E+00  1.545823960E+02  1.545823960E+02  0.000000000E+00  0.00000E+00  9.000E+00
      21    -1     0     0   515   516  0.000000000E+00  0.000000000E+00 -1.598267167E+01  1.598267167E+01  0.000000000E+00  0.00000E+00  9.000E+00
      21     1     1     2   512   516  1.574499425E+01 -4.480154609E+00  2.809400914E+01  3.251538065E+01  0.000000000E+00  0.00000E+00  9.000E+00
      21     1     1     2   515   511 -1.858718843E+01 -3.852410032E+00 -6.987227782E+00  2.022735744E+01  4.842304232E-07  0.00000E+00  9.000E+00
      21     1     1     2   511   513  2.842194177E+00  8.332564641E+00  1.174929430E+02  1.178223296E+02  0.000000000E+00  0.00000E+00  9.000E+00
</event>
<event>
      5  10001  2.40292E+09  4.19216E+00 -1.00000E+00  2.58655E-01
      21    -1     0     0   514   515  0.000000000E+00  0.000000000E+00  4.262444008E+01  4.262444008E+01  0.000000000E+00  0.00000E+00  9.000E+00
      21    -1     0     0   512   513  0.000000000E+00  0.000000000E+00 -5.588201047E+01  5.588201047E+01  0.000000000E+00  0.00000E+00  9.000E+00
      21     1     1     2   514   513  1.151003332E+01 -1.518769916E+01 -2.898971039E+00  1.927566097E+01  5.591411304E-07  0.00000E+00  9.000E+00
      21     1     1     2   517   515 -1.075488067E+01  1.106411519E+01  3.260049394E+01  3.606763519E+01  6.743495762E-07  0.00000E+00  9.000E+00
      21     1     1     2   512   517 -7.551526545E-01  4.123583971E+00 -4.295909329E+01  4.316315439E+01  0.000000000E+00  0.00000E+00  9.000E+00
</event>
<event>
      5  10001  2.40292E+09  4.03010E+00 -1.00000E+00  2.62598E-01
      21    -1     0     0   513   515  0.000000000E+00  0.000000000E+00  2.854409759E+02  2.854409759E+02  0.000000000E+00  0.00000E+00  9.000E+00
      21    -1     0     0   512   511  0.000000000E+00  0.000000000E+00 -8.232951718E+00  8.232951718E+00  0.000000000E+00  0.00000E+00  9.000E+00
      21     1     1     2   516   515  2.310209176E-01  1.175493905E+01  2.111848358E+01  2.417069117E+01  4.129530925E-07  0.00000E+00  9.000E+00
      21     1     1     2   512   516 -2.483524634E+00 -8.413094242E+00 -3.816265483E+00  9.566186887E+00  2.457562462E-07  0.00000E+00  9.000E+00
      21     1     1     2   513   511  2.252503717E+00 -3.341844809E+00  2.599058061E+02  2.599370496E+02  3.814697266E-06  0.00000E+00  9.000E+00
</event>
<event>
      5  10001  2.40292E+09  7.22005E+00 -1.00000E+00  2.13601E-01
      21    -1     0     0   514   512  0.000000000E+00  0.000000000E+00  2.408097797E+01  2.408097797E+01  0.000000000E+00  0.00000E+00  9.000E+00
      21    -1     0     0   515   517  0.000000000E+00  0.000000000E+00 -2.045424986E+01  2.045424986E+01  0.000000000E+00  0.00000E+00  9.000E+00
      21     1     1     2   514   517 -1.458787490E+01 -7.233878825E-02  1.031694367E+00  1.462449042E+01  1.744136201E-07  0.00000E+00  9.000E+00
      21     1     1     2   515   511  1.453914633E+01  7.292220519E+00 -7.162373411E+00  1.777253074E+01  2.384185791E-07  0.00000E+00  9.000E+00
      21     1     1     2   511   512  4.872856326E-02 -7.219881730E+00  9.757407149E+00  1.213820666E+01  1.685873940E-07  0.00000E+00  9.000E+00
</event>
<event>
      5  10001  2.40292E+09  5.97405E+00 -1.00000E+00  2.25686E-01
      21    -1     0     0   513   515  0.000000000E+00  0.000000000E+00  3.446900614E+00  3.446900614E+00  0.000000000E+00  0.00000E+00  9.000E+00
      21    -1     0     0   516   512  0.000000000E+00  0.000000000E+00 -3.409186282E+01  3.409186282E+01  0.000000000E+00  0.00000E+00  9.000E+00
      21     1     1     2   513   512  9.038286783E+00  2.504146748E+00 -9.207829484E+00  1.314326834E+01  1.192092896E-07  0.00000E+00  9.000E+00
      21     1     1     2   516   514 -4.446683585E+00 -4.705126126E+00 -1.338642644E+01  1.486968795E+01  2.920019320E-07  0.00000E+00  9.000E+00
      21     1     1     2   514   515 -4.591603198E+00  2.200979377E+00 -8.050706277E+00  9.525807142E+00  1.192092896E-07  0.00000E+00  9.000E+00
</event>
<event>
      5  10001  2.40292E+09  3.50575E+01 -1.00000E+00  1.48451E-01
      21    -1     0     0   511   514  0.000000000E+00  0.000000000E+00  4.586290003E+01  4.586290003E+01  0.000000000E+00  0.00000E+00  9.000E+00
      21    -1     0     0   515   511  0.000000000E+00  0.000000000E+00 -3.388572045E+01  3.388572045E+01  0.000000000E+00  0.00000E+00  9.000E+00
      21     1     1     2   516   514 -1.065707019E+00  3.239654303E+01  9.058735534E+00  3.365609040E+01  6.529361695E-07  0.00000E+00  9.000E+00
      21     1     1     2   512   516 -1.574773400E+01 -1.430586103E+01  5.628583482E-01  2.128298840E+01  2.170920712E-07  0.00000E+00  9.000E+00
      21     1     1     2   515   512  1.681344102E+01 -1.809068200E+01  2.355585697E+00  2.480954167E+01  5.615187788E-07  0.00000E+00  9.000E+00
</event>
<event>
      5  10001  2.40292E+09  8.11818E+00 -1.00000E+00  2.06776E-01
      21    -1     0     0   513   512  0.000000000E+00  0.000000000E+00  2.171004761E+02  2.171004761E+02  0.000000000E+00  0.00000E+00  9.000E+00
      21    -1     0     0   514   517  0.000000000E+00  0.000000000E+00 -6.216132550E+00  6.216132550E+00  0.000000000E+00  0.00000E+00  9.000E+00
      21     1     1     2   513   517 -1.156236392E+01  5.936450030E+00  2.036603363E+00  1.315589038E+01  2.439425222E-07  0.00000E+00  9.000E+00
      21     1     1     2   514   511  1.308852933E+01 -3.877705507E-01  1.900805482E+02  1.905310336E+02  0.000000000E+00  0.00000E+00  9.000E+00
      21     1     1     2   511   512 -1.526165414E+00 -5.548679480E+00  1.876719203E+01  1.962968470E+01  2.384185791E-07  0.00000E+00  9.000E+00
</event>
<event>
      5  10001  2.40292E+09  6.14332E+00 -1.00000E+00  2.23814E-01
      21    -1     0     0   515   514  0.000000000E+00  0.000000000E+00  9.842135236E+02  9.842135236E+02  0.000000000E+00  0.00000E+00  9.000E+00
      21    -1     0     0   516   512  0.000000000E+00  0.000000000E+00 -2.747792125E-01  2.747792125E-01  0.000000000E+00  0.00000E+00  9.000E+00
      21     1     1     2   515   512  6.415646764E+00 -1.270059591E+01  6.567522817E+02  6.569064052E+02  0.000000000E+00  0.00000E+00  9.000E+00
      21     1     1     2   513   514 -6.608268116E+00  5.828273889E+00  1.465463005E+02  1.468109539E+02  2.697398305E-06  0.00000E+00  9.000E+00
      21     1     1     2   516   513  1.926213515E-01  6.872322021E+00  1.806401621E+02  1.807709437E+02  3.303624740E-06  0.00000E+00  9.000E+00
</event>
<event>
      5  10001  2.40292E+09  5.80529E+00 -1.00000E+00  2.27640E-01
      21    -1     0     0   511   513  0.000000000E+00  0.000000000E+00  1.376704881E+00  1.376704881E+00  0.000000000E+00  0.00000E+00  9.000E+00
       2    -1     0     0   514     0  0.000000000E+00  0.000000000E+00 -1.530509720E+02  1.530509720E+02  0.000000000E+00  0.00000E+00  9.000E+00
      21     1     1     2   514   513 -1.257929612E+01 -3.041735152E+00 -4.847456757E+01  5.017244806E+01  9.536743164E-07  0.00000E+00  9.000E+00
      21     1     1     2   511   512  8.715703862E+00  3.171712396E+00 -4.609339758E+01  4.701727931E+01  0.000000000E+00  0.00000E+00  9.000E+00
       2     1     1     2   512     0  3.863592255E+00 -1.299772445E-01 -5.710630194E+01  5.723794948E+01  3.300000131E-01  0.00000E+00  9.000E+00
</event>
<event>
      5  10001  2.40292E+09  4.93780E+00 -1.00000E+00  2.43535E-01
      21    -1     0     0   515   514  0.000000000E+00  0.000000000E+00  1.103082847E+01  1.103082847E+01  0.000000000E+00  0.00000E+00  9.000E+00
      21    -1     0     0   513   516  0.000000000E+00  0.000000000E+00 -3.577809506E+01  3.577809506E+01  0.000000000E+00  0.00000E+00  9.000E+00
      21     1     1     2   515   516  5.337919952E+00 -9.684659395E+00 -3.122250898E+01  3.312296913E+01  3.371747881E-07  0.00000E+00  9.000E+00
      21     1     1     2   511   514 -8.911845726E-01  3.556225719E+00  4.605910018E+00  5.886880193E+00  8.429369702E-08  0.00000E+00  9.000E+00
      21     1     1     2   513   511 -4.446735379E+00  6.128433676E+00  1.869332375E+00  7.799074200E+00  6.989264130E-08  0.00000E+00  9.000E+00
</event>
<event>
      5  10001  2.40292E+09  5.35282E+00 -1.00000E+00  2.33372E-01
      21    -1     0     0   512   514  0.000000000E+00  0.000000000E+00  8.610604412E+01  8.610604412E+01  0.000000000E+00  0.00000E+00  9.000E+00
      21    -1     0     0   513   515  0.000000000E+00  0.000000000E+00 -5.220794818E+00  5.220794818E+00  0.000000000E+00  0.00000E+00  9.000E+00
      21     1     1     2   511   514 -2.723024046E-02 -8.627824080E+00  6.743766037E+01  6.798733799E+01  1.348699152E-06  0.00000E+00  9.000E+00
      21     1     1     2   513   511  4.148293755E+00  1.204388759E+01  1.260523004E+01  1.792080896E+01  3.371747881E-07  0.00000E+00  9.000E+00
      21     1     1     2   512   515 -4.121063514E+00 -3.416063513E+00  8.423588916E-01  5.418691993E+00  6.495265579E-08  0.00000E+00  9.000E+00
</event>
<event>
      5  10001  2.40292E+09  8.01255E+00 -1.00000E+00  2.07516E-01
      -1    -1     0     0     0   516  0.000000000E+00  0.000000000E+00  5.700778485E+00  5.700778485E+00  0.000000000E+00  0.00000E+00  9.000E+00
      21    -1     0     0   511   513  0.000000000E+00  0.000000000E+00 -7.841938405E+01  7.841938405E+01  0.000000000E+00  0.00000E+00  9.000E+00
      -1     1     1     2     0   512  5.420546500E+00  1.072666072E+01 -1.724588845E+01  2.102315731E+01  3.300000131E-01  0.00000E+00  9.000E+00
      21     1     1     2   511   516 -9.172218358E+00 -3.647654213E+00 -3.443122043E+00  1.045418865E+01  3.397987560E-07  0.00000E+00  9.000E+00
      21     1     1     2   512   513  3.751671858E+00 -7.079006506E+00 -5.202959506E+01  5.264281658E+01  6.743495762E-07  0.00000E+00  9.000E+00
</event>
<event>
      5  10001  2.40292E+09  3.32831E+00 -1.00000E+00  2.83694E-01
      21    -1     0     0   514   513  0.000000000E+00  0.000000000E+00  7.240718969E+00  7.240718969E+00  0.000000000E+00  0.00000E+00  9.000E+00
      21    -1     0     0   516   514  0.000000000E+00  0.000000000E+00 -6.707662196E+01  6.707662196E+01  0.000000000E+00  0.00000E+00  9.000E+00
      21     1     1     2   511   513  4.411411662E+00  1.095251308E+01  1.066079198E+00  1.185557339E+01  2.439425222E-07  0.00000E+00  9.000E+00
      21     1     1     2   515   511 -5.382534396E+00 -7.769028523E+00 -5.373228271E+01  5.455719647E+01  9.536743164E-07  0.00000E+00  9.000E+00
      21     1     1     2   516   515  9.711227338E-01 -3.183484553E+00 -7.169699478E+00  7.904571075E+00  1.460009660E-07  0.00000E+00  9.000E+00
</event>
<event>
      5  10001  2.40292E+09  5.70317E+00 -1.00000E+00  2.28868E-01
      21    -1     0     0   512   515  0.000000000E+00  0.000000000E+00  2.918989555E+02  2.918989555E+02  0.000000000E+00  0.00000E+00  9.000E+00
      21    -1     0     0   513   517  0.000000000E+00  0.000000000E+00 -6.062883107E-01  6.062883107E-01  0.000000000E+00  0.00000E+00  9.000E+00
      21     1     1     2   512   517 -1.119093130E-01  8.811144393E+00  4.478044744E+01  4.563920751E+01  1.348699152E-06  0.00000E+00  9.000E+00
      21     1     1     2   511   515  4.736191706E-01 -5.833260761E+00  2.305571086E+02  2.306313760E+02  2.697398305E-06  0.00000E+00  9.000E+00
      21     1     1     2   513   511 -3.617098576E-01 -2.977883632E+00  1.595511115E+01  1.623466036E+01  2.920019320E-07  0.00000E+00  9.000E+00
</event>
<event>
      5  10001  2.40292E+09  7.15344E+00 -1.00000E+00  2.14161E-01
      21    -1     0     0   514   512  0.000000000E+00  0.000000000E+00  3.011306665E+01  3.011306665E+01  0.000000000E+00  0.00000E+00  9.000E+00
      21    -1     0     0   513   514  0.000000000E+00  0.000000000E+00 -2.621094610E+01  2.621094610E+01  0.000000000E+00  0.00000E+00  9.000E+00
      21     1     1     2   511   515  1.485572901E+01  8.960775693E+00  1.068340493E+01  2.037457549E+01  5.840038640E-07  0.00000E+00  9.000E+00
      21     1     1     2   513   511 -8.269627245E+00 -6.168823411E+00 -1.909772538E+01  2.170631778E+01  0.000000000E+00  0.00000E+00  9.000E+00
      21     1     1     2   515   512 -6.586101761E+00 -2.791952282E+00  1.231644100E+01  1.424311949E+01  2.384185791E-07  0.00000E+00  9.000E+00
</event>
<event>
      5  10001  2.40292E+09  8.40986E+00 -1.00000E+00  2.04809E-01
      21    -1     0     0   516   513  0.000000000E+00  0.000000000E+00  7.372922050E+00  7.372922050E+00  0.000000000E+00  0.00000E+00  9.000E+00
      21    -1     0     0   515   512  0.000000000E+00  0.000000000E+00 -1.419441728E+01  1.419441728E+01  0.000000000E+00  0.00000E+00  9.000E+00
      21     1     1     2   516   512  2.596762210E+00 -7.754389690E+00 -1.720715621E+00  8.356709621E+00  1.645887050E-07  0.00000E+00  9.000E+00
      21     1     1     2   515   511 -4.502333687E+00  3.102697753E+00 -5.984914165E+00  8.106598518E+00  8.429369702E-08  0.00000E+00  9.000E+00
      21     1     1     2   511   513  1.905571477E+00  4.651691937E+00  8.841345513E-01  5.104031195E+00  5.053229617E-08  0.00000E+00  9.000E+00
</event>
<event>
      5  10001  2.40292E+09  6.53768E+00 -1.00000E+00  2.19761E-01
      21    -1     0     0   514   512  0.000000000E+00  0.000000000E+00  3.476601883E+02  3.476601883E+02  0.000000000E+00  0.00000E+00  9.000E+00
      21    -1     0     0   517   513  0.000000000E+00  0.000000000E+00 -8.044018231E-01  8.044018231E-01  0.000000000E+00  0.00000E+00  9.000E+00
      21     1     1     2   514   513  1.058271527E+01 -7.091439456E+00  8.002195825E+01  8.102960063E+01  9.536743164E-07  0.00000E+00  9.000E+00
      21     1     1     2   517   515 -1.268507402E+01  3.686278636E+00  2.312168381E+02  2.315938816E+02  2.697398305E-06  0.00000E+00  9.000E+00
      21     1     1     2   515   512  2.102358751E+00  3.405160820E+00  3.561699010E+01  3.584110791E+01  4.768371582E-07  0.00000E+00  9.000E+00
</event>
<event>
      5  10001  2.40292E+09  1.41732E+01 -1.00000E+00  1.79686E-01
      21    -1     0     0   511   513  0.000000000E+00  0.000000000E+00  6.511120955E+00  6.511120955E+00  0.000000000E+00  0.00000E+00  9.000E+00
      21    -1     0     0   516   512  0.000000000E+00  0.000000000E+00 -5.932044476E+01  5.932044476E+01  0.000000000E+00  0.00000E+00  9.000E+00
      21     1     1     2   511   512 -9.383151668E+00  1.466730912E+00  1.582782188E+00  9.628085700E+00  1.429269172E-07  0.00000E+00  9.000E+00
      21     1     1     2   516   514  1.331904457E+00  4.048923419E+00 -2.026176626E+01  2.070523901E+01  2.384185791E-07  0.00000E+00  9.000E+00
      21     1     1     2   514   513  8.051247211E+00 -5.515654331E+00 -3.413033973E+01  3.549824100E+01  4.768371582E-07  0.00000E+00  9.000E+00
</event>
<event>
      5  10001  2.40292E+09  4.08525E+00 -1.00000E+00  2.61224E-01
      21    -1     0     0   515   513  0.000000000E+00  0.000000000E+00  3.314935289E+00  3.314935289E+00  0.000000000E+00  0.00000E+00  9.000E+00
       2    -1     0     0   513     0  0.000000000E+00  0.000000000E+00 -1.407219131E+02  1.407219131E+02  0.000000000E+00  0.00000E+00  9.000E+00
      21     1     1     2   515   514 -4.974554442E+00  1.040007013E+01 -8.300334115E+00  1.420574521E+01  2.384185791E-07  0.00000E+00  9.000E+00
       2     1     1     2   511     0  6.485321957E+00 -9.384485982E+00 -9.627295596E+01  9.694699030E+01  3.300000131E-01  0.00000E+00  9.000E+00
      21     1     1     2   514   511 -1.510767515E+00 -1.015584149E+00 -3.283368773E+01  3.288411288E+01  4.768371582E-07  0.00000E+00  9.000E+00
</event>
<event>
      5  10001  2.40292E+09  4.09449E+00 -1.00000E+00  2.60997E-01
       1    -1     0     0   512     0  0.000000000E+00  0.000000000E+00  4.015110402E+02  4.015110402E+02  0.000000000E+00  0.00000E+00  9.000E+00
      21    -1     0     0   513   516  0.000000000E+00  0.000000000E+00 -2.434920589E+01  2.434920589E+01  0.000000000E+00  0.00000E+00  9.000E+00
      21     1     1     2   512   516 -7.232170848E+00 -8.088593674E+00 -2.008720580E+01  2.283036311E+01  0.000000000E+00  0.00000E+00  9.000E+00
      21     1     1     2   513   511  4.587434690E+00  1.121431022E+01  9.866054417E+00  1.562511889E+01  3.371747881E-07  0.00000E+00  9.000E+00
       1     1     1     2   511     0  2.644736158E+00 -3.125716544E+00  3.873829856E+02  3.874047640E+02  3.300000131E-01  0.00000E+00  9.000E+00
</event>
<event>
      5  10001  2.40292E+09  1.91180E+01 -1.00000E+00  1.67959E-01
      21    -1     0     0   514   511  0.000000000E+00  0.000000000E+00  4.233303325E+01  4.233303325E+01  0.000000000E+00  0.00000E+00  9.000E+00
      21    -1     0     0   515   514  0.000000000E+00  0.000000000E+00 -4.624305891E+00  4.624305891E+00  0.000000000E+00  0.00000E+00  9.000E+00
      21     1     1     2   513   511 -2.233550386E+00  4.807002959E+00  1.308783132E+01  1.412045868E+01  1.685873940E-07  0.00000E+00  9.000E+00
      21     1     1     2   512   513 -1.582659630E+00 -1.144170975E+01  2.181610052E+01  2.468521370E+01  4.768371582E-07  0.00000E+00  9.000E+00
      21     1     1     2   515   512  3.816210015E+00  6.634706787E+00  2.804795519E+00  8.151666758E+00  1.397852826E-07  0.00000E+00  9.000E+00
</event>
<event>
      5  10001  2.40292E+09  1.29775E+01 -1.00000E+00  1.83471E-01
      21    -1     0     0   513   511  0.000000000E+00  0.000000000E+00  4.810458419E+01  4.810458419E+01  0.000000000E+00  0.00000E+00  9.000E+00
      21    -1     0     0   515   516  0.000000000E+00  0.000000000E+00 -1.247444390E+02  1.247444390E+02  0.000000000E+00  0.00000E+00  9.000E+00
      21     1     1     2   515   517 -1.332309227E+00 -1.662955020E+01 -1.192060803E+02  1.203677971E+02  1.348699152E-06  0.00000E+00  9.000E+00
      21     1     1     2   517   511  1.206231617E+01  9.330135688E+00  3.301851031E+01  3.636994537E+01  6.743495762E-07  0.00000E+00  9.000E+00
      21     1     1     2   513   516 -1.073000694E+01  7.299414516E+00  9.547715216E+00  1.611128074E+01  2.920019320E-07  0.00000E+00  9.000E+00
</event>
<event>
      5  10001  2.40292E+09  2.26594E+01 -1.00000E+00  1.61977E-01
      21    -1     0     0   512   516  0.000000000E+00  0.000000000E+00  7.385727764E+02  7.385727764E+02  0.000000000E+00  0.00000E+00  9.000E+00
      21    -1     0     0   515   514  0.000000000E+00  0.000000000E+00 -8.135874218E-01  8.135874218E-01  0.000000000E+00  0.00000E+00  9.000E+00
      21     1     1     2   512   514  8.645514688E+00  1.198982440E+01  8.000609374E+01  8.136016131E+01  2.336015456E-06  0.00000E+00  9.000E+00
      21     1     1     2   511   516 -3.045398171E+00 -4.662695623E+00  7.750562420E+01  7.770545002E+01  9.536743164E-07  0.00000E+00  9.000E+00
      21     1     1     2   515   511 -5.600116518E+00 -7.327128773E+00  5.802474711E+02  5.803207525E+02  1.321449896E-05  0.00000E+00  9.000E+00
</event>
<event>
      5  10001  2.40292E+09  7.34832E+00 -1.00000E+00  2.12546E-01
      21    -1     0     0   513   511  0.000000000E+00  0.000000000E+00  9.175954377E-01  9.175954377E-01  0.000000000E+00  0.00000E+00  9.000E+00
      21    -1     0     0   515   512  0.000000000E+00  0.000000000E+00 -6.315884129E+02  6.315884129E+02  0.000000000E+00  0.00000E+00  9.000E+00
      21     1     1     2   513   517 -1.575343833E+01  5.441023849E-01 -2.640680932E+02  2.645381347E+02  6.607249480E-06  0.00000E+00  9.000E+00
      21     1     1     2   515   511  8.547928073E+00  8.975780914E-01 -2.809258828E+01  2.937798899E+01  1.685873940E-06  0.00000E+00  9.000E+00
      21     1     1     2   517   512  7.205510255E+00 -1.441680476E+00 -3.385101359E+02  3.385898846E+02  6.607249480E-06  0.00000E+00  9.000E+00
</event>
<event>
      5  10001  2.40292E+09  9.81579E+00 -1.00000E+00  1.96636E-01
       2    -1     0     0   515     0  0.000000000E+00  0.000000000E+00  1.246344535E+02  1.246344535E+02  0.000000000E+00  0.00000E+00  9.000E+00
      21    -1     0     0   514   512  0.000000000E+00  0.000000000E+00 -1.985936731E+00  1.985936731E+00  0.000000000E+00  0.00000E+00  9.000E+00
      21     1     1     2   515   512 -3.813317114E-01  9.801640184E+00  1.450891199E+01  1.751359732E+01  3.371747881E-07  0.00000E+00  9.000E+00
       2     1     1     2   511     0  5.394413743E+00 -4.642369596E+00  6.231803652E+01  6.272398162E+01  3.300000131E-01  0.00000E+00  9.000E+00
      21     1     1     2   514   511 -5.013082031E+00 -5.159270588E+00  4.582156824E+01  4.638281126E+01  6.743495762E-07  0.00000E+00  9.000E+00
</event>
<event>
      5  10001  2.40292E+09  1.31414E+01 -1.00000E+00  1.82922E-01
      21    -1     0     0   513   511  0.000000000E+00  0.000000000E+00  3.028382581E+01  3.028382581E+01  0.000000000E+00  0.00000E+00  9.000E+00
      21    -1     0     0   514   513  0.000000000E+00  0.000000000E+00 -2.071914650E+02  2.071914650E+02  0.000000000E+00  0.00000E+00  9.000E+00
      21     1     1     2   514   516  1.856048798E+01 -1.678133495E+01 -1.971350047E+02  1.987166702E+02  4.672030912E-06  0.00000E+00  9.000E+00
      21     1     1     2   516   512 -1.322143073E+01  3.352698604E+00  2.011939228E+01  2.430713401E+01  1.651812370E-06  0.00000E+00  9.000E+00
      21     1     1     2   512   511 -5.339057254E+00  1.342863635E+01  1.079732847E-01  1.445148659E+01  5.571115282E-07  0.00000E+00  9.000E+00
</event>
<event>
      5  10001  2.40292E+09  7.15924E+00 -1.00000E+00  2.14112E-01
       1    -1     0     0   515     0  0.000000000E+00  0.000000000E+00  5.760702718E+02  5.760702718E+02  0.000000000E+00  0.00000E+00  9.000E+00
      21    -1     0     0   512   513  0.000000000E+00  0.000000000E+00 -1.081440965E+00  1.081440965E+00  0.000000000E+00  0.00000E+00  9.000E+00
      21     1     1     2   515   513  3.628092492E+00  1.704737077E+01  9.164181027E+01  9.328449654E+01  1.348699152E-06  0.00000E+00  9.000E+00
       1     1     1     2   514     0 -7.964995913E+00 -1.367566434E+01  4.141834061E+02  4.144857872E+02  3.300000131E-01  0.00000E+00  9.000E+00
      21     1     1     2   512   514  4.336903420E+00 -3.371706430E+00  6.916361443E+01  6.938142905E+01  0.000000000E+00  0.00000E+00  9.000E+00
</event>
<event>
      5  10001  2.40292E+09  6.80985E+00 -1.00000E+00  2.17186E-01
      21    -1     0     0   511   513  0.000000000E+00  0.000000000E+00  4.732419583E+00  4.732419583E+00  0.000000000E+00  0.00000E+00  9.000E+00
      21    -1     0     0   512   511  0.000000000E+00  0.000000000E+00 -7.093991784E+01  7.093991784E+01  0.000000000E+00  0.00000E+00  9.000E+00
      21     1     1     2   512   516 -2.471583912E+00  1.427589105E+01 -4.953808569E+01  5.161329021E+01  0.000000000E+00  0.00000E+00  9.000E+00
      21     1     1     2   516   515 -1.755731304E+00 -9.205758984E+00 -4.926018375E+00  1.058745710E+01  1.976862425E-07  0.00000E+00  9.000E+00
      21     1     1     2   515   513  4.227315215E+00 -5.070132061E+00 -1.174339419E+01  1.347159011E+01  1.685873940E-07  0.00000E+00  9.000E+00
</event>
<event>
      5  10001  2.40292E+09  1.16699E+01 -1.00000E+00  1.88257E-01
       2    -1     0     0   515     0  0.000000000E+00  0.000000000E+00  5.150429694E+01  5.150429694E+01  0.000000000E+00  0.00000E+00  9.000E+00
      21    -1     0     0   514   511  0.000000000E+00  0.000000000E+00 -1.008657764E+01  1.008657764E+01  0.000000000E+00  0.00000E+00  9.000E+00
      21     1     1     2   515   511  3.019656191E+00  1.651890132E+01  4.383718118E+00  1.735538559E+01  8.429369702E-08  0.00000E+00  9.000E+00
       2     1     1     2   512     0 -2.603922247E+00 -1.006695900E+01  3.626125390E+01  3.772415021E+01  3.300000131E-01  0.00000E+00  9.000E+00
      21     1     1     2   514   512 -4.157339439E-01 -6.451942320E+00  7.727472761E-01  6.511338785E+00  1.369772577E-07  0.00000E+00  9.000E+00
</event>
<event>
      5  10001  2.40292E+09  1.10095E+01 -1.00000E+00  1.90994E-01
      -2    -1     0     0     0   513  0.000000000E+00  0.000000000E+00  1.020091990E+00  1.020091990E+00  0.000000000E+00  0.00000E+00  9.000E+00
       2    -1     0     0   513     0  0.000000000E+00  0.000000000E+00 -2.755730514E+02  2.755730514E+02  0.000000000E+00  0.00000E+00  9.000E+00
      -2     1     1     2     0   511 -3.869734793E+00 -3.555775491E+00 -9.049008738E+00  1.046956761E+01  3.300000131E-01  0.00000E+00  9.000E+00
       2     1     1     2   514     0  1.539162690E+00  1.033787985E+01 -1.872312403E+02  1.875230307E+02  3.300000131E-01  0.00000E+00  9.000E+00
      21     1     1     2   511   514  2.330572103E+00 -6.782104357E+00 -7.827271029E+01  7.860054505E+01  9.536743164E-07  0.00000E+00  9.000E+00
</event>
<event>
      5  10001  2.40292E+09  7.67310E+00 -1.00000E+00  2.10001E-01
       2    -1     0     0   512     0  0.000000000E+00  0.000000000E+00  1.234264718E+02  1.234264718E+02  0.000000000E+00  0.00000E+00  9.000E+00
      21    -1     0     0   513   512  0.000000000E+00  0.000000000E+00 -1.620620311E+01  1.620620311E+01  0.000000000E+00  0.00000E+00  9.000E+00
      21     1     1     2   513   515  2.967939906E+00 -1.049172433E+01 -1.256922137E+01  1.663941924E+01  2.920019320E-07  0.00000E+00  9.000E+00
      21     1     1     2   515   511  4.691934238E+00  1.004360406E+01  1.966249444E+01  2.257214914E+01  2.384185791E-07  0.00000E+00  9.000E+00
       2     1     1     2   511     0 -7.659874144E+00  4.481202695E-01  1.001269956E+02  1.004211065E+02  3.300000131E-01  0.00000E+00  9.000E+00
</event>
<event>
      5  10001  2.40292E+09  2.54203E+00 -1.00000E+00  3.20391E-01
      21    -1     0     0   514   515  0.000000000E+00  0.000000000E+00  2.014031282E+01  2.014031282E+01  0.000000000E+00  0.00000E+00  9.000E+00
      21    -1     0     0   513   516  0.000000000E+00  0.000000000E+00 -9.929573368E+00  9.929573368E+00  0.000000000E+00  0.00000E+00  9.000E+00
      21     1     1     2   514   516 -3.270243351E+00 -9.599614071E+00 -4.986994060E+00  1.130120311E+01  3.526258339E-07  0.00000E+00  9.000E+00
      21     1     1     2   513   512  3.780873763E+00  6.198220019E+00  1.224488029E+01  1.423552005E+01  0.000000000E+00  0.00000E+00  9.000E+00
      21     1     1     2   512   515 -5.106304121E-01  3.401394052E+00  2.952853224E+00  4.533163032E+00  1.115100797E-07  0.00000E+00  9.000E+00
</event>
<event>
      5  10001  2.40292E+09  1.79593E+01 -1.00000E+00  1.70276E-01
      21    -1     0     0   511   512  0.000000000E+00  0.000000000E+00  6.708750225E+00  6.708750225E+00  0.000000000E+00  0.00000E+00  9.000E+00
      21    -1     0     0   512   514  0.000000000E+00  0.000000000E+00 -5.142535672E+01  5.142535672E+01  0.000000000E+00  0.00000E+00  9.000E+00
      21     1     1     2   513   514 -1.472610075E+01  3.350918876E+00 -2.764357912E+01  3.150006615E+01  4.768371582E-07  0.00000E+00  9.000E+00
       5     1     1     2   511     0  6.671254717E+00 -4.869465555E-01 -1.709305028E+00  8.408595719E+00  4.800000191E+00  0.00000E+00  9.000E+00
      -5     1     1     2     0   513  8.054846037E+00 -2.863972321E+00 -1.536372235E+01  1.822544508E+01  4.800000191E+00  0.00000E+00  9.000E+00
</event>
<event>
      5  10001  2.40292E+09  6.24657E+01 -1.00000E+00  1.33749E-01
      21    -1     0     0   515   514  0.000000000E+00  0.000000000E+00  7.715970660E+01  7.715970660E+01  0.000000000E+00  0.00000E+00  9.000E+00
      21    -1     0     0   512   513  0.000000000E+00  0.000000000E+00 -1.581871716E+02  1.581871716E+02  0.000000000E+00  0.00000E+00  9.000E+00
      21     1     1     2   515   513  1.673247685E+01  1.541053116E+01 -1.159699651E+02  1.181799182E+02  0.000000000E+00  0.00000E+00  9.000E+00
      21     1     1     2   511   514  8.753930549E+00 -1.497405241E+01  7.095603987E+01  7.304528144E+01  3.568322551E-06  0.00000E+00  9.000E+00
      21     1     1     2   512   511 -2.548640740E+01 -4.364787534E-01 -3.601353976E+01  4.412167860E+01  4.768371582E-07  0.00000E+00  9.000E+00
</event>
<event>
      5  10001  2.40292E+09  4.53297E+00 -1.00000E+00  2.51196E-01
      21    -1     0     0   516   511  0.000000000E+00  0.000000000E+00  8.382137882E+00  8.382137882E+00  0.000000000E+00  0.00000E+00  9.000E+00
      21    -1     0     0   512   517  0.000000000E+00  0.000000000E+00 -5.148545871E+01  5.148545871E+01  0.000000000E+00  0.00000E+00  9.000E+00
      21     1     1     2   516   517  5.221467009E+00  8.176181648E+00 -4.368081252E+01  4.474513434E+01  0.000000000E+00  0.00000E+00  9.000E+00
      21     1     1     2   513   511 -4.205947588E+00 -5.830569634E+00  5.846346774E+00  9.266353542E+00  5.057621821E-07  0.00000E+00  9.000E+00
      21     1     1     2   512   513 -1.015519421E+00 -2.345612014E+00 -5.268855081E+00  5.856108714E+00  0.000000000E+00  0.00000E+00  9.000E+00
</event>
<event>
      5  10001  2.40292E+09  1.56378E+01 -1.00000E+00  1.75650E-01
      21    -1     0     0   514   511  0.000000000E+00  0.000000000E+00  1.159270070E+01  1.159270070E+01  0.000000000E+00  0.00000E+00  9.000E+00
      21    -1     0     0   512   515  0.000000000E+00  0.000000000E+00 -3.182267219E+02  3.182267219E+02  0.000000000E+00  0.00000E+00  9.000E+00
      21     1     1     2   513   511  1.869671793E+00 -1.102009738E+01  6.596173348E+00  1.297874115E+01  6.848052319E-07  0.00000E+00  9.000E+00
      21     1     1     2   512   513 -2.943923003E+00  2.662090982E+01 -2.595756575E+02  2.609537535E+02  0.000000000E+00  0.00000E+00  9.000E+00
      21     1     1     2   514   515  1.074251210E+00 -1.560081243E+01 -5.365453707E+01  5.588692792E+01  9.536743164E-07  0.00000E+00  9.000E+00
</event>
<event>
      5  10001  2.40292E+09  5.30486E+00 -1.00000E+00  2.34026E-01
      21    -1     0     0   516   512  0.000000000E+00  0.000000000E+00  5.031305800E+01  5.031305800E+01  0.000000000E+00  0.00000E+00  9.000E+00
      21    -1     0     0   511   517  0.000000000E+00  0.000000000E+00 -3.555632975E+01  3.555632975E+01  0.000000000E+00  0.00000E+00  9.000E+00
      21     1     1     2   516   517  1.560199437E+00 -1.194346512E+01  4.786882343E+01  4.936096472E+01  6.743495762E-07  0.00000E+00  9.000E+00
      21     1     1     2   513   512 -4.576880303E-01  5.527671175E+00 -2.705094972E+01  2.761373766E+01  5.840038640E-07  0.00000E+00  9.000E+00
      21     1     1     2   511   513 -1.102511407E+00  6.415793948E+00 -6.061145463E+00  8.894685363E+00  1.460009660E-07  0.00000E+00  9.000E+00
</event>
<event>
      5  10001  2.40292E+09  1.45001E+01 -1.00000E+00  1.78733E-01
      21    -1     0     0   514   513  0.000000000E+00  0.000000000E+00  1.237696291E+02  1.237696291E+02  0.000000000E+00  0.00000E+00  9.000E+00
      21    -1     0     0   511   514  0.000000000E+00  0.000000000E+00 -1.760805780E+01  1.760805780E+01  0.000000000E+00  0.00000E+00  9.000E+00
      21     1     1     2   511   515  1.641831085E+01  5.151614927E+00 -9.942183137E+00  1.987327535E+01  5.331201500E-07  0.00000E+00  9.000E+00
      21     1     1     2   512   513 -8.361405250E+00 -4.143209903E+00  1.120337460E+02  1.124217040E+02  2.336015456E-06  0.00000E+00  9.000E+00
      21     1     1     2   515   512 -8.056905600E+00 -1.008405024E+00  4.070008510E+00  9.082707625E+00  1.685873940E-07  0.00000E+00  9.000E+00
</event>
<event>
      5  10001  2.40292E+09  6.54762E+00 -1.00000E+00  2.19664E-01
       3    -1     0     0   513     0  0.000000000E+00  0.000000000E+00  1.352999472E+00  1.352999472E+00  0.000000000E+00  0.00000E+00  9.000E+00
       2    -1     0     0   511     0  0.000000000E+00  0.000000000E+00 -7.172873143E+02  7.172873143E+02  0.000000000E+00  0.00000E+00  9.000E+00
       2     1     1     2   515     0  8.114642936E+00  4.765410730E+00 -6.099124041E+02  6.099850868E+02  3.300000131E-01  0.00000E+00  9.000E+00
       3     1     1     2   511     0 -1.034740966E+01 -1.091958219E+01 -9.144793215E+01  9.267837103E+01  5.000000000E-01  0.00000E+00  9.000E+00
      21     1     1     2   513   515  2.232766726E+00  6.154171458E+00 -1.457397858E+01  1.597685592E+01  4.768371582E-07  0.00000E+00  9.000E+00
</event>
<event>
      5  10001  2.40292E+09  1.07962E+01 -1.00000E+00  1.91932E-01
      21    -1     0     0   512   511  0.000000000E+00  0.000000000E+00  2.995994749E+01  2.995994749E+01  0.000000000E+00  0.00000E+00  9.000E+00
      21    -1     0     0   515   514  0.000000000E+00  0.000000000E+00 -6.574913143E+00  6.574913143E+00  0.000000000E+00  0.00000E+00  9.000E+00
      21     1     1     2   512   514  9.380266459E+00  2.856358850E+00  8.652832487E-01  9.843622291E+00  6.909384203E-08  0.00000E+00  9.000E+00
      -4     1     1     2     0   511 -5.420340565E+00 -4.935136222E+00  6.243226733E+00  9.744923879E+00  1.500000000E+00  0.00000E+00  9.000E+00
       4     1     1     2   515     0 -3.959925894E+00  2.078777372E+00  1.627652436E+01  1.694631446E+01  1.500000000E+00  0.00000E+00  9.000E+00
</event>
<event>
      5  10001  2.40292E+09  6.32763E+00 -1.00000E+00  2.21869E-01
       1    -1     0     0   515     0  0.000000000E+00  0.000000000E+00  2.054853832E+02  2.054853832E+02  0.000000000E+00  0.00000E+00  9.000E+00
      -3    -1     0     0     0   513  0.000000000E+00  0.000000000E+00 -2.222066412E+01  2.222066412E+01  0.000000000E+00  0.00000E+00  9.000E+00
      -3     1     1     2     0   511 -9.141773722E+00 -7.543789967E+00 -1.782471637E+01  2.141147607E+01  5.000000000E-01  0.00000E+00  9.000E+00
      21     1     1     2   515   513  1.515921383E+01  9.500191693E+00  2.890399417E+01  3.399259162E+01  5.840038640E-07  0.00000E+00  9.000E+00
       1     1     1     2   511     0 -6.017440106E+00 -1.956401726E+00  1.721854413E+02  1.723019796E+02  3.300000131E-01  0.00000E+00  9.000E+00
</event>
<event>
      5  10001  2.40292E+09  8.41924E+00 -1.00000E+00  2.04748E-01
      21    -1     0     0   512   516  0.000000000E+00  0.000000000E+00  4.332356200E+00  4.332356200E+00  0.000000000E+00  0.00000E+00  9.000E+00
      21    -1     0     0   511   514  0.000000000E+00  0.000000000E+00 -4.080631353E+01  4.080631353E+01  0.000000000E+00  0.00000E+00  9.000E+00
      21     1     1     2   512   514 -6.820514080E+00  7.304106052E+00 -3.044811355E+01  3.204616976E+01  3.371747881E-07  0.00000E+00  9.000E+00
      21     1     1     2   513   516  3.184683475E+00  9.046309718E-02 -6.434630282E-01  3.250297998E+00  6.098563054E-08  0.00000E+00  9.000E+00
      21     1     1     2   511   513  3.635830605E+00 -7.394569149E+00 -5.382380751E+00  9.842201971E+00  0.000000000E+00  0.00000E+00  9.000E+00
</event>
<event>
      5  10001  2.40292E+09  4.69892E+00 -1.00000E+00  2.47915E-01
       2    -1     0     0   511     0  0.000000000E+00  0.000000000E+00  4.133570615E+02  4.133570615E+02  0.000000000E+00  0.00000E+00  9.000E+00
       3    -1     0     0   515     0  0.000000000E+00  0.000000000E+00 -6.685047100E+00  6.685047100E+00  0.000000000E+00  0.00000E+00  9.000E+00
      21     1     1     2   511   513 -7.854794468E+00 -8.572088919E+00  1.385150792E+02  1.390021787E+02  1.907348633E-06  0.00000E+00  9.000E+00
       2     1     1     2   515     0  6.668349179E+00  1.311857268E+01  2.735064813E+02  2.739022965E+02  3.300000131E-01  0.00000E+00  9.000E+00
       3     1     1     2   513     0  1.186445288E+00 -4.546483763E+00 -5.349546112E+00  7.137633406E+00  5.000000000E-01  0.00000E+00  9.000E+00
</event>
<event>
      5  10001  2.40292E+09  4.12854E+00 -1.00000E+00  2.60170E-01
       2    -1     0     0   513     0  0.000000000E+00  0.000000000E+00  4.560251410E+02  4.560251410E+02  0.000000000E+00  0.00000E+00  9.000E+00
      21    -1     0     0   512   511  0.000000000E+00  0.000000000E+00 -6.510367381E-01  6.510367381E-01  0.000000000E+00  0.00000E+00  9.000E+00
      21     1     1     2   513   514  8.076632746E+00 -3.503381814E+00  9.491733034E+01  9.532473593E+01  1.348699152E-06  0.00000E+00  9.000E+00
       2     1     1     2   512     0 -9.194437419E+00  7.477286315E+00  3.485092096E+02  3.487108051E+02  3.300000131E-01  0.00000E+00  9.000E+00
      21     1     1     2   514   511  1.117804672E+00 -3.973904502E+00  1.194756435E+01  1.264063678E+01  5.840038640E-07  0.00000E+00  9.000E+00
</event>
<event>
      5  10001  2.40292E+09  3.43614E+00 -1.00000E+00  2.79932E-01
      21    -1     0     0   515   511  0.000000000E+00  0.000000000E+00  2.842752781E+00  2.842752781E+00  0.000000000E+00  0.00000E+00  9.000E+00
      21    -1     0     0   514   512  0.000000000E+00  0.000000000E+00 -5.909998162E+02  5.909998162E+02  0.000000000E+00  0.00000E+00  9.000E+00
      21     1     1     2   515   516  1.212526969E+00  1.408589034E+01 -1.338276193E+02  1.345723383E+02  1.907348633E-06  0.00000E+00  9.000E+00
      21     1     1     2   514   511 -4.357312636E+00 -1.547058250E+01 -2.375130902E+01  2.867838518E+01  7.539457465E-07  0.00000E+00  9.000E+00
      21     1     1     2   516   512  3.144785667E+00  1.384692163E+00 -4.305781350E+02  4.305918455E+02  5.394796609E-06  0.00000E+00  9.000E+00
</event>
<event>
      5  10001  2.40292E+09  6.06323E+00 -1.00000E+00  2.24689E-01
       1    -1     0     0   513     0  0.000000000E+00  0.000000000E+00  2.414933674E+02  2.414933674E+02  0.000000000E+00  0.00000E+00  9.000E+00
      21    -1     0     0   517   513  0.000000000E+00  0.000000000E+00 -1.524492331E+02  1.524492331E+02  0.000000000E+00  0.00000E+00  9.000E+00
      21     1     1     2   517   512 -5.169270737E+00 -1.331329997E+01 -1.518696919E+02  1.525397280E+02  4.672030912E-06  0.00000E+00  9.000E+00
      21     1     1     2   512   514  5.032823972E+00  7.251613368E+00  1.126015654E+02  1.129470130E+02  0.000000000E+00  0.00000E+00  9.000E+00
       1     1     1     2   514     0  1.364467656E-01  6.061686597E+00  1.283122608E+02  1.284558595E+02  3.300000131E-01  0.00000E+00  9.000E+00
</event>
<event>
      5  10001  2.40292E+09  1.10055E+01 -1.00000E+00  1.91011E-01
      21    -1     0     0   514   515  0.000000000E+00  0.000000000E+00  1.273944903E+00  1.273944903E+00  0.000000000E+00  0.00000E+00  9.000E+00
      21    -1     0     0   511   514  0.000000000E+00  0.000000000E+00 -1.814902774E+02  1.814902774E+02  0.000000000E+00  0.00000E+00  9.000E+00
      21     1     1     2   512   515  2.349519956E+00 -4.366329304E+00 -4.936531469E+00  6.996743425E+00  5.527507362E-07  0.00000E+00  9.000E+00
       4     1     1     2   511     0  1.461576989E-02  8.199955617E+00 -1.106121196E+02  1.109257882E+02  1.500000000E+00  0.00000E+00  9.000E+00
      -4     1     1     2     0   512 -2.364135726E+00 -3.833626314E+00 -6.466768137E+01  6.484169062E+01  1.500000000E+00  0.00000E+00  9.000E+00
</event>
<event>
      5  10001  2.40292E+09  5.33779E+00 -1.00000E+00  2.33576E-01
      21    -1     0     0   513   511  0.000000000E+00  0.000000000E+00  7.333778295E+00  7.333778295E+00  0.000000000E+00  0.00000E+00  9.000E+00
      21    -1     0     0   514   512  0.000000000E+00  0.000000000E+00 -9.408113097E+01  9.408113097E+01  0.000000000E+00  0.00000E+00  9.000E+00
      21     1     1     2   513   512  1.005078703E+01 -5.557684385E+00 -5.138321546E+00  1.258207153E+01  3.424026159E-07  0.00000E+00  9.000E+00
      21     1     1     2   515   511 -5.890055242E+00  8.901385890E+00 -4.572918111E+00  1.161201970E+01  3.153981341E-07  0.00000E+00  9.000E+00
      21     1     1     2   514   515 -4.160731790E+00 -3.343701505E+00 -7.703611302E+01  7.722081803E+01  1.348699152E-06  0.00000E+00  9.000E+00
</event>
<event>
      5  10001  2.40292E+09  1.15101E+01 -1.00000E+00  1.88897E-01
      21    -1     0     0   516   512  0.000000000E+00  0.000000000E+00  9.798967883E+00  9.798967883E+00  0.000000000E+00  0.00000E+00  9.000E+00
      21    -1     0     0   514   517  0.000000000E+00  0.000000000E+00 -1.540298116E+02  1.540298116E+02  0.000000000E+00  0.00000E+00  9.000E+00
      21     1     1     2   516   517 -1.099299974E+01 -1.159305730E+01 -1.411127498E+02  1.420142710E+02  1.907348633E-06  0.00000E+00  9.000E+00
      21     1     1     2   511   512  5.050127194E-01  6.004557179E+00  4.654801821E+00  7.614257991E+00  3.526258339E-07  0.00000E+00  9.000E+00
      21     1     1     2   514   511  1.048798702E+01  5.588500121E+00 -7.772895774E+00  1.420025049E+01  3.862822472E-07  0.00000E+00  9.000E+00
</event>
<event>
      5  10001  2.40292E+09  3.30703E+00 -1.00000E+00  2.84464E-01
      21    -1     0     0   513   511  0.000000000E+00  0.000000000E+00  6.241071917E+00  6.241071917E+00  0.000000000E+00  0.00000E+00  9.000E+00
      21    -1     0     0   514   515  0.000000000E+00  0.000000000E+00 -2.042259494E+01  2.042259494E+01  0.000000000E+00  0.00000E+00  9.000E+00
      21     1     1     2   513   515 -1.030523980E+01  3.669366451E+00 -1.004503106E+01  1.485142642E+01  0.000000000E+00  0.00000E+00  9.000E+00
      21     1     1     2   512   511  2.006675855E+00 -3.394338035E-01 -2.086765490E-01  2.045851704E+00  5.618893776E-08  0.00000E+00  9.000E+00
      21     1     1     2   514   512  8.298563947E+00 -3.329932648E+00 -3.927815408E+00  9.766388734E+00  1.032382731E-07  0.00000E+00  9.000E+00
</event>
<event>
      5  10001  2.40292E+09  1.28654E+01 -1.00000E+00  1.83852E-01
      -4    -1     0     0     0   513  0.000000000E+00  0.000000000E+00  1.949154717E+02  1.949154717E+02  0.000000000E+00  0.00000E+00  9.000E+00
      -1    -1     0     0     0   511  0.000000000E+00  0.000000000E+00 -1.495567186E+01  1.495567186E+01  0.000000000E+00  0.00000E+00  9.000E+00
      -4     1     1     2     0   511  1.171330486E+01 -2.625612137E+01  1.331432498E+02  1.362202642E+02  1.500000000E+00  0.00000E+00  9.000E+00
      -1     1     1     2     0   512 -2.261301211E-01  3.204218208E+01  8.384173931E+00  3.312334282E+01  3.300000131E-01  0.00000E+00  9.000E+00
      21     1     1     2   512   513 -1.148717474E+01 -5.786060711E+00  3.843237615E+01  4.052753655E+01  6.743495762E-07  0.00000E+00  9.000E+00
</event>
<event>
      5  10001  2.40292E+09  9.39079E+00 -1.00000E+00  1.98906E-01
      21    -1     0     0   512   513  0.000000000E+00  0.000000000E+00  9.784653393E-01  9.784653393E-01  0.000000000E+00  0.00000E+00  9.000E+00
       2    -1     0     0   514     0  0.000000000E+00  0.000000000E+00 -2.687241430E+02  2.687241430E+02  0.000000000E+00  0.00000E+00  9.000E+00
      21     1     1     2   514   513 -6.908820979E+00 -8.443909984E+00 -4.475620965E+01  4.606679634E+01  1.261592536E-06  0.00000E+00  9.000E+00
       2     1     1     2   511     0  1.200076011E+00  6.559713356E+00 -1.890617013E+02  1.891795598E+02  3.300000131E-01  0.00000E+00  9.000E+00
      21     1     1     2   512   511  5.708744967E+00  1.884196628E+00 -3.392776664E+01  3.445625220E+01  8.259061849E-07  0.00000E+00  9.000E+00
</event>
<event>
      5  10001  2.40292E+09  6.97835E+00 -1.00000E+00  2.15673E-01
      21    -1     0     0   515   511  0.000000000E+00  0.000000000E+00  3.817952472E+01  3.817952472E+01  0.000000000E+00  0.00000E+00  9.000E+00
      21    -1     0     0   513   516  0.000000000E+00  0.000000000E+00 -4.306069035E+01  4.306069035E+01  0.000000000E+00  0.00000E+00  9.000E+00
      21     1     1     2   515   516  3.642661824E+01  1.352513551E+01 -1.280320811E+01  4.091148916E+01  2.384185791E-07  0.00000E+00  9.000E+00
      21     1     1     2   513   514 -1.767795548E+01 -1.030675701E+01  5.186377929E+00  2.111013658E+01  6.690604782E-07  0.00000E+00  9.000E+00
      21     1     1     2   514   511 -1.874866276E+01 -3.218378499E+00  2.735664556E+00  1.921858933E+01  5.057621821E-07  0.00000E+00  9.000E+00
</event>
<event>
      5  10001  2.40292E+09  3.78933E+00 -1.00000E+00  2.69019E-01
      21    -1     0     0   512   513  0.000000000E+00  0.000000000E+00  1.658652494E+01  1.658652494E+01  0.000000000E+00  0.00000E+00  9.000E+00
      21    -1     0     0   511   512  0.000000000E+00  0.000000000E+00 -8.328242208E+01  8.328242208E+01  0.000000000E+00  0.00000E+00  9.000E+00
      21     1     1     2   511   517 -8.842328839E+00  8.565858671E+00 -8.042969523E+01  8.136643404E+01  1.348699152E-06  0.00000E+00  9.000E+00
      21     1     1     2   515   513  7.593707271E-01 -8.631111280E-01  1.989248777E+00  2.297545520E+00  1.429269172E-07  0.00000E+00  9.000E+00
      21     1     1     2   517   515  8.082958112E+00 -7.702747543E+00  1.174454931E+01  1.620496745E+01  1.168007728E-06  0.00000E+00  9.000E+00
</event>
<event>
      5  10001  2.40292E+09  1.38709E+01 -1.00000E+00  1.80597E-01
      21    -1     0     0   514   513  0.000000000E+00  0.000000000E+00  1.341568051E+01  1.341568051E+01  0.000000000E+00  0.00000E+00  9.000E+00
       3    -1     0     0   515     0  0.000000000E+00  0.000000000E+00 -2.578230964E+01  2.578230964E+01  0.000000000E+00  0.00000E+00  9.000E+00
      21     1     1     2   511   513  5.529905347E+00 -1.234995361E+01  6.190547990E-01  1.354564270E+01  3.570841839E-07  0.00000E+00  9.000E+00
       3     1     1     2   514     0  2.871583615E+00  1.227706756E+01 -1.159408039E+01  1.713607540E+01  5.000000000E-01  0.00000E+00  9.000E+00
      21     1     1     2   515   511 -8.401488962E+00  7.288605445E-02 -1.391603541E+00  8.516272046E+00  1.316034923E-07  0.00000E+00  9.000E+00
</event>
<event>
      5  10001  2.40292E+09  7.59756E+00 -1.00000E+00  2.10577E-01
       2    -1     0     0   515     0  0.000000000E+00  0.000000000E+00  4.084396619E+02  4.084396619E+02  0.000000000E+00  0.00000E+00  9.000E+00
      21    -1     0     0   512   514  0.000000000E+00  0.000000000E+00 -6.974696004E-01  6.974696004E-01  0.000000000E+00  0.00000E+00  9.000E+00
      21     1     1     2   515   514 -9.231244960E+00  4.296781392E+00  4.368202661E+01  4.485306748E+01  1.168007728E-06  0.00000E+00  9.000E+00
       2     1     1     2   513     0  2.625836883E+00 -5.401237296E+00  1.896961726E+02  1.897915045E+02  3.300000131E-01  0.00000E+00  9.000E+00
      21     1     1     2   512   513  6.605408077E+00  1.104455904E+00  1.743639932E+02  1.744925596E+02  1.907348633E-06  0.00000E+00  9.000E+00
</event>
<event>
      5  10001  2.40292E+09  2.50407E+00 -1.00000E+00  3.22742E-01
      21    -1     0     0   514   511  0.000000000E+00  0.000000000E+00  1.144092132E+01  1.144092132E+01  0.000000000E+00  0.00000E+00  9.000E+00
       3    -1     0     0   511     0  0.000000000E+00  0.000000000E+00 -6.603225163E+01  6.603225163E+01  0.000000000E+00  0.00000E+00  9.000E+00
      -4     1     1     2     0   512  4.270701818E+00  8.324955715E+00 -2.416831338E+00  9.779307511E+00  1.500000000E+00  0.00000E+00  9.000E+00
       3     1     1     2   512     0 -2.807314770E+00 -1.034747730E+01 -5.915989310E+01  6.012565388E+01  5.000000000E-01  0.00000E+00  9.000E+00
       4     1     1     2   514     0 -1.463387048E+00  2.022521587E+00  6.985394124E+00  7.568211565E+00  1.500000000E+00  0.00000E+00  9.000E+00
</event>
<event>
      5  10001  2.40292E+09  7.23250E+00 -1.00000E+00  2.13497E-01
      21    -1     0     0   513   515  0.000000000E+00  0.000000000E+00  6.369888858E+00  6.369888858E+00  0.000000000E+00  0.00000E+00  9.000E+00
      21    -1     0     0   515   514  0.000000000E+00  0.000000000E+00 -1.742504754E+01  1.742504754E+01  0.000000000E+00  0.00000E+00  9.000E+00
      -4     1     1     2     0   511 -5.737681559E+00 -2.023325417E+00 -5.393927766E+00  8.267967838E+00  1.500000000E+00  0.00000E+00  9.000E+00
       4     1     1     2   513     0  8.268011736E+00 -2.818254688E+00 -2.472065352E+00  9.201287119E+00  1.500000000E+00  0.00000E+00  9.000E+00
      21     1     1     2   511   514 -2.530330177E+00  4.841580105E+00 -3.189165566E+00  6.325681443E+00  7.300048300E-08  0.00000E+00  9.000E+00
</event>
<event>
      5  10001  2.40292E+09  6.94645E+00 -1.00000E+00  2.15954E-01
      21    -1     0     0   512   513  0.000000000E+00  0.000000000E+00  4.540915831E+01  4.540915831E+01  0.000000000E+00  0.00000E+00  9.000E+00
      21    -1     0     0   511   516  0.000000000E+00  0.000000000E+00 -4.912204733E+01  4.912204733E+01  0.000000000E+00  0.00000E+00  9.000E+00
      21     1     1     2   512   516 -6.201110440E+00 -1.214247896E+01 -4.128915144E+01  4.348203759E+01  1.066240300E-06  0.00000E+00  9.000E+00
      21     1     1     2   511   514  9.077601142E+00  5.819584657E+00 -1.915017573E+00  1.095160721E+01  2.159383408E-07  0.00000E+00  9.000E+00
      21     1     1     2   514   513 -2.876490702E+00  6.322894299E+00  3.949127999E+01  4.009756086E+01  0.000000000E+00  0.00000E+00  9.000E+00
</event>
<event>
      5  10001  2.40292E+09  1.07133E+01 -1.00000E+00  1.92304E-01
      21    -1     0     0   511   513  0.000000000E+00  0.000000000E+00  4.935001816E+01  4.935001816E+01  0.000000000E+00  0.00000E+00  9.000E+00
       1    -1     0     0   512     0  0.000000000E+00  0.000000000E+00 -1.034096918E+02  1.034096918E+02  0.000000000E+00  0.00000E+00  9.000E+00
      21     1     1     2   511   514  1.187779517E+01  1.245207197E+01  4.031508425E+01  4.383425752E+01  4.768371582E-07  0.00000E+00  9.000E+00
       1     1     1     2   514     0 -1.887109982E+01 -4.336428150E+00 -6.540691497E+00  2.044046386E+01  3.300000131E-01  0.00000E+00  9.000E+00
      21     1     1     2   512   513  6.993304655E+00 -8.115643817E+00 -8.783406638E+01  8.848498856E+01  9.536743164E-07  0.00000E+00  9.000E+00
</event>
<event>
      5  10001  2.40292E+09  7.09646E+00 -1.00000E+00  2.14646E-01
      21    -1     0     0   515   514  0.000000000E+00  0.000000000E+00  3.990520909E+01  3.990520909E+01  0.000000000E+00  0.00000E+00  9.000E+00
      21    -1     0     0   512   513  0.000000000E+00  0.000000000E+00 -2.108841052E+01  2.108841052E+01  0.000000000E+00  0.00000E+00  9.000E+00
      21     1     1     2   515   513 -8.405139764E-01 -1.254474550E+01 -1.663626017E+01  2.085287165E+01  6.307962682E-07  0.00000E+00  9.000E+00
      21     1     1     2   512   511 -3.016995817E+00  7.774355000E+00  3.206666759E+01  3.313327678E+01  6.743495762E-07  0.00000E+00  9.000E+00
      21     1     1     2   511   514  3.857509793E+00  4.770390502E+00  3.386391151E+00  7.007471182E+00  8.429369702E-08  0.00000E+00  9.000E+00
</event>
<event>
      5  10001  2.40292E+09  5.34250E+00 -1.00000E+00  2.33512E-01
      21    -1     0     0   513   512  0.000000000E+00  0.000000000E+00  2.190292370E+02  2.190292370E+02  0.000000000E+00  0.00000E+00  9.000E+00
      21    -1     0     0   514   516  0.000000000E+00  0.000000000E+00 -1.765013680E+02  1.765013680E+02  0.000000000E+00  0.00000E+00  9.000E+00
      21     1     1     2   514   517 -1.085372715E+00 -1.214992479E+01 -5.829697897E+01  5.955952034E+01  9.536743164E-07  0.00000E+00  9.000E+00
      21     1     1     2   517   512 -3.335979224E+00  9.150925596E+00 -1.173386379E+02  1.177421936E+02  1.348699152E-06  0.00000E+00  9.000E+00
      21     1     1     2   513   516  4.421351939E+00  2.998999190E+00  2.181634858E+02  2.182288911E+02  2.697398305E-06  0.00000E+00  9.000E+00
</event>
<event>
      5  10001  2.40292E+09  8.57201E+00 -1.00000E+00  2.03761E-01
      21    -1     0     0   511   516  0.000000000E+00  0.000000000E+00  7.044100570E+00  7.044100570E+00  0.000000000E+00  0.00000E+00  9.000E+00
      21    -1     0     0   515   511  0.000000000E+00  0.000000000E+00 -1.120192732E+02  1.120192732E+02  0.000000000E+00  0.00000E+00  9.000E+00
      21     1     1     2   515   514  6.262076982E+00  9.999299825E+00 -1.032549285E+02  1.039268006E+02  1.348699152E-06  0.00000E+00  9.000E+00
      21     1     1     2   512   516 -6.341000989E+00 -1.922333109E+00  8.025643432E-01  6.674411409E+00  3.734220292E-07  0.00000E+00  9.000E+00
      21     1     1     2   514   512  7.892400757E-02 -8.076966717E+00 -2.522808454E+00  8.462161830E+00  3.953724850E-07  0.00000E+00  9.000E+00
</event>
<event>
      5  10001  2.40292E+09  9.72532E+00 -1.00000E+00  1.97107E-01
       1    -1     0     0   511     0  0.000000000E+00  0.000000000E+00  2.716433505E+02  2.716433505E+02  0.000000000E+00  0.00000E+00  9.000E+00
      -5    -1     0     0     0   511  0.000000000E+00  0.000000000E+00 -1.230788389E+00  1.230788389E+00  0.000000000E+00  0.00000E+00  9.000E+00
      -5     1     1     2     0   515 -2.661199180E+00 -3.039147731E+00  1.162306907E+01  1.320810874E+01  4.800000191E+00  0.00000E+00  9.000E+00
       1     1     1     2   513     0  4.008267183E+00  1.091169660E+01  1.998185775E+02  2.001566989E+02  3.300000131E-01  0.00000E+00  9.000E+00
      21     1     1     2   515   513 -1.347068003E+00 -7.872548869E+00  5.897091558E+01  5.950933122E+01  9.536743164E-07  0.00000E+00  9.000E+00
</event>
<event>
      5  10001  2.40292E+09  7.56879E+00 -1.00000E+00  2.10799E-01
      21    -1     0     0   512   513  0.000000000E+00  0.000000000E+00  5.543587868E+01  5.543587868E+01  0.000000000E+00  0.00000E+00  9.000E+00
      21    -1     0     0   511   514  0.000000000E+00  0.000000000E+00 -3.214243553E+01  3.214243553E+01  0.000000000E+00  0.00000E+00  9.000E+00
      21     1     1     2   512   514  4.007100771E+00  1.698506649E+01 -2.417792219E+01  2.981813645E+01  7.539457465E-07  0.00000E+00  9.000E+00
      21     1     1     2   515   513 -4.561183216E+00 -9.436589603E+00  4.894040728E+01  5.005014566E+01  0.000000000E+00  0.00000E+00  9.000E+00
      21     1     1     2   511   515  5.540824452E-01 -7.548476886E+00 -1.469041948E+00  7.710032095E+00  2.107342426E-08  0.00000E+00  9.000E+00
</event>
<event>
      5  10001  2.40292E+09  6.84353E+00 -1.00000E+00  2.16878E-01
       1    -1     0     0   512     0  0.000000000E+00  0.000000000E+00  2.625496282E+02  2.625496282E+02  0.000000000E+00  0.00000E+00  9.000E+00
       4    -1     0     0   515     0  0.000000000E+00  0.000000000E+00 -6.180099577E+01  6.180099577E+01  0.000000000E+00  0.00000E+00  9.000E+00
      21     1     1     2   515   516 -8.015960083E+00  7.604130157E+00  9.929572568E+00  1.485512783E+01  7.539457465E-07  0.00000E+00  9.000E+00
       1     1     1     2   516     0  5.106940115E+00 -1.379832033E+01  2.497331110E+02  2.501663649E+02  3.300000131E-01  0.00000E+00  9.000E+00
       4     1     1     2   512     0  2.909019968E+00  6.194190175E+00 -5.891405117E+01  5.932913125E+01  1.500000000E+00  0.00000E+00  9.000E+00
</event>
<event>
      5  10001  2.40292E+09  3.81728E+00 -1.00000E+00  2.68236E-01
       2    -1     0     0   514     0  0.000000000E+00  0.000000000E+00  1.093213509E+03  1.093213509E+03  0.000000000E+00  0.00000E+00  9.000E+00
      21    -1     0     0   511   512  0.000000000E+00  0.000000000E+00 -1.591300708E+00  1.591300708E+00  0.000000000E+00  0.00000E+00  9.000E+00
      21     1     1     2   513   512  2.168505081E+00 -8.390763174E+00  1.071953347E+01  1.378461892E+01  1.415531884E-06  0.00000E+00  9.000E+00
       2     1     1     2   511     0 -4.936466380E+00  1.101935036E+01  8.537614646E+02  8.538469079E+02  3.300000131E-01  0.00000E+00  9.000E+00
      21     1     1     2   514   513  2.767961299E+00 -2.628587187E+00  2.271412102E+02  2.271732829E+02  2.697398305E-06  0.00000E+00  9.000E+00
</event>
<event>
      5  10001  2.40292E+09  7.96836E+00 -1.00000E+00  2.07830E-01
      21    -1     0     0   515   511  0.000000000E+00  0.000000000E+00  9.790997928E+00  9.790997928E+00  0.000000000E+00  0.00000E+00  9.000E+00
      21    -1     0     0   516   512  0.000000000E+00  0.000000000E+00 -3.263942109E+02  3.263942109E+02  0.000000000E+00  0.00000E+00  9.000E+00
      21     1     1     2   515   513  7.009105551E+00  6.095856700E-01  5.080773419E+00  8.678330130E+00  1.788139343E-07  0.00000E+00  9.000E+00
      21     1     1     2   516   511 -1.427840413E+01 -3.873342271E+00 -1.627648596E+01  2.199544499E+01  3.371747881E-07  0.00000E+00  9.000E+00
      21     1     1     2   513   512  7.269298583E+00  3.263756601E+00 -3.054075005E+02  3.055114337E+02  3.814697266E-06  0.00000E+00  9.000E+00
</event>
<event>
      5  10001  2.40292E+09  9.90032E+00 -1.00000E+00  1.96203E-01
      -3    -1     0     0     0   514  0.000000000E+00  0.000000000E+00  4.431890197E+02  4.431890197E+02  0.000000000E+00  0.00000E+00  9.000E+00
      21    -1     0     0   511   515  0.000000000E+00  0.000000000E+00 -1.663790307E+00  1.663790307E+00  0.000000000E+00  0.00000E+00  9.000E+00
      -3     1     1     2     0   512 -3.105639276E+00  1.941650348E+01  2.607453789E+02  2.614862295E+02  5.000000000E-01  0.00000E+00  9.000E+00
      21     1     1     2   511   514  1.090393948E+01 -1.331877435E+01  1.511467517E+02  1.521237200E+02  2.697398305E-06  0.00000E+00  9.000E+00
      21     1     1     2   512   515 -7.798300200E+00 -6.097729129E+00  2.963309883E+01  3.124286051E+01  1.168007728E-06  0.00000E+00  9.000E+00
</event>
<event>
      5  10001  2.40292E+09  4.89437E+00 -1.00000E+00  2.44303E-01
      21    -1     0     0   514   511  0.000000000E+00  0.000000000E+00  1.899055206E+00  1.899055206E+00  0.000000000E+00  0.00000E+00  9.000E+00
       2    -1     0     0   512     0  0.000000000E+00  0.000000000E+00 -4.606035311E+02  4.606035311E+02  0.000000000E+00  0.00000E+00  9.000E+00
      21     1     1     2   512   511  1.366724590E+01 -1.685530019E+01 -2.076570070E+02  2.087877566E+02  2.697398305E-06  0.00000E+00  9.000E+00
       2     1     1     2   513     0 -1.637051957E+01  2.093519190E+01 -2.417617065E+02  2.432182308E+02  3.300000131E-01  0.00000E+00  9.000E+00
      21     1     1     2   514   513  2.703273665E+00 -4.079891709E+00 -9.285762431E+00  1.049659892E+01  3.769728732E-07  0.00000E+00  9.000E+00
</event>
<event>
      5  10001  2.40292E+09  9.24564E+00 -1.00000E+00  1.99718E-01
      21    -1     0     0   512   513  0.000000000E+00  0.000000000E+00  4.905835145E+00  4.905835145E+00  0.000000000E+00  0.00000E+00  9.000E+00
      -2    -1     0     0     0   515  0.000000000E+00  0.000000000E+00 -5.398747520E+01  5.398747520E+01  0.000000000E+00  0.00000E+00  9.000E+00
      -2     1     1     2     0   513  9.851372059E+00 -5.494518041E+00 -3.799529985E+01  3.963572846E+01  3.300000131E-01  0.00000E+00  9.000E+00
      -2     1     1     2     0   515 -6.813811940E+00 -1.317027312E+00 -1.501046230E+00  7.108068224E+00  3.300000131E-01  0.00000E+00  9.000E+00
       2     1     1     2   512     0 -3.037560119E+00  6.811545352E+00 -9.585293973E+00  1.214951366E+01  3.300000131E-01  0.00000E+00  9.000E+00
</event>
<event>
      5  10001  2.40292E+09  1.46964E+01 -1.00000E+00  1.78176E-01
      21    -1     0     0   511   514  0.000000000E+00  0.000000000E+00  6.840696721E+00  6.840696721E+00  0.000000000E+00  0.00000E+00  9.000E+00
       2    -1     0     0   512     0  0.000000000E+00  0.000000000E+00 -4.049433592E+01  4.049433592E+01  0.000000000E+00  0.00000E+00  9.000E+00
      21     1     1     2   513   514  5.725339420E+00 -2.838565603E+00 -1.029312322E+01  1.211550047E+01  1.192092896E-07  0.00000E+00  9.000E+00
       2     1     1     2   511     0 -6.671590931E+00  1.246477328E+01 -2.090685866E+01  2.524056928E+01  3.300000131E-01  0.00000E+00  9.000E+00
      21     1     1     2   512   513  9.462515110E-01 -9.626207677E+00 -2.453657326E+00  9.978962894E+00  1.460009660E-07  0.00000E+00  9.000E+00
</event>
<event>
      5  10001  2.40292E+09  1.03597E+01 -1.00000E+00  1.93942E-01
       1    -1     0     0   512     0  0.000000000E+00  0.000000000E+00  7.326854056E+02  7.326854056E+02  0.000000000E+00  0.00000E+00  9.000E+00
      21    -1     0     0   514   511  0.000000000E+00  0.000000000E+00 -8.138542298E+00  8.138542298E+00  0.000000000E+00  0.00000E+00  9.000E+00
      21     1     1     2   512   511  3.077475729E+00  2.800956881E+01  1.056528748E+02  1.093459499E+02  3.568322551E-06  0.00000E+00  9.000E+00
       1     1     1     2   515     0  3.593169220E+00 -3.593581192E+01  6.200076082E+02  6.210586418E+02  3.300000131E-01  0.00000E+00  9.000E+00
      21     1     1     2   514   515 -6.670644949E+00  7.926243112E+00 -1.113619744E+00  1.041935616E+01  3.659137832E-07  0.00000E+00  9.000E+00
</event>
<event>
      5  10001  2.40292E+09  1.66400E+01 -1.00000E+00  1.73196E-01
      21    -1     0     0   514   515  0.000000000E+00  0.000000000E+00  8.191031821E+01  8.191031821E+01  0.000000000E+00  0.00000E+00  9.000E+00
       2    -1     0     0   515     0  0.000000000E+00  0.000000000E+00 -6.044179535E+02  6.044179535E+02  0.000000000E+00  0.00000E+00  9.000E+00
      21     1     1     2   514   513  7.060846153E+00 -8.888378095E+00  7.986033330E+01  8.066307487E+01  3.015782986E-06  0.00000E+00  9.000E+00
       2     1     1     2   511     0 -5.911079700E+00  2.207224834E+01 -5.729732393E+02  5.734287810E+02  3.300000131E-01  0.00000E+00  9.000E+00
      21     1     1     2   513   511 -1.149766453E+00 -1.318387024E+01 -2.939472924E+01  3.223641582E+01  3.371747881E-07  0.00000E+00  9.000E+00
</event>
<event>
      5  10001  2.40292E+09  8.71769E+00 -1.00000E+00  2.02846E-01
      -1    -1     0     0     0   512  0.000000000E+00  0.000000000E+00  1.322254032E+01  1.322254032E+01  0.000000000E+00  0.00000E+00  9.000E+00
      21    -1     0     0   514   511  0.000000000E+00  0.000000000E+00 -2.175632872E+02  2.175632872E+02  0.000000000E+00  0.00000E+00  9.000E+00
      -1     1     1     2     0   515  2.500458371E+00  4.578385535E+00  1.138571184E+01  1.252825767E+01  3.300000131E-01  0.00000E+00  9.000E+00
      21     1     1     2   514   512 -9.613008467E+00 -4.975875062E+00 -2.055540637E+02  2.058388748E+02  2.697398305E-06  0.00000E+00  9.000E+00
      21     1     1     2   515   511  7.112550096E+00  3.974895269E-01 -1.017239501E+01  1.241869506E+01  1.685873940E-07  0.00000E+00  9.000E+00
</event>
<event>
      5  10001  2.40292E+09  7.17517E+00 -1.00000E+00  2.13977E-01
      21    -1     0     0   513   512  0.000000000E+00  0.000000000E+00  3.366569844E+00  3.366569844E+00  0.000000000E+00  0.00000E+00  9.000E+00
      21    -1     0     0   516   513  0.000000000E+00  0.000000000E+00 -1.162903058E+02  1.162903058E+02  0.000000000E+00  0.00000E+00  9.000E+00
      21     1     1     2   511   512  1.160786638E+01 -2.872751035E+00 -9.791458623E+00  1.545535255E+01  0.000000000E+00  0.00000E+00  9.000E+00
      21     1     1     2   516   514 -4.115971218E+00  3.794002112E+00 -6.985285852E+01  7.007679726E+01  9.536743164E-07  0.00000E+00  9.000E+00
      21     1     1     2   514   511 -7.491895164E+00 -9.212510765E-01 -3.327941882E+01  3.412472584E+01  0.000000000E+00  0.00000E+00  9.000E+00
</event>
<event>
      5  10001  2.40292E+09  4.76023E+00 -1.00000E+00  2.46754E-01
      21    -1     0     0   515   516  0.000000000E+00  0.000000000E+00  2.482912152E+01  2.482912152E+01  0.000000000E+00  0.00000E+00  9.000E+00
      21    -1     0     0   512   513  0.000000000E+00  0.000000000E+00 -1.053212359E+02  1.053212359E+02  0.000000000E+00  0.00000E+00  9.000E+00
      21     1     1     2   515   511  1.591985359E+00  1.335240036E+01 -4.777731665E+00  1.427051970E+01  1.884864366E-07  0.00000E+00  9.000E+00
      21     1     1     2   512   516 -4.320784008E+00 -9.451956969E+00  1.867417385E+01  2.137132270E+01  4.768371582E-07  0.00000E+00  9.000E+00
      21     1     1     2   511   513  2.728798648E+00 -3.900443391E+00 -9.438855652E+01  9.450851497E+01  1.348699152E-06  0.00000E+00  9.000E+00
</event>
<event>
      5  10001  2.40292E+09  2.39435E+00 -1.00000E+00  3.29966E-01
      -2    -1     0     0     0   512  0.000000000E+00  0.000000000E+00  1.137068575E+01  1.137068575E+01  0.000000000E+00  0.00000E+00  9.000E+00
      21    -1     0     0   514   513  0.000000000E+00  0.000000000E+00 -2.872022860E+01  2.872022860E+01  0.000000000E+00  0.00000E+00  9.000E+00
      -2     1     1     2     0   515 -6.501225944E+00 -1.146546823E+01 -2.202092246E+00  1.336716166E+01  3.300000131E-01  0.00000E+00  9.000E+00
      21     1     1     2   515   513  5.470699151E+00  1.362641599E+01 -1.784991222E+01  2.311335390E+01  2.384185791E-07  0.00000E+00  9.000E+00
      21     1     1     2   514   512  1.030526793E+00 -2.160947765E+00  2.702461620E+00  3.610398804E+00  6.664001875E-08  0.00000E+00  9.000E+00
</event>
<event>
      5  10001  2.40292E+09  7.31013E+00 -1.00000E+00  2.12857E-01
      21    -1     0     0   511   513  0.000000000E+00  0.000000000E+00  2.296358206E+01  2.296358206E+01  0.000000000E+00  0.00000E+00  9.000E+00
      21    -1     0     0   512   511  0.000000000E+00  0.000000000E+00 -5.516376515E+00  5.516376515E+00  0.000000000E+00  0.00000E+00  9.000E+00
      21     1     1     2   514   513  4.311683570E-01 -1.035718080E+01  1.057415058E+01  1.480776016E+01  2.064765462E-07  0.00000E+00  9.000E+00
      21     1     1     2   512   515  1.071608046E+00  4.013738152E+00  5.692418992E+00  7.047132164E+00  8.429369702E-08  0.00000E+00  9.000E+00
      21     1     1     2   515   514 -1.502776403E+00  6.343442651E+00  1.180635973E+00  6.625066255E+00  7.742870484E-08  0.00000E+00  9.000E+00
</event>
<event>
      5  10001  2.40292E+09  4.86570E+00 -1.00000E+00  2.44817E-01
      21    -1     0     0   516   512  0.000000000E+00  0.000000000E+00  1.372150618E+01  1.372150618E+01  0.000000000E+00  0.00000E+00  9.000E+00
      21    -1     0     0   511   514  0.000000000E+00  0.000000000E+00 -3.760278121E+01  3.760278121E+01  0.000000000E+00  0.00000E+00  9.000E+00
      21     1     1     2   516   514  1.678050283E+01  2.230767288E+00 -5.100147863E-01  1.693581155E+01  4.450435794E-07  0.00000E+00  9.000E+00
      21     1     1     2   513   512 -1.298173079E+01  8.096821451E-01 -2.872780821E+00  1.332042751E+01  4.339283639E-07  0.00000E+00  9.000E+00
      21     1     1     2   511   513 -3.798772034E+00 -3.040449433E+00 -2.049847942E+01  2.106804832E+01  3.371747881E-07  0.00000E+00  9.000E+00
</event>
<event>
      5  10001  2.40292E+09  1.50549E+01 -1.00000E+00  1.77187E-01
      21    -1     0     0   515   513  0.000000000E+00  0.000000000E+00  1.674070070E+01  1.674070070E+01  0.000000000E+00  0.00000E+00  9.000E+00
      21    -1     0     0   511   517  0.000000000E+00  0.000000000E+00 -1.727054559E+01  1.727054559E+01  0.000000000E+00  0.00000E+00  9.000E+00
      21     1     1     2   515   517 -1.847337115E+00  1.324076557E+01  3.390931267E+00  1.379235086E+01  2.528810911E-07  0.00000E+00  9.000E+00
      21     1     1     2   511   512  4.437565447E+00 -7.452352120E+00  4.425078864E+00  9.737086945E+00  2.665600750E-07  0.00000E+00  9.000E+00
      21     1     1     2   512   513 -2.590228332E+00 -5.788413453E+00 -8.345855015E+00  1.048180848E+01  0.000000000E+00  0.00000E+00  9.000E+00
</event>
<event>
      5  10001  2.40292E+09  1.60097E+00 -1.00000E+00  4.14865E-01
       1    -1     0     0   511     0  0.000000000E+00  0.000000000E+00  4.000528248E-01  4.000528248E-01  0.000000000E+00  0.00000E+00  9.000E+00
       1    -1     0     0   512     0  0.000000000E+00  0.000000000E+00 -9.028924150E+02  9.028924150E+02  0.000000000E+00  0.00000E+00  9.000E+00
      21     1     1     2   511   514  3.293140048E+00 -1.178489000E+01 -1.616543381E+02  1.621167895E+02  1.907348633E-06  0.00000E+00  9.000E+00
       1     1     1     2   512     0 -2.974001638E+00  1.021644864E+01 -1.688194040E+02  1.691547237E+02  3.300000131E-01  0.00000E+00  9.000E+00
       1     1     1     2   514     0 -3.191384103E-01  1.568441352E+00 -5.720186201E+02  5.720209546E+02  3.300000131E-01  0.00000E+00  9.000E+00
</event>
<event>
      5  10001  2.40292E+09  8.24859E+00 -1.00000E+00  2.05883E-01
      21    -1     0     0   513   512  0.000000000E+00  0.000000000E+00  1.220512312E+01  1.220512312E+01  0.000000000E+00  0.00000E+00  9.000E+00
       2    -1     0     0   514     0  0.000000000E+00  0.000000000E+00 -3.141106970E+02  3.141106970E+02  0.000000000E+00  0.00000E+00  9.000E+00
      21     1     1     2   513   515 -1.575746708E+01 -1.504733778E+01 -2.333413790E+01  3.192494534E+01  5.840038640E-07  0.00000E+00  9.000E+00
      21     1     1     2   514   512  1.118384243E+01  8.182925019E+00  1.732258181E+00  1.396564756E+01  2.220223013E-07  0.00000E+00  9.000E+00
       2     1     1     2   515     0  4.573624651E+00  6.864412765E+00 -2.803036942E+02  2.804252273E+02  3.300000131E-01  0.00000E+00  9.000E+00
</event>
<event>
      5  10001  2.40292E+09  5.31003E+00 -1.00000E+00  2.33955E-01
      21    -1     0     0   511   514  0.000000000E+00  0.000000000E+00  6.595088225E+00  6.595088225E+00  0.000000000E+00  0.00000E+00  9.000E+00
      21    -1     0     0   515   516  0.000000000E+00  0.000000000E+00 -1.543104584E+02  1.543104584E+02  0.000000000E+00  0.00000E+00  9.000E+00
      21     1     1     2   511   516  1.603791163E-01  1.403250156E+01 -1.397839246E+02  1.404865915E+02  2.697398305E-06  0.00000E+00  9.000E+00
      21     1     1     2   515   512 -1.882034847E+00 -9.371745102E+00  1.579430801E+00  9.688460305E+00  2.010276551E-07  0.00000E+00  9.000E+00
      21     1     1     2   512   514  1.721655730E+00 -4.660756456E+00 -9.510876399E+00  1.073049482E+01  1.192092896E-07  0.00000E+00  9.000E+00
</event>
<event>
      5  10001  2.40292E+09  8.46847E+00 -1.00000E+00  2.04427E-01
      21    -1     0     0   513   515  0.000000000E+00  0.000000000E+00  5.906573900E+01  5.906573900E+01  0.000000000E+00  0.00000E+00  9.000E+00
      21    -1     0     0   517   514  0.000000000E+00  0.000000000E+00 -1.734849448E+01  1.734849448E+01  0.000000000E+00  0.00000E+00  9.000E+00
      21     1     1     2   513   514 -1.566354314E+01 -4.658548725E-01  4.984234649E+01  5.224770912E+01  6.743495762E-07  0.00000E+00  9.000E+00
      21     1     1     2   517   511  8.579483443E+00  1.096241098E+00 -1.294963850E+01  1.557248914E+01  3.371747881E-07  0.00000E+00  9.000E+00
      21     1     1     2   511   515  7.084059700E+00 -6.303862255E-01  4.824536536E+00  8.594035223E+00  1.192092896E-07  0.00000E+00  9.000E+00
</event>
<event>
      5  10001  2.40292E+09  6.76567E+00 -1.00000E+00  2.17592E-01
      21    -1     0     0   512   513  0.000000000E+00  0.000000000E+00  8.423443366E+01  8.423443366E+01  0.000000000E+00  0.00000E+00  9.000E+00
      21    -1     0     0   516   515  0.000000000E+00  0.000000000E+00 -7.515103367E+00  7.515103367E+00  0.000000000E+00  0.00000E+00  9.000E+00
      21     1     1     2   512   515 -1.119667334E+01 -1.628655222E+00  1.239535300E+01  1.678281227E+01  0.000000000E+00  0.00000E+00  9.000E+00
      21     1     1     2   516   514  1.449431617E+01  7.536259126E+00  7.913985367E+00  1.815245348E+01  1.685873940E-07  0.00000E+00  9.000E+00
      21     1     1     2   514   513 -3.297642834E+00 -5.907603904E+00  5.640999192E+01  5.681427127E+01  0.000000000E+00  0.00000E+00  9.000E+00
</event>
<event>
      5  10001  2.40292E+09  3.00658E+00 -1.00000E+00  2.96440E-01
      -1    -1     0     0     0   511  0.000000000E+00  0.000000000E+00  3.800125852E+01  3.800125852E+01  0.000000000E+00  0.00000E+00  9.000E+00
      21    -1     0     0   515   512  0.000000000E+00  0.000000000E+00 -1.378883945E+01  1.378883945E+01  0.000000000E+00  0.00000E+00  9.000E+00
      -1     1     1     2     0   513 -8.172923809E+00 -3.507706120E+00  3.307553111E+01  3.425201226E+01  3.300000131E-01  0.00000E+00  9.000E+00
      21     1     1     2   513   512  1.115488250E+01  3.125021550E+00 -4.935514272E+00  1.259192060E+01  1.576990671E-07  0.00000E+00  9.000E+00
      21     1     1     2   515   511 -2.981958687E+00  3.826845700E-01 -3.927597768E+00  4.946165112E+00  1.460009660E-07  0.00000E+00  9.000E+00
</event>
<event>
      5  10001  2.40292E+09  9.48322E+00 -1.00000E+00  1.98399E-01
      21    -1     0     0   512   511  0.000000000E+00  0.000000000E+00  7.754637324E+00  7.754637324E+00  0.000000000E+00  0.00000E+00  9.000E+00
      -1    -1     0     0     0   514  0.000000000E+00  0.000000000E+00 -1.213096180E+02  1.213096180E+02  0.000000000E+00  0.00000E+00  9.000E+00
      -1     1     1     2     0   511 -1.897667453E+00 -1.044849889E+01 -1.160345985E+02  1.165199950E+02  3.300000131E-01  0.00000E+00  9.000E+00
      21     1     1     2   512   513  6.861770611E-01  5.690169562E+00 -1.824434663E+00  6.014767697E+00  1.825012075E-07  0.00000E+00  9.000E+00
      21     1     1     2   513   514  1.211490392E+00  4.758329330E+00  4.304052488E+00  6.529492691E+00  3.998401125E-07  0.00000E+00  9.000E+00
</event>
<event>
      5  10001  2.40292E+09  5.02239E+00 -1.00000E+00  2.38090E-01
      21    -1     0     0   515   514  0.000000000E+00  0.000000000E+00  4.476896865E-01  4.476896865E-01  0.000000000E+00  0.00000E+00  9.000E+00
      21    -1     0     0   511   516  0.000000000E+00  0.000000000E+00 -4.489507271E+02  4.489507271E+02  0.000000000E+00  0.00000E+00  9.000E+00
      21     1     1     2   515   516  8.314461772E+00 -8.388372383E+00 -3.216960508E+02  3.219127897E+02  7.629394531E-06  0.00000E+00  9.000E+00
      21     1     1     2   511   512 -6.343883315E+00  5.248115864E+00 -1.082062018E+02  1.085189830E+02  1.348699152E-06  0.00000E+00  9.000E+00
      21     1     1     2   512   514 -1.970578457E+00  3.140256519E+00 -1.860078482E+01  1.896664405E+01  5.331201500E-07  0.00000E+00  9.000E+00
</event>
<event>
      5  10001  2.40292E+09  2.94596E+00 -1.00000E+00  2.99142E-01
      21    -1     0     0   513   511  0.000000000E+00  0.000000000E+00  2.092989964E+00  2.092989964E+00  0.000000000E+00  0.00000E+00  9.000E+00
      21    -1     0     0   517   514  0.000000000E+00  0.000000000E+00 -1.153104013E+02  1.153104013E+02  0.000000000E+00  0.00000E+00  9.000E+00
      21     1     1     2   513   514  2.404950091E-01 -1.175338674E+01 -8.873485021E+01  8.951018702E+01  2.132480600E-06  0.00000E+00  9.000E+00
      21     1     1     2   517   515 -2.461654729E+00  1.020443363E+01 -1.753934785E+01  2.044061967E+01  2.384185791E-07  0.00000E+00  9.000E+00
      21     1     1     2   515   511  2.221159720E+00  1.548953112E+00 -6.943213287E+00  7.452584585E+00  1.460009660E-07  0.00000E+00  9.000E+00
</event>
<event>
      5  10001  2.40292E+09  2.24052E+00 -1.00000E+00  3.41334E-01
      21    -1     0     0   515   511  0.000000000E+00  0.000000000E+00  1.480484401E+00  1.480484401E+00  0.000000000E+00  0.00000E+00  9.000E+00
       3    -1     0     0   511     0  0.000000000E+00  0.000000000E+00 -3.941939099E+02  3.941939099E+02  0.000000000E+00  0.00000E+00  9.000E+00
      21     1     1     2   513   512 -3.212728492E+00  5.178812682E+00 -7.752277437E+00  9.861010628E+00  6.848052319E-07  0.00000E+00  9.000E+00
       3     1     1     2   512     0  5.620871837E+00 -8.602973577E+00 -3.729816854E+02  3.731235626E+02  5.000000000E-01  0.00000E+00  9.000E+00
      21     1     1     2   515   513 -2.408143345E+00  3.424160895E+00 -1.197946272E+01  1.268982109E+01  2.920019320E-07  0.00000E+00  9.000E+00
</event>
<event>
      5  10001  2.40292E+09  1.25222E+01 -1.00000E+00  1.85052E-01
       2    -1     0     0   512     0  0.000000000E+00  0.000000000E+00  1.246507228E+03  1.246507228E+03  0.000000000E+00  0.00000E+00  9.000E+00
      21    -1     0     0   514   515  0.000000000E+00  0.000000000E+00 -1.602228973E+01  1.602228973E+01  0.000000000E+00  0.00000E+00  9.000E+00
      21     1     1     2   512   511  8.125144430E+00  9.142820634E+00 -5.012352619E+00  1.321865424E+01  1.228781231E-06  0.00000E+00  9.000E+00
       2     1     1     2   514     0 -1.729050062E+00 -1.661919943E+01  1.238814860E+03  1.238927582E+03  3.300000131E-01  0.00000E+00  9.000E+00
      21     1     1     2   511   515 -6.396094368E+00  7.476378791E+00 -3.317569282E+00  1.038328122E+01  1.124618188E-06  0.00000E+00  9.000E+00
</event>
<event>
      5  10001  2.40292E+09  2.16257E+01 -1.00000E+00  1.63576E-01
      21    -1     0     0   513   514  0.000000000E+00  0.000000000E+00  1.349096856E+00  1.349096856E+00  0.000000000E+00  0.00000E+00  9.000E+00
      21    -1     0     0   511   516  0.000000000E+00  0.000000000E+00 -1.017380924E+02  1.017380924E+02  0.000000000E+00  0.00000E+00  9.000E+00
      21     1     1     2   513   516  5.441728929E+00 -1.572648779E+00 -1.745674254E+01  1.835275178E+01  5.331201500E-07  0.00000E+00  9.000E+00
      21     1     1     2   512   514  4.518242818E+00 -3.031719169E+00 -4.222947807E+01  4.257857040E+01  6.743495762E-07  0.00000E+00  9.000E+00
      21     1     1     2   511   512 -9.959971748E+00  4.604367947E+00 -4.070277498E+01  4.215586712E+01  4.768371582E-07  0.00000E+00  9.000E+00
</event>
<event>
      5  10001  2.40292E+09  4.43896E+00 -1.00000E+00  2.53151E-01
      21    -1     0     0   515   512  0.000000000E+00  0.000000000E+00  1.228346855E+02  1.228346855E+02  0.000000000E+00  0.00000E+00  9.000E+00
      -4    -1     0     0     0   515  0.000000000E+00  0.000000000E+00 -2.983405297E+01  2.983405297E+01  0.000000000E+00  0.00000E+00  9.000E+00
      21     1     1     2   511   517  8.842323745E+00  9.872852501E+00  1.827765741E+01  2.257725994E+01  3.371747881E-07  0.00000E+00  9.000E+00
      21     1     1     2   517   512 -4.865029103E+00 -7.903341529E+00  1.019968314E+02  1.024181866E+02  0.000000000E+00  0.00000E+00  9.000E+00
      -4     1     1     2     0   511 -3.977294642E+00 -1.969510972E+00 -2.727385636E+01  2.767329194E+01  1.500000000E+00  0.00000E+00  9.000E+00
</event>
<event>
      5  10001  2.40292E+09  7.08844E+00 -1.00000E+00  2.14715E-01
      21    -1     0     0   513   516  0.000000000E+00  0.000000000E+00  1.485750947E+02  1.485750947E+02  0.000000000E+00  0.00000E+00  9.000E+00
      21    -1     0     0   514   513  0.000000000E+00  0.000000000E+00 -1.483165670E+01  1.483165670E+01  0.000000000E+00  0.00000E+00  9.000E+00
      21     1     1     2   514   511  6.495401126E+00 -8.204727159E+00 -1.270577211E+01  1.646038968E+01  1.685873940E-07  0.00000E+00  9.000E+00
      21     1     1     2   511   512 -4.607859926E+00  5.632593629E+00  6.021450199E+01  6.065265644E+01  1.348699152E-06  0.00000E+00  9.000E+00
      21     1     1     2   512   516 -1.887541200E+00  2.572133530E+00  8.623470810E+01  8.629370523E+01  9.536743164E-07  0.00000E+00  9.000E+00
</event>
<event>
      5  10001  2.40292E+09  3.49631E+00 -1.00000E+00  2.77928E-01
      21    -1     0     0   515   512  0.000000000E+00  0.000000000E+00  5.907099685E+01  5.907099685E+01  0.000000000E+00  0.00000E+00  9.000E+00
      21    -1     0     0   516   515  0.000000000E+00  0.000000000E+00 -1.293013031E+01  1.293013031E+01  0.000000000E+00  0.00000E+00  9.000E+00
      21     1     1     2   517   512  1.063365637E+01  1.351502886E+01  4.962678077E+01  5.252188137E+01  0.000000000E+00  0.00000E+00  9.000E+00
      21     1     1     2   511   517 -9.562328434E+00 -9.612536720E+00 -5.878265386E+00  1.477812543E+01  2.384185791E-07  0.00000E+00  9.000E+00
      21     1     1     2   516   511 -1.071327940E+00 -3.902492144E+00  2.392351151E+00  4.701120347E+00  5.960464478E-08  0.00000E+00  9.000E+00
</event>
<event>
      5  10001  2.40292E+09  1.14066E+01 -1.00000E+00  1.89319E-01
      21    -1     0     0   513   516  0.000000000E+00  0.000000000E+00  1.007740866E+02  1.007740866E+02  0.000000000E+00  0.00000E+00  9.000E+00
      21    -1     0     0   514   513  0.000000000E+00  0.000000000E+00 -2.186311571E+00  2.186311571E+00  0.000000000E+00  0.00000E+00  9.000E+00
      21     1     1     2   511   516 -7.113874358E+00  4.028920573E+00  6.075678045E+01  6.130436999E+01  1.168007728E-06  0.00000E+00  9.000E+00
      21     1     1     2   514   512  2.041875162E+00 -3.585644569E+00  7.092681954E-01  4.186784271E+00  3.002500784E-07  0.00000E+00  9.000E+00
      21     1     1     2   512   511  5.071999196E+00 -4.432760036E-01  3.712172640E+01  3.746924392E+01  4.768371582E-07  0.00000E+00  9.000E+00
</event>
<event>
      5  10001  2.40292E+09  5.50326E+00 -1.00000E+00  2.31380E-01
      -3    -1     0     0     0   511  0.000000000E+00  0.000000000E+00  3.686376104E+01  3.686376104E+01  0.000000000E+00  0.00000E+00  9.000E+00
      21    -1     0     0   511   513  0.000000000E+00  0.000000000E+00 -1.355116377E+01  1.355116377E+01  0.000000000E+00  0.00000E+00  9.000E+00
      -3     1     1     2     0   512 -1.514493418E+01  7.438655877E+00  2.601785848E+01  3.101421597E+01  5.000000000E-01  0.00000E+00  9.000E+00
      21     1     1     2   512   514  1.330583280E+01 -2.168126280E+00 -2.998770772E+00  1.381081403E+01  1.685873940E-07  0.00000E+00  9.000E+00
      21     1     1     2   514   513  1.839101383E+00 -5.270529596E+00  2.935095556E-01  5.589894810E+00  1.805901474E-07  0.00000E+00  9.000E+00
</event>
<event>
      5  10001  2.40292E+09  5.56514E+00 -1.00000E+00  2.30587E-01
      21    -1     0     0   515   512  0.000000000E+00  0.000000000E+00  4.935375092E+01  4.935375092E+01  0.000000000E+00  0.00000E+00  9.000E+00
      21    -1     0     0   511   515  0.000000000E+00  0.000000000E+00 -4.754431379E+00  4.754431379E+00  0.000000000E+00  0.00000E+00  9.000E+00
      21     1     1     2   511   513 -2.212615484E+00  1.273768413E+01  8.068872279E+00  1.523978229E+01  2.064765462E-07  0.00000E+00  9.000E+00
      21     1     1     2   516   512  1.338225333E+00 -2.175233483E+00  9.414322022E+00  9.754585941E+00  1.192092896E-07  0.00000E+00  9.000E+00
      21     1     1     2   513   516  8.743901507E-01 -1.056245065E+01  2.711612524E+01  2.911381407E+01  4.768371582E-07  0.00000E+00  9.000E+00
</event>
<event>
      5  10001  2.40292E+09  5.27978E+00 -1.00000E+00  2.34372E-01
      21    -1     0     0   514   513  0.000000000E+00  0.000000000E+00  1.519660882E+02  1.519660882E+02  0.000000000E+00  0.00000E+00  9.000E+00
      21    -1     0     0   511   517  0.000000000E+00  0.000000000E+00 -9.278490442E-01  9.278490442E-01  0.000000000E+00  0.00000E+00  9.000E+00
      21     1     1     2   514   517 -7.274939424E+00  7.647002973E+00  8.949221717E+01  9.011247601E+01  1.348699152E-06  0.00000E+00  9.000E+00
      21     1     1     2   511   512  3.343593653E+00 -6.919734987E+00  4.940327927E+01  4.999746347E+01  6.743495762E-07  0.00000E+00  9.000E+00
      21     1     1     2   512   513  3.931345772E+00 -7.272679864E-01  1.214274275E+01  1.278399781E+01  1.685873940E-07  0.00000E+00  9.000E+00
</event>
<event>
      5  10001  2.40292E+09  1.01137E+01 -1.00000E+00  1.95133E-01
      -1    -1     0     0     0   513  0.000000000E+00  0.000000000E+00  1.193818889E+02  1.193818889E+02  0.000000000E+00  0.00000E+00  9.000E+00
      21    -1     0     0   513   514  0.000000000E+00  0.000000000E+00 -1.948958517E+00  1.948958517E+00  0.000000000E+00  0.00000E+00  9.000E+00
      -1     1     1     2     0   512 -8.843445145E+00 -9.053327572E+00  7.067426442E+01  7.179923268E+01  3.300000131E-01  0.00000E+00  9.000E+00
      21     1     1     2   512   511  4.304905165E+00  7.266436902E+00  4.153383997E+01  4.238387873E+01  6.743495762E-07  0.00000E+00  9.000E+00
      21     1     1     2   511   514  4.538539980E+00  1.786890670E+00  5.224826019E+00  7.147736030E+00  2.795705652E-07  0.00000E+00  9.000E+00
</event>
<event>
      5  10001  2.40292E+09  6.71424E+00 -1.00000E+00  2.18071E-01
      21    -1     0     0   515   512  0.000000000E+00  0.000000000E+00  1.071301409E+03  1.071301409E+03  0.000000000E+00  0.00000E+00  9.000E+00
      21    -1     0     0   513   517  0.000000000E+00  0.000000000E+00 -3.657603722E+00  3.657603722E+00  0.000000000E+00  0.00000E+00  9.000E+00
      21     1     1     2   515   516  6.189410903E+00 -4.346674533E+00  9.492329902E+02  9.492631206E+02  0.000000000E+00  0.00000E+00  9.000E+00
      21     1     1     2   513   512 -1.218305376E+01  7.372775867E+00  1.181200716E+02  1.189753585E+02  5.046370146E-06  0.00000E+00  9.000E+00
      21     1     1     2   516   517  5.993642855E+00 -3.026101334E+00  2.907437545E-01  6.720533899E+00  5.449375226E-07  0.00000E+00  9.000E+00
</event>
<event>
      5  10001  2.40292E+09  1.67432E+01 -1.00000E+00  1.72955E-01
      21    -1     0     0   511   512  0.000000000E+00  0.000000000E+00  8.426959337E+02  8.426959337E+02  0.000000000E+00  0.00000E+00  9.000E+00
      21    -1     0     0   514   511  0.000000000E+00  0.000000000E+00 -3.353520396E-01  3.353520396E-01  0.000000000E+00  0.00000E+00  9.000E+00
      21     1     1     2   513   512  3.825024175E+00 -1.330938858E+01  2.806478689E+02  2.809893182E+02  5.394796609E-06  0.00000E+00  9.000E+00
      21     1     1     2   515   513 -2.519246350E-01  5.454732647E+00  5.826786391E+01  5.852317095E+01  9.536743164E-07  0.00000E+00  9.000E+00
      21     1     1     2   514   515 -3.573099540E+00  7.854655929E+00  5.034448489E+02  5.035187966E+02  5.394796609E-06  0.00000E+00  9.000E+00
</event>
<event>
      5  10001  2.40292E+09  7.03419E+00 -1.00000E+00  2.15184E-01
      21    -1     0     0   516   514  0.000000000E+00  0.000000000E+00  3.477034527E+00  3.477034527E+00  0.000000000E+00  0.00000E+00  9.000E+00
      21    -1     0     0   512   517  0.000000000E+00  0.000000000E+00 -4.923465356E+01  4.923465356E+01  0.000000000E+00  0.00000E+00  9.000E+00
      21     1     1     2   516   517  1.124088562E+01 -2.780452771E+00 -3.163675513E+01  3.368935593E+01  3.371747881E-07  0.00000E+00  9.000E+00
      21     1     1     2   512   511 -4.839928591E+00 -1.030845388E+00 -7.875228885E+00  9.300902159E+00  2.064765462E-07  0.00000E+00  9.000E+00
      21     1     1     2   511   514 -6.400957033E+00  3.811298159E+00 -6.245635017E+00  9.721430006E+00  2.064765462E-07  0.00000E+00  9.000E+00
</event>
<event>
      5  10001  2.40292E+09  4.58660E+00 -1.00000E+00  2.50113E-01
      21    -1     0     0   516   512  0.000000000E+00  0.000000000E+00  4.615632334E+00  4.615632334E+00  0.000000000E+00  0.00000E+00  9.000E+00
      21    -1     0     0   515   514  0.000000000E+00  0.000000000E+00 -1.281131413E+02  1.281131413E+02  0.000000000E+00  0.00000E+00  9.000E+00
      21     1     1     2   513   514  9.725538794E+00 -3.821891912E+00 -1.096052858E+02  1.101022781E+02  1.348699152E-06  0.00000E+00  9.000E+00
      21     1     1     2   515   512 -9.946663343E+00  8.403154533E+00 -8.511397259E+00  1.555612423E+01  2.384185791E-07  0.00000E+00  9.000E+00
      21     1     1     2   516   513  2.211245494E-01 -4.581262622E+00 -5.380825915E+00  7.070371334E+00  1.332800375E-07  0.00000E+00  9.000E+00
</event>
<event>
      5  10001  2.40292E+09  4.03955E+01 -1.00000E+00  1.44544E-01
      21    -1     0     0   511   512  0.000000000E+00  0.000000000E+00  2.399837898E+02  2.399837898E+02  0.000000000E+00  0.00000E+00  9.000E+00
      21    -1     0     0   517   511  0.000000000E+00  0.000000000E+00 -4.452168995E+00  4.452168995E+00  0.000000000E+00  0.00000E+00  9.000E+00
      21     1     1     2   515   512  1.052083404E+01  5.919467546E+00  1.858467681E+02  1.862384205E+02  0.000000000E+00  0.00000E+00  9.000E+00
      21     1     1     2   514   515  7.971330625E+00  4.345781700E+00  1.309093283E+01  1.593111587E+01  3.371747881E-07  0.00000E+00  9.000E+00
      21     1     1     2   517   514 -1.849216466E+01 -1.026524925E+01  3.659391992E+01  4.226642250E+01  1.261592536E-06  0.00000E+00  9.000E+00
</event>
<event>
      5  10001  2.40292E+09  9.70500E+00 -1.00000E+00  1.97213E-01
      21    -1     0     0   513   514  0.000000000E+00  0.000000000E+00  7.398315272E-01  7.398315272E-01  0.000000000E+00  0.00000E+00  9.000E+00
      21    -1     0     0   512   516  0.000000000E+00  0.000000000E+00 -1.709726578E+02  1.709726578E+02  0.000000000E+00  0.00000E+00  9.000E+00
      21     1     1     2   513   516 -1.538623756E+00  8.784960168E+00 -7.269624510E+01  7.324129259E+01  1.348699152E-06  0.00000E+00  9.000E+00
      21     1     1     2   512   511  3.176061825E+00 -4.134965582E+00 -1.694621966E+01  1.773019092E+01  4.129530925E-07  0.00000E+00  9.000E+00
      21     1     1     2   511   514 -1.637438069E+00 -4.649994587E+00 -8.059036155E+01  8.074100586E+01  9.536743164E-07  0.00000E+00  9.000E+00
</event>
<event>
      5  10001  2.40292E+09  6.06753E+00 -1.00000E+00  2.24642E-01
       1    -1     0     0   512     0  0.000000000E+00  0.000000000E+00  4.725808102E+02  4.725808102E+02  0.000000000E+00  0.00000E+00  9.000E+00
      -1    -1     0     0     0   511  0.000000000E+00  0.000000000E+00 -5.198701594E+00  5.198701594E+00  0.000000000E+00  0.00000E+00  9.000E+00
      -1     1     1     2     0   513  1.406121702E+01 -3.234228639E+00  5.631214310E+00  1.549185378E+01  3.300000131E-01  0.00000E+00  9.000E+00
       1     1     1     2   513     0 -8.330165294E+00  5.226272435E+00  4.182445032E+02  4.183602263E+02  3.300000131E-01  0.00000E+00  9.000E+00
      21     1     1     2   512   511 -5.731051724E+00 -1.992043796E+00  4.350639104E+01  4.392743168E+01  6.743495762E-07  0.00000E+00  9.000E+00
</event>
<event>
      5  10001  2.40292E+09  1.01718E+01 -1.00000E+00  1.94848E-01
      21    -1     0     0   514   511  0.000000000E+00  0.000000000E+00  9.098244072E+01  9.098244072E+01  0.000000000E+00  0.00000E+00  9.000E+00
      21    -1     0     0   516   515  0.000000000E+00  0.000000000E+00 -1.836173214E+00  1.836173214E+00  0.000000000E+00  0.00000E+00  9.000E+00
      21     1     1     2   514   515 -6.749186259E+00 -6.829193969E+00  2.689013421E+01  2.855291095E+01  3.371747881E-07  0.00000E+00  9.000E+00
      21     1     1     2   516   513  1.947996111E+00  9.550481464E+00  3.008288933E+01  3.162256497E+01  4.768371582E-07  0.00000E+00  9.000E+00
      21     1     1     2   513   511  4.801190148E+00 -2.721287494E+00  3.217324396E+01  3.264313801E+01  6.743495762E-07  0.00000E+00  9.000E+00
</event>
<event>
      5  10001  2.40292E+09  3.31326E+00 -1.00000E+00  2.84237E-01
      21    -1     0     0   512   514  0.000000000E+00  0.000000000E+00  1.133667795E+02  1.133667795E+02  0.000000000E+00  0.00000E+00  9.000E+00
       2    -1     0     0   513     0  0.000000000E+00  0.000000000E+00 -2.852791414E+01  2.852791414E+01  0.000000000E+00  0.00000E+00  9.000E+00
      21     1     1     2   513   511  1.607390814E+01  7.094940187E-01  3.164089877E+01  3.549676577E+01  5.840038640E-07  0.00000E+00  9.000E+00
       2     1     1     2   512     0 -1.276121663E+01 -7.693115547E-01 -2.502576412E+01  2.810406127E+01  3.300000131E-01  0.00000E+00  9.000E+00
      21     1     1     2   511   514 -3.312691515E+00  5.981753598E-02  7.822373075E+01  7.829386666E+01  9.536743164E-07  0.00000E+00  9.000E+00
</event>
<event>
      5  10001  2.40292E+09  1.88466E+00 -1.00000E+00  3.75323E-01
      21    -1     0     0   513   514  0.000000000E+00  0.000000000E+00  2.975290784E+01  2.975290784E+01  0.000000000E+00  0.00000E+00  9.000E+00
      -1    -1     0     0     0   515  0.000000000E+00  0.000000000E+00 -5.148590428E+00  5.148590428E+00  0.000000000E+00  0.00000E+00  9.000E+00
      -1     1     1     2     0   514 -3.681175561E+00  1.132193329E+01  1.350419387E+01  1.800581515E+01  3.300000131E-01  0.00000E+00  9.000E+00
      -4     1     1     2     0   515  3.072760697E+00 -8.466928233E+00  9.716969913E+00  1.333417550E+01  1.500000000E+00  0.00000E+00  9.000E+00
       4     1     1     2   513     0  6.084148634E-01 -2.855005060E+00  1.383153622E+00  3.561507614E+00  1.500000000E+00  0.00000E+00  9.000E+00
</event>
<event>
      5  10001  2.40292E+09  4.81762E+00 -1.00000E+00  2.45691E-01
      21    -1     0     0   511   516  0.000000000E+00  0.000000000E+00  8.360133826E+01  8.360133826E+01  0.000000000E+00  0.00000E+00  9.000E+00
      21    -1     0     0   514   515  0.000000000E+00  0.000000000E+00 -1.007684935E+02  1.007684935E+02  0.000000000E+00  0.00000E+00  9.000E+00
      21     1     1     2   511   512  1.693781881E+01  6.263953375E+00 -1.130272963E+01  2.130442478E+01  6.743495762E-07  0.00000E+00  9.000E+00
      21     1     1     2   514   516 -1.212669479E+01 -6.514071161E+00  7.792807062E+01  7.913453127E+01  0.000000000E+00  0.00000E+00  9.000E+00
      21     1     1     2   512   515 -4.811124015E+00  2.501177861E-01 -8.379249619E+01  8.393087567E+01  0.000000000E+00  0.00000E+00  9.000E+00
</event>
<event>
      5  10001  2.40292E+09  7.53479E+00 -1.00000E+00  2.11063E-01
      21    -1     0     0   515   514  0.000000000E+00  0.000000000E+00  5.033628036E+01  5.033628036E+01  0.000000000E+00  0.00000E+00  9.000E+00
      -4    -1     0     0     0   513  0.000000000E+00  0.000000000E+00 -1.348201294E+01  1.348201294E+01  0.000000000E+00  0.00000E+00  9.000E+00
      -4     1     1     2     0   511 -7.112406959E+00  2.514071729E+00 -6.730477192E+00  1.022038222E+01  1.500000000E+00  0.00000E+00  9.000E+00
      21     1     1     2   515   513  1.341925127E+01  2.465266920E+00  4.347069072E+01  4.556154955E+01  4.768371582E-07  0.00000E+00  9.000E+00
      21     1     1     2   511   514 -6.306844307E+00 -4.979338649E+00  1.140538877E-01  8.036361538E+00  1.237643256E-07  0.00000E+00  9.000E+00
</event>
<event>
      5  10001  2.40292E+09  6.91007E+00 -1.00000E+00  2.16278E-01
      21    -1     0     0   512   516  0.000000000E+00  0.000000000E+00  7.329543815E+01  7.329543815E+01  0.000000000E+00  0.00000E+00  9.000E+00
      21    -1     0     0   511   513  0.000000000E+00  0.000000000E+00 -2.709355391E+01  2.709355391E+01  0.000000000E+00  0.00000E+00  9.000E+00
      21     1     1     2   512   514  1.241190140E+01  1.050396680E+00  5.886335909E+01  6.016688186E+01  6.743495762E-07  0.00000E+00  9.000E+00
      21     1     1     2   511   516 -1.055333347E+01  5.605040724E+00  1.058926030E+01  1.596626953E+01  6.529361695E-07  0.00000E+00  9.000E+00
      21     1     1     2   514   513 -1.858567927E+00 -6.655437404E+00 -2.325073515E+01  2.425584067E+01  3.371747881E-07  0.00000E+00  9.000E+00
</event>
<event>
      5  10001  2.40292E+09  4.59393E+00 -1.00000E+00  2.49966E-01
       2    -1     0     0   515     0  0.000000000E+00  0.000000000E+00  5.007415043E+02  5.007415043E+02  0.000000000E+00  0.00000E+00  9.000E+00
      21    -1     0     0   517   515  0.000000000E+00  0.000000000E+00 -2.612223407E+00  2.612223407E+00  0.000000000E+00  0.00000E+00  9.000E+00
      21     1     1     2   517   513  1.342270333E+01  4.789732048E+00  2.043093574E+01  2.491051250E+01  4.129530925E-07  0.00000E+00  9.000E+00
      21     1     1     2   513   511 -9.103538659E+00 -3.225131186E+00  6.448705434E+01  6.520625786E+01  1.348699152E-06  0.00000E+00  9.000E+00
       2     1     1     2   511     0 -4.319164668E+00 -1.564600863E+00  4.132112908E+02  4.132369574E+02  3.300000131E-01  0.00000E+00  9.000E+00
</event>
<event>
      5  10001  2.40292E+09  2.19432E+01 -1.00000E+00  1.63074E-01
      21    -1     0     0   515   513  0.000000000E+00  0.000000000E+00  1.231837739E+02  1.231837739E+02  0.000000000E+00  0.00000E+00  9.000E+00
      21    -1     0     0   516   514  0.000000000E+00  0.000000000E+00 -7.483849001E+01  7.483849001E+01  0.000000000E+00  0.00000E+00  9.000E+00
      21     1     1     2   512   514 -1.592662532E+01  9.328061638E-01  8.168139627E+01  8.322486418E+01  1.651812370E-06  0.00000E+00  9.000E+00
      21     1     1     2   516   513  3.412264189E+01 -1.319690560E+01 -6.599136064E+01  7.545444113E+01  9.536743164E-07  0.00000E+00  9.000E+00
      21     1     1     2   515   512 -1.819601657E+01  1.226409944E+01  3.265524828E+01  3.934295864E+01  0.000000000E+00  0.00000E+00  9.000E+00
</event>
<event>
      5  10001  2.40292E+09  5.06733E+00 -1.00000E+00  2.37418E-01
      21    -1     0     0   514   513  0.000000000E+00  0.000000000E+00  7.181467975E+01  7.181467975E+01  0.000000000E+00  0.00000E+00  9.000E+00
       1    -1     0     0   515     0  0.000000000E+00  0.000000000E+00 -2.752881475E+02  2.752881475E+02  0.000000000E+00  0.00000E+00  9.000E+00
      21     1     1     2   515   513  5.711952135E+00 -1.429147555E+01 -4.645782239E+01  4.894080027E+01  9.536743164E-07  0.00000E+00  9.000E+00
       1     1     1     2   511     0 -8.987187505E+00  1.042488181E+01 -2.272892994E+02  2.277059117E+02  3.300000131E-01  0.00000E+00  9.000E+00
      21     1     1     2   514   511  3.275235370E+00  3.866593743E+00  7.027365409E+01  7.045611523E+01  1.348699152E-06  0.00000E+00  9.000E+00
</event>
<event>
      5  10001  2.40292E+09  3.27294E+00 -1.00000E+00  2.85717E-01
      21    -1     0     0   512   513  0.000000000E+00  0.000000000E+00  2.092910400E+02  2.092910400E+02  0.000000000E+00  0.00000E+00  9.000E+00
      21    -1     0     0   516   512  0.000000000E+00  0.000000000E+00 -4.002812687E+00  4.002812687E+00  0.000000000E+00  0.00000E+00  9.000E+00
      21     1     1     2   511   515 -8.575926920E+00 -3.663194915E+00  5.118693418E+01  5.202948923E+01  1.348699152E-06  0.00000E+00  9.000E+00
      21     1     1     2   516   511  1.147282450E+01  5.186385154E+00  7.558868123E+00  1.468539343E+01  2.920019320E-07  0.00000E+00  9.000E+00
      21     1     1     2   515   513 -2.896897578E+00 -1.523190238E+00  1.465424250E+02  1.465789700E+02  1.907348633E-06  0.00000E+00  9.000E+00
</event>
<event>
      5  10001  2.40292E+09  4.53327E+00 -1.00000E+00  2.51190E-01
       2    -1     0     0   515     0  0.000000000E+00  0.000000000E+00  1.412460180E+03  1.412460180E+03  0.000000000E+00  0.00000E+00  9.000E+00
      21    -1     0     0   514   511  0.000000000E+00  0.000000000E+00 -1.470550426E+00  1.470550426E+00  0.000000000E+00  0.00000E+00  9.000E+00
      21     1     1     2   515   512  5.074987099E+00  8.507430358E+00  4.703026770E+01  4.806222993E+01  3.754619538E-06  0.00000E+00  9.000E+00
       2     1     1     2   514     0 -5.610776055E+00 -1.300886386E+01  1.359278374E+03  1.359352243E+03  3.300000131E-01  0.00000E+00  9.000E+00
      21     1     1     2   512   511  5.357889566E-01  4.501433504E+00  4.680987361E+00  6.516257827E+00  6.583548198E-07  0.00000E+00  9.000E+00
</event>
<event>
      5  10001  2.40292E+09  4.90122E+00 -1.00000E+00  2.44181E-01
      21    -1     0     0   513   511  0.000000000E+00  0.000000000E+00  1.265369916E+02  1.265369916E+02  0.000000000E+00  0.00000E+00  9.000E+00
      21    -1     0     0   512   516  0.000000000E+00  0.000000000E+00 -3.018971305E+00  3.018971305E+00  0.000000000E+00  0.00000E+00  9.000E+00
      21     1     1     2   513   516  1.067924357E+01  2.176471753E+00  9.104236986E+00  1.420107051E+01  4.460403188E-07  0.00000E+00  9.000E+00
      21     1     1     2   512   514 -6.732563791E+00 -1.147237104E+00  1.031420699E+02  1.033679358E+02  1.907348633E-06  0.00000E+00  9.000E+00
      21     1     1     2   514   511 -3.946679780E+00 -1.029234649E+00  1.127171341E+01  1.198695660E+01  1.685873940E-07  0.00000E+00  9.000E+00
</event>
<event>
      5  10001  2.40292E+09  3.58970E+00 -1.00000E+00  2.74942E-01
       1    -1     0     0   512     0  0.000000000E+00  0.000000000E+00  1.586785339E+02  1.586785339E+02  0.000000000E+00  0.00000E+00  9.000E+00
      21    -1     0     0   513   515  0.000000000E+00  0.000000000E+00 -1.477645057E+01  1.477645057E+01  0.000000000E+00  0.00000E+00  9.000E+00
      21     1     1     2   512   515 -1.125350298E+01  5.761071184E+00  5.139484834E+00  1.364718194E+01  6.194296387E-07  0.00000E+00  9.000E+00
       1     1     1     2   514     0  7.881539747E+00 -4.530014289E+00  1.488361013E+02  1.491138278E+02  3.300000131E-01  0.00000E+00  9.000E+00
      21     1     1     2   513   514  3.371963234E+00 -1.231056895E+00 -1.007350278E+01  1.069397473E+01  3.153981341E-07  0.00000E+00  9.000E+00
</event>
<event>
      5  10001  2.40292E+09  7.19007E+00 -1.00000E+00  2.13852E-01
      21    -1     0     0   511   516  0.000000000E+00  0.000000000E+00  1.513252408E+01  1.513252408E+01  0.000000000E+00  0.00000E+00  9.000E+00
      21    -1     0     0   512   511  0.000000000E+00  0.000000000E+00 -4.901833464E+01  4.901833464E+01  0.000000000E+00  0.00000E+00  9.000E+00
      21     1     1     2   514   516  2.964331321E+00 -1.729222618E+01  5.391718019E+00  1.835426298E+01  1.884864366E-07  0.00000E+00  9.000E+00
      21     1     1     2   513   514 -2.748223691E+00  1.010540383E+01 -6.693694605E+00  1.242889647E+01  2.665600750E-07  0.00000E+00  9.000E+00
      21     1     1     2   512   513 -2.161076300E-01  7.186822347E+00 -3.258383398E+01  3.336769927E+01  4.768371582E-07  0.00000E+00  9.000E+00
</event>
<event>
      5  10001  2.40292E+09  1.83528E+01 -1.00000E+00  1.69466E-01
      21    -1     0     0   513   514  0.000000000E+00  0.000000000E+00  2.500625152E+01  2.500625152E+01  0.000000000E+00  0.00000E+00  9.000E+00
       2    -1     0     0   514     0  0.000000000E+00  0.000000000E+00 -3.215747228E+02  3.215747228E+02  0.000000000E+00  0.00000E+00  9.000E+00
      21     1     1     2   513   512 -6.189091901E+00 -1.276479497E+01  2.112889342E+01  2.544945945E+01  6.307962682E-07  0.00000E+00  9.000E+00
       2     1     1     2   511     0  1.433117137E+01  2.005712514E+00 -2.896092807E+02  2.899707739E+02  3.300000131E-01  0.00000E+00  9.000E+00
      21     1     1     2   512   511 -8.142079469E+00  1.075908246E+01 -2.808808396E+01  3.116074091E+01  3.371747881E-07  0.00000E+00  9.000E+00
</event>
<event>
      5  10001  2.40292E+09  9.06598E+00 -1.00000E+00  2.00751E-01
      21    -1     0     0   515   511  0.000000000E+00  0.000000000E+00  9.517530516E+01  9.517530516E+01  0.000000000E+00  0.00000E+00  9.000E+00
      21    -1     0     0   514   513  0.000000000E+00  0.000000000E+00 -3.819779815E+01  3.819779815E+01  0.000000000E+00  0.00000E+00  9.000E+00
      21     1     1     2   514   516  6.951684647E+00 -4.181580711E+00  3.227553841E+01  3.327945186E+01  8.259061849E-07  0.00000E+00  9.000E+00
      21     1     1     2   516   511 -8.776824927E+00  1.306193978E+01  6.083664295E+01  6.283903287E+01  9.536743164E-07  0.00000E+00  9.000E+00
      21     1     1     2   515   513  1.825140279E+00 -8.880359073E+00 -3.613467435E+01  3.725461857E+01  4.768371582E-07  0.00000E+00  9.000E+00
</event>
<event>
      5  10001  2.40292E+09  5.45447E+00 -1.00000E+00  2.32016E-01
      -1    -1     0     0     0   512  0.000000000E+00  0.000000000E+00  1.313205574E+01  1.313205574E+01  0.000000000E+00  0.00000E+00  9.000E+00
      21    -1     0     0   512   513  0.000000000E+00  0.000000000E+00 -2.232279781E+02  2.232279781E+02  0.000000000E+00  0.00000E+00  9.000E+00
      -1     1     1     2     0   511 -5.527948545E+00 -8.297476437E+00  1.071667087E+01  1.464111556E+01  3.300000131E-01  0.00000E+00  9.000E+00
      21     1     1     2   511   514  4.164251252E+00  1.211684839E+01 -2.048120814E+02  2.052124452E+02  2.697398305E-06  0.00000E+00  9.000E+00
      21     1     1     2   514   513  1.363697293E+00 -3.819371950E+00 -1.600051189E+01  1.650647307E+01  0.000000000E+00  0.00000E+00  9.000E+00
</event>
<event>
      5  10001  2.40292E+09  4.73447E+00 -1.00000E+00  2.47239E-01
      21    -1     0     0   515   514  0.000000000E+00  0.000000000E+00  5.108931406E+01  5.108931406E+01  0.000000000E+00  0.00000E+00  9.000E+00
      21    -1     0     0   511   515  0.000000000E+00  0.000000000E+00 -2.879170316E+01  2.879170316E+01  0.000000000E+00  0.00000E+00  9.000E+00
      21     1     1     2   513   514 -8.203676878E+00  1.330584888E+00  4.200490675E+01  4.281918918E+01  8.259061849E-07  0.00000E+00  9.000E+00
      21     1     1     2   512   513  1.260153451E+01 -3.083869615E+00  3.450990957E+00  1.342453956E+01  4.786961795E-07  0.00000E+00  9.000E+00
      21     1     1     2   511   512 -4.397857630E+00  1.753284726E+00 -2.315828681E+01  2.363728848E+01  0.000000000E+00  0.00000E+00  9.000E+00
</event>
<event>
      5  10001  2.40292E+09  9.50195E+00 -1.00000E+00  1.98297E-01
      21    -1     0     0   516   512  0.000000000E+00  0.000000000E+00  2.704112630E+01  2.704112630E+01  0.000000000E+00  0.00000E+00  9.000E+00
      21    -1     0     0   511   517  0.000000000E+00  0.000000000E+00 -9.903374097E+00  9.903374097E+00  0.000000000E+00  0.00000E+00  9.000E+00
      21     1     1     2   516   517 -9.042659529E+00  8.465264344E+00  1.467461659E+00  1.247332496E+01  1.837138534E-07  0.00000E+00  9.000E+00
      21     1     1     2   511   513  1.158393427E+01 -6.679152755E+00  6.655674213E+00  1.493641904E+01  3.769728732E-07  0.00000E+00  9.000E+00
      21     1     1     2   513   512 -2.541274739E+00 -1.786111589E+00  9.014616329E+00  9.534756393E+00  1.192092896E-07  0.00000E+00  9.000E+00
</event>
<event>
      5  10001  2.40292E+09  8.36574E+00 -1.00000E+00  2.05100E-01
      21    -1     0     0   514   513  0.000000000E+00  0.000000000E+00  1.787316326E+02  1.787316326E+02  0.000000000E+00  0.00000E+00  9.000E+00
      21    -1     0     0   512   514  0.000000000E+00  0.000000000E+00 -5.929444683E+01  5.929444683E+01  0.000000000E+00  0.00000E+00  9.000E+00
      21     1     1     2   511   513 -1.652688641E+01 -2.116691130E+01  1.723639841E+02  1.744434554E+02  1.907348633E-06  0.00000E+00  9.000E+00
      -4     1     1     2     0   511  1.657935998E+01  1.218240763E+01 -4.988042077E+01  5.397770474E+01  1.500000000E+00  0.00000E+00  9.000E+00
       4     1     1     2   512     0 -5.247356525E-02  8.984503664E+00 -3.046377527E+00  9.604919344E+00  1.500000000E+00  0.00000E+00  9.000E+00
</event>
<event>
      5  10001  2.40292E+09  5.97375E+00 -1.00000E+00  2.25689E-01
      21    -1     0     0   515   513  0.000000000E+00  0.000000000E+00  2.088725708E+01  2.088725708E+01  0.000000000E+00  0.00000E+00  9.000E+00
      21    -1     0     0   512   516  0.000000000E+00  0.000000000E+00 -1.190584512E+01  1.190584512E+01  0.000000000E+00  0.00000E+00  9.000E+00
      21     1     1     2   515   516  7.360630425E+00 -1.153246975E+01 -2.467551089E+00  1.390199796E+01  1.812804499E-07  0.00000E+00  9.000E+00
      21     1     1     2   511   513 -4.405487941E+00  4.267237443E+00  8.564768887E+00  1.053436782E+01  1.192092896E-07  0.00000E+00  9.000E+00
      21     1     1     2   512   511 -2.955142485E+00  7.265232310E+00  2.884194158E+00  8.356736419E+00  2.064765462E-07  0.00000E+00  9.000E+00
</event>
<event>
      5  10001  2.40292E+09  1.23738E+01 -1.00000E+00  1.85586E-01
      21    -1     0     0   514   511  0.000000000E+00  0.000000000E+00  8.062896172E+01  8.062896172E+01  0.000000000E+00  0.00000E+00  9.000E+00
       2    -1     0     0   513     0  0.000000000E+00  0.000000000E+00 -1.108123492E+02  1.108123492E+02  0.000000000E+00  0.00000E+00  9.000E+00
      21     1     1     2   513   511 -6.391700764E+00 -1.597082045E+01  6.305688851E+01  6.536124335E+01  6.743495762E-07  0.00000E+00  9.000E+00
       2     1     1     2   512     0  1.379326339E+01  6.054861616E+00 -1.067221966E+02  1.077805716E+02  3.300000131E-01  0.00000E+00  9.000E+00
      21     1     1     2   514   512 -7.401562631E+00  9.915958837E+00  1.348192062E+01  1.829949597E+01  2.384185791E-07  0.00000E+00  9.000E+00
</event>
<event>
      5  10001  2.40292E+09  3.11537E+00 -1.00000E+00  2.91848E-01
      21    -1     0     0   515   512  0.000000000E+00  0.000000000E+00  2.213805500E+02  2.213805500E+02  0.000000000E+00  0.00000E+00  9.000E+00
      21    -1     0     0   511   516  0.000000000E+00  0.000000000E+00 -1.633494856E+00  1.633494856E+00  0.000000000E+00  0.00000E+00  9.000E+00
      21     1     1     2   515   516  8.750616134E+00  9.995107001E+00  3.056145183E+01  3.332383208E+01  9.536743164E-07  0.00000E+00  9.000E+00
       2     1     1     2   511     0 -6.798413380E+00 -5.032031530E+00  1.110774021E+02  1.113994520E+02  3.300000131E-01  0.00000E+00  9.000E+00
      -2     1     1     2     0   512 -1.952202755E+00 -4.963075471E+00  7.810820123E+01  7.829076071E+01  3.300000131E-01  0.00000E+00  9.000E+00
</event>
<event>
      5  10001  2.40292E+09  7.40465E+00 -1.00000E+00  2.12092E-01
      21    -1     0     0   513   514  0.000000000E+00  0.000000000E+00  1.941606106E+02  1.941606106E+02  0.000000000E+00  0.00000E+00  9.000E+00
      21    -1     0     0   512   513  0.000000000E+00  0.000000000E+00 -1.032674627E+02  1.032674627E+02  0.000000000E+00  0.00000E+00  9.000E+00
      21     1     1     2   511   514 -3.661843416E+00 -1.177285736E+01  1.930067456E+02  1.934001373E+02  2.697398305E-06  0.00000E+00  9.000E+00
      21     1     1     2   512   515  5.894627422E+00  4.387061168E+00 -8.424165628E+01  8.456151365E+01  2.861022949E-06  0.00000E+00  9.000E+00
      21     1     1     2   515   511 -2.232784005E+00  7.385796194E+00 -1.787194140E+01  1.946642235E+01  0.000000000E+00  0.00000E+00  9.000E+00
</event>
<event>
      5  10001  2.40292E+09  1.03668E+01 -1.00000E+00  1.93909E-01
      -1    -1     0     0     0   511  0.000000000E+00  0.000000000E+00  4.209258022E+01  4.209258022E+01  0.000000000E+00  0.00000E+00  9.000E+00
       1    -1     0     0   512     0  0.000000000E+00  0.000000000E+00 -7.558307945E+02  7.558307945E+02  0.000000000E+00  0.00000E+00  9.000E+00
      -1     1     1     2     0   513  8.701395016E+00 -1.329193016E+01  4.041862681E+01  4.342998936E+01  3.300000131E-01  0.00000E+00  9.000E+00
       1     1     1     2   513     0 -6.252172411E+00  3.218642247E+00 -5.710016990E+02  5.710450932E+02  3.300000131E-01  0.00000E+00  9.000E+00
      21     1     1     2   512   511 -2.449222605E+00  1.007328791E+01 -1.831551421E+02  1.834482921E+02  2.697398305E-06  0.00000E+00  9.000E+00
</event>
<event>
      5  10001  2.40292E+09  1.21890E+01 -1.00000E+00  1.86265E-01
      21    -1     0     0   514   513  0.000000000E+00  0.000000000E+00  6.655535633E+01  6.655535633E+01  0.000000000E+00  0.00000E+00  9.000E+00
      21    -1     0     0   512   515  0.000000000E+00  0.000000000E+00 -4.469420654E+02  4.469420654E+02  0.000000000E+00  0.00000E+00  9.000E+00
      21     1     1     2   514   511  2.011662536E-02  1.462512796E+01  5.697221235E+01  5.881945046E+01  9.536743164E-07  0.00000E+00  9.000E+00
      21     1     1     2   512   513  8.117969823E+00 -5.550870271E+00  5.756317233E+00  1.139512101E+01  8.429369702E-08  0.00000E+00  9.000E+00
      21     1     1     2   511   515 -8.138086449E+00 -9.074257689E+00 -4.431152386E+02  4.432828502E+02  5.394796609E-06  0.00000E+00  9.000E+00
</event>
<event>
      5  10001  2.40292E+09  1.21505E+01 -1.00000E+00  1.86408E-01
      21    -1     0     0   516   513  0.000000000E+00  0.000000000E+00  1.316457206E+02  1.316457206E+02  0.000000000E+00  0.00000E+00  9.000E+00
      21    -1     0     0   513   514  0.000000000E+00  0.000000000E+00 -1.713460620E+00  1.713460620E+00  0.000000000E+00  0.00000E+00  9.000E+00
      -3     1     1     2     0   514 -3.846135200E+00  1.061347954E+01  6.301912119E+01  6.402420120E+01  5.000000000E-01  0.00000E+00  9.000E+00
       3     1     1     2   512     0  7.238647763E+00 -4.563186695E+00  1.804851360E+01  1.998047891E+01  5.000000000E-01  0.00000E+00  9.000E+00
      21     1     1     2   516   512 -3.392512563E+00 -6.050292841E+00  4.886462523E+01  4.935450115E+01  6.743495762E-07  0.00000E+00  9.000E+00
</event>
<event>
      5  10001  2.40292E+09  4.62068E+00 -1.00000E+00  2.49436E-01
      21    -1     0     0   511   515  0.000000000E+00  0.000000000E+00  2.112827413E+01  2.112827413E+01  0.000000000E+00  0.00000E+00  9.000E+00
      21    -1     0     0   514   511  0.000000000E+00  0.000000000E+00 -3.213699932E+02  3.213699932E+02  0.000000000E+00  0.00000E+00  9.000E+00
      21     1     1     2   512   515  9.854749759E+00  1.054013558E+01  1.840625006E+01  2.338804378E+01  1.283923342E-06  0.00000E+00  9.000E+00
      21     1     1     2   513   512 -7.267270779E+00 -6.711863166E+00 -1.195351190E+02  1.199437660E+02  1.907348633E-06  0.00000E+00  9.000E+00
      21     1     1     2   514   513 -2.587478980E+00 -3.828272412E+00 -1.991128501E+02  1.991664575E+02  2.697398305E-06  0.00000E+00  9.000E+00
</event>
<event>
      5  10001  2.40292E+09  1.82586E+01 -1.00000E+00  1.69657E-01
      21    -1     0     0   516   513  0.000000000E+00  0.000000000E+00  7.079893961E+01  7.079893961E+01  0.000000000E+00  0.00000E+00  9.000E+00
      21    -1     0     0   514   517  0.000000000E+00  0.000000000E+00 -7.348901777E+00  7.348901777E+00  0.000000000E+00  0.00000E+00  9.000E+00
      21     1     1     2   516   517  4.941266391E+00  4.031253381E+00  4.058971738E+01  4.108761704E+01  0.000000000E+00  0.00000E+00  9.000E+00
      21     1     1     2   511   513 -3.740713162E+00 -5.701031347E+00 -5.416803413E+00  8.708412749E+00  3.039252468E-07  0.00000E+00  9.000E+00
      21     1     1     2   514   511 -1.200553229E+00  1.669777966E+00  2.827712387E+01  2.835181160E+01  0.000000000E+00  0.00000E+00  9.000E+00
</event>
<event>
      5  10001  2.40292E+09  3.96544E+00 -1.00000E+00  2.64252E-01
      21    -1     0     0   513   511  0.000000000E+00  0.000000000E+00  3.983583654E+01  3.983583654E+01  0.000000000E+00  0.00000E+00  9.000E+00
      21    -1     0     0   514   515  0.000000000E+00  0.000000000E+00 -3.127497055E+01  3.127497055E+01  0.000000000E+00  0.00000E+00  9.000E+00
      21     1     1     2   512   515  3.264050207E+00  1.408566306E+01 -2.672200769E+01  3.038298245E+01  6.743495762E-07  0.00000E+00  9.000E+00
      21     1     1     2   514   511  6.375929656E-01 -1.337721765E+01  3.402797494E+01  3.656855966E+01  6.743495762E-07  0.00000E+00  9.000E+00
      21     1     1     2   513   512 -3.901643172E+00 -7.084454157E-01  1.254898738E+00  4.159264982E+00  4.470348358E-08  0.00000E+00  9.000E+00
</event>
<event>
      5  10001  2.40292E+09  6.36032E+00 -1.00000E+00  2.21533E-01
      21    -1     0     0   516   514  0.000000000E+00  0.000000000E+00  2.574722424E+02  2.574722424E+02  0.000000000E+00  0.00000E+00  9.000E+00
      21    -1     0     0   517   511  0.000000000E+00  0.000000000E+00 -1.455135590E+00  1.455135590E+00  0.000000000E+00  0.00000E+00  9.000E+00
      21     1     1     2   516   512 -6.959532018E+00  8.621680009E+00  1.397299495E+02  1.401685672E+02  1.907348633E-06  0.00000E+00  9.000E+00
      21     1     1     2   517   514  7.839576308E-01 -1.014352144E+01  1.071156012E+02  1.075976656E+02  3.015782986E-06  0.00000E+00  9.000E+00
      21     1     1     2   512   511  6.175574387E+00  1.521841434E+00  9.171556112E+00  1.116114519E+01  2.384185791E-07  0.00000E+00  9.000E+00
</event>
<event>
      5  10001  2.40292E+09  1.11334E+01 -1.00000E+00  1.90462E-01
       2    -1     0     0   512     0  0.000000000E+00  0.000000000E+00  5.760837914E+02  5.760837914E+02  0.000000000E+00  0.00000E+00  9.000E+00
      21    -1     0     0   513   511  0.000000000E+00  0.000000000E+00 -1.264985886E+02  1.264985886E+02  0.000000000E+00  0.00000E+00  9.000E+00
      21     1     1     2   512   514 -7.446269312E+00  6.444413007E-01 -1.247429566E+02  1.249666654E+02  6.468133910E-06  0.00000E+00  9.000E+00
       2     1     1     2   513     0  1.087763307E+01 -7.286814156E+00  5.669853085E+02  5.671365528E+02  3.300000131E-01  0.00000E+00  9.000E+00
      21     1     1     2   514   511 -3.431363754E+00  6.642372855E+00  7.342850789E+00  1.047916180E+01  1.460009660E-07  0.00000E+00  9.000E+00
</event>
<event>
      5  10001  2.40292E+09  3.09467E+00 -1.00000E+00  2.92698E-01
       2    -1     0     0   511     0  0.000000000E+00  0.000000000E+00  3.094730801E+02  3.094730801E+02  0.000000000E+00  0.00000E+00  9.000E+00
       4    -1     0     0   514     0  0.000000000E+00  0.000000000E+00 -2.385989210E+00  2.385989210E+00  0.000000000E+00  0.00000E+00  9.000E+00
       2     1     1     2   514     0 -8.656988515E+00  5.034071214E+00  2.847979446E+02  2.849741452E+02  3.300000131E-01  0.00000E+00  9.000E+00
      21     1     1     2   511   512  9.063216886E+00 -2.715400973E+00  8.194650160E+00  1.251669261E+01  3.576278687E-07  0.00000E+00  9.000E+00
       4     1     1     2   512     0 -4.062283718E-01 -2.318670241E+00  1.409449614E+01  1.436823144E+01  1.500000000E+00  0.00000E+00  9.000E+00
</event>
<event>
      5  10001  2.40292E+09  8.04088E+00 -1.00000E+00  2.07316E-01
       1    -1     0     0   511     0  0.000000000E+00  0.000000000E+00  2.660888013E+02  2.660888013E+02  0.000000000E+00  0.00000E+00  9.000E+00
      -3    -1     0     0     0   512  0.000000000E+00  0.000000000E+00 -6.461538599E+00  6.461538599E+00  0.000000000E+00  0.00000E+00  9.000E+00
      -3     1     1     2     0   513 -7.674361790E+00 -9.519081142E+00  9.183276533E-01  1.227200311E+01  5.000000000E-01  0.00000E+00  9.000E+00
       1     1     1     2   513     0  1.126775946E+01  2.326663170E+00  4.602350507E+01  4.744099160E+01  3.300000131E-01  0.00000E+00  9.000E+00
      21     1     1     2   511   512 -3.593397674E+00  7.192417972E+00  2.126854300E+02  2.128373452E+02  2.697398305E-06  0.00000E+00  9.000E+00
</event>
<event>
      5  10001  2.40292E+09  5.45776E+00 -1.00000E+00  2.31973E-01
      21    -1     0     0   514   513  0.000000000E+00  0.000000000E+00  3.836936429E+02  3.836936429E+02  0.000000000E+00  0.00000E+00  9.000E+00
      21    -1     0     0   515   516  0.000000000E+00  0.000000000E+00 -9.362110649E+00  9.362110649E+00  0.000000000E+00  0.00000E+00  9.000E+00
      21     1     1     2   515   512  4.996670558E+00  1.178965883E+01  3.806910375E+01  4.016490299E+01  1.348699152E-06  0.00000E+00  9.000E+00
      21     1     1     2   512   513 -5.463470547E-01 -8.630270091E+00  3.436206747E+02  3.437294694E+02  9.344061824E-06  0.00000E+00  9.000E+00
      21     1     1     2   514   516 -4.450323503E+00 -3.159388738E+00 -7.358246230E+00  9.161381122E+00  4.129530925E-07  0.00000E+00  9.000E+00
</event>
<event>
      5  10001  2.40292E+09  1.14966E+01 -1.00000E+00  1.88952E-01
      21    -1     0     0   511   512  0.000000000E+00  0.000000000E+00  1.002428251E+01  1.002428251E+01  0.000000000E+00  0.00000E+00  9.000E+00
      21    -1     0     0   517   511  0.000000000E+00  0.000000000E+00 -2.977611903E+01  2.977611903E+01  0.000000000E+00  0.00000E+00  9.000E+00
      21     1     1     2   517   515 -8.200976758E+00 -2.034427550E+00 -1.949397338E+01  2.124640943E+01  3.371747881E-07  0.00000E+00  9.000E+00
      21     1     1     2   515   513  9.193343235E+00  8.182417025E+00  2.077173594E-01  1.230904768E+01  2.423730096E-07  0.00000E+00  9.000E+00
      21     1     1     2   513   512 -9.923664769E-01 -6.147989475E+00 -4.655804925E-01  6.244944435E+00  1.138501375E-07  0.00000E+00  9.000E+00
</event>
<event>
      5  10001  2.40292E+09  1.65063E+01 -1.00000E+00  1.73510E-01
      21    -1     0     0   514   513  0.000000000E+00  0.000000000E+00  2.858000663E+00  2.858000663E+00  0.000000000E+00  0.00000E+00  9.000E+00
      21    -1     0     0   512   514  0.000000000E+00  0.000000000E+00 -3.846474978E+01  3.846474978E+01  0.000000000E+00  0.00000E+00  9.000E+00
      21     1     1     2   516   513  3.994934522E+00  1.843539710E+00 -6.021343026E+00  7.457527227E+00  2.064765462E-07  0.00000E+00  9.000E+00
      21     1     1     2   512   511 -2.624453196E+00  5.369666400E+00 -2.373852675E+01  2.447935302E+01  4.768371582E-07  0.00000E+00  9.000E+00
      21     1     1     2   511   516 -1.370481326E+00 -7.213206110E+00 -5.846879346E+00  9.385870206E+00  1.460009660E-07  0.00000E+00  9.000E+00
</event>
<event>
      5  10001  2.40292E+09  1.50869E+01 -1.00000E+00  1.77100E-01
      21    -1     0     0   515   514  0.000000000E+00  0.000000000E+00  1.078455007E+01  1.078455007E+01  0.000000000E+00  0.00000E+00  9.000E+00
      21    -1     0     0   513   516  0.000000000E+00  0.000000000E+00 -8.767864483E+01  8.767864483E+01  0.000000000E+00  0.00000E+00  9.000E+00
      21     1     1     2   515   516 -1.357181859E+01  7.314365795E+00 -3.353840966E+01  3.691231677E+01  6.743495762E-07  0.00000E+00  9.000E+00
      21     1     1     2   513   512  1.841582352E+01 -2.160251722E+01 -2.533285298E+01  3.804687565E+01  3.371747881E-07  0.00000E+00  9.000E+00
      21     1     1     2   512   514 -4.844004936E+00  1.428815142E+01 -1.802283213E+01  2.350400248E+01  0.000000000E+00  0.00000E+00  9.000E+00
</event>
<event>
      5  10001  2.40292E+09  4.77764E+00 -1.00000E+00  2.46429E-01
      -4    -1     0     0     0   511  0.000000000E+00  0.000000000E+00  8.909708141E+01  8.909708141E+01  0.000000000E+00  0.00000E+00  9.000E+00
       1    -1     0     0   511     0  0.000000000E+00  0.000000000E+00 -1.074404071E+01  1.074404071E+01  0.000000000E+00  0.00000E+00  9.000E+00
      -4     1     1     2     0   512 -9.551820744E+00  1.768894402E+00  5.502702872E+01  5.589803356E+01  1.500000000E+00  0.00000E+00  9.000E+00
      21     1     1     2   512   514  9.160098372E+00 -6.526034001E+00  3.206484930E+01  3.398015719E+01  4.768371582E-07  0.00000E+00  9.000E+00
       1     1     1     2   514     0  3.917223726E-01  4.757139599E+00 -8.738837317E+00  9.962931357E+00  3.300000131E-01  0.00000E+00  9.000E+00
</event>
<event>
      5  10001  2.40292E+09  1.05336E+01 -1.00000E+00  1.93126E-01
      21    -1     0     0   513   512  0.000000000E+00  0.000000000E+00  2.028050312E+00  2.028050312E+00  0.000000000E+00  0.00000E+00  9.000E+00
      21    -1     0     0   511   513  0.000000000E+00  0.000000000E+00 -1.047866304E+02  1.047866304E+02  0.000000000E+00  0.00000E+00  9.000E+00
      21     1     1     2   511   515  8.045937344E+00  4.972818117E+00 -7.417520601E+01  7.477584647E+01  0.000000000E+00  0.00000E+00  9.000E+00
      21     1     1     2   516   512 -2.533613554E+00  8.137479840E-01 -3.354533202E-01  2.682146967E+00  1.383883925E-07  0.00000E+00  9.000E+00
      21     1     1     2   515   516 -5.512323790E+00 -5.786566101E+00 -2.824792070E+01  2.935668723E+01  3.371747881E-07  0.00000E+00  9.000E+00
</event>
<event>
      5  10001  2.40292E+09  7.84211E+00 -1.00000E+00  2.08742E-01
      21    -1     0     0   512   515  0.000000000E+00  0.000000000E+00  4.857051915E+01  4.857051915E+01  0.000000000E+00  0.00000E+00  9.000E+00
      21    -1     0     0   511   517  0.000000000E+00  0.000000000E+00 -8.072076202E+01  8.072076202E+01  0.000000000E+00  0.00000E+00  9.000E+00
      21     1     1     2   514   517 -1.580693804E+01 -2.860883806E+00 -7.510218923E+01  7.680092951E+01  1.907348633E-06  0.00000E+00  9.000E+00
      21     1     1     2   511   515  7.966140945E+00  2.717528037E+00 -4.081504397E-01  8.426799331E+00  3.041078393E-07  0.00000E+00  9.000E+00
      21     1     1     2   512   514  7.840797097E+00  1.433557686E-01  4.336009680E+01  4.406355234E+01  9.536743164E-07  0.00000E+00  9.000E+00
</event>
<event>
      5  10001  2.40292E+09  6.60634E+00 -1.00000E+00  2.19095E-01
       2    -1     0     0   511     0  0.000000000E+00  0.000000000E+00  5.344447769E+02  5.344447769E+02  0.000000000E+00  0.00000E+00  9.000E+00
      21    -1     0     0   515   513  0.000000000E+00  0.000000000E+00 -3.812086518E+00  3.812086518E+00  0.000000000E+00  0.00000E+00  9.000E+00
      21     1     1     2   511   513  2.620436706E+00  1.167044365E+01  2.239795881E+01  2.539162268E+01  1.599360450E-06  0.00000E+00  9.000E+00
       2     1     1     2   512     0  3.800337728E+00 -1.011605660E+01  5.056590919E+02  5.057746567E+02  3.300000131E-01  0.00000E+00  9.000E+00
      21     1     1     2   515   512 -6.420774434E+00 -1.554387052E+00  2.575639693E+00  7.090584128E+00  4.500051996E-07  0.00000E+00  9.000E+00
</event>
<event>
      5  10001  2.40292E+09  7.40619E+00 -1.00000E+00  2.12080E-01
      21    -1     0     0   514   516  0.000000000E+00  0.000000000E+00  2.156037492E+00  2.156037492E+00  0.000000000E+00  0.00000E+00  9.000E+00
      21    -1     0     0   515   514  0.000000000E+00  0.000000000E+00 -5.230980088E+01  5.230980088E+01  0.000000000E+00  0.00000E+00  9.000E+00
      21     1     1     2   512   516  8.118783235E+00  4.065126038E+00 -3.025831799E+01  3.159122819E+01  4.768371582E-07  0.00000E+00  9.000E+00
      21     1     1     2   511   512 -3.982853742E+00 -2.941974207E+00 -1.699005408E+01  1.769690012E+01  0.000000000E+00  0.00000E+00  9.000E+00
      21     1     1     2   515   511 -4.135929493E+00 -1.123151832E+00 -2.905391319E+00  5.177710066E+00  9.424321831E-08  0.00000E+00  9.000E+00
</event>
<event>
      5  10001  2.40292E+09  6.81885E+00 -1.00000E+00  2.17103E-01
      21    -1     0     0   512   511  0.000000000E+00  0.000000000E+00  2.172070049E+02  2.172070049E+02  0.000000000E+00  0.00000E+00  9.000E+00
      -2    -1     0     0     0   513  0.000000000E+00  0.000000000E+00 -1.647038186E+01  1.647038186E+01  0.000000000E+00  0.00000E+00  9.000E+00
      -2     1     1     2     0   511  1.005657004E+01  1.417836317E+01 -1.132955187E+01  2.075158376E+01  3.300000131E-01  0.00000E+00  9.000E+00
      21     1     1     2   514   513 -2.323464438E+00 -9.992666225E+00  1.226322006E+02  1.230605887E+02  1.348699152E-06  0.00000E+00  9.000E+00
      21     1     1     2   512   514 -7.733105598E+00 -4.185696944E+00  8.943397425E+01  8.986521425E+01  1.651812370E-06  0.00000E+00  9.000E+00
</event>
<event>
      5  10001  2.40292E+09  8.98678E+00 -1.00000E+00  2.01216E-01
      21    -1     0     0   515   514  0.000000000E+00  0.000000000E+00  7.344583011E+00  7.344583011E+00  0.000000000E+00  0.00000E+00  9.000E+00
       2    -1     0     0   511     0  0.000000000E+00  0.000000000E+00 -1.422765998E+02  1.422765998E+02  0.000000000E+00  0.00000E+00  9.000E+00
      21     1     1     2   511   514 -9.676295407E+00 -2.347658536E+00  3.415570215E+00  1.052655277E+01  2.889442359E-07  0.00000E+00  9.000E+00
       2     1     1     2   513     0  1.783724350E+00  4.640190122E+00 -8.195284568E+01  8.210414638E+01  3.300000131E-01  0.00000E+00  9.000E+00
      21     1     1     2   515   513  7.892571057E+00 -2.292531586E+00 -5.639474136E+01  5.699048370E+01  9.536743164E-07  0.00000E+00  9.000E+00
</event>
<event>
      5  10001  2.40292E+09  4.30124E+00 -1.00000E+00  2.56153E-01
       2    -1     0     0   512     0  0.000000000E+00  0.000000000E+00  8.065967433E+02  8.065967433E+02  0.000000000E+00  0.00000E+00  9.000E+00
      21    -1     0     0   511   516  0.000000000E+00  0.000000000E+00 -1.789938755E+00  1.789938755E+00  0.000000000E+00  0.00000E+00  9.000E+00
      21     1     1     2   512   516  7.579737094E+00  1.021577198E+01  2.463117246E+01  2.772199611E+01  9.536743164E-07  0.00000E+00  9.000E+00
      21     1     1     2   511   513 -3.287400318E+00 -9.940736355E+00  1.151421045E+02  1.156171677E+02  1.907348633E-06  0.00000E+00  9.000E+00
       2     1     1     2   513     0 -4.292336776E+00 -2.750356282E-01  6.650335276E+02  6.650475183E+02  3.300000131E-01  0.00000E+00  9.000E+00
</event>
<event>
      5  10001  2.40292E+09  6.70894E+00 -1.00000E+00  2.18121E-01
      21    -1     0     0   513   511  0.000000000E+00  0.000000000E+00  5.994596836E+01  5.994596836E+01  0.000000000E+00  0.00000E+00  9.000E+00
       3    -1     0     0   514     0  0.000000000E+00  0.000000000E+00 -2.241816235E+00  2.241816235E+00  0.000000000E+00  0.00000E+00  9.000E+00
      21     1     1     2   514   512  1.920106109E+00 -5.143998568E+00  8.959168655E+00  1.050781765E+01  0.000000000E+00  0.00000E+00  9.000E+00
       3     1     1     2   513     0 -5.322351339E+00  9.115826661E+00  2.172936302E+01  2.416280068E+01  5.000000000E-01  0.00000E+00  9.000E+00
      21     1     1     2   512   511  3.402245231E+00 -3.971828093E+00  2.701562045E+01  2.751716627E+01  3.371747881E-07  0.00000E+00  9.000E+00
</event>
<event>
      5  10001  2.40292E+09  3.13031E+00 -1.00000E+00  2.91241E-01
       1    -1     0     0   514     0  0.000000000E+00  0.000000000E+00  3.483212275E+00  3.483212275E+00  0.000000000E+00  0.00000E+00  9.000E+00
       3    -1     0     0   512     0  0.000000000E+00  0.000000000E+00 -1.993832535E+02  1.993832535E+02  0.000000000E+00  0.00000E+00  9.000E+00
       1     1     1     2   512     0 -4.588815213E+00 -8.393958176E+00 -3.999040900E+00  1.037386076E+01  3.300000131E-01  0.00000E+00  9.000E+00
       3     1     1     2   513     0  4.996128755E+00  6.978378698E+00 -1.893634954E+02  1.895585462E+02  5.000000000E-01  0.00000E+00  9.000E+00
      21     1     1     2   514   513 -4.073135422E-01  1.415579478E+00 -2.537505006E+00  2.934058833E+00  2.980232239E-08  0.00000E+00  9.000E+00
</event>
<event>
      5  10001  2.40292E+09  1.71489E+01 -1.00000E+00  1.72031E-01
      21    -1     0     0   511   513  0.000000000E+00  0.000000000E+00  3.862410715E+02  3.862410715E+02  0.000000000E+00  0.00000E+00  9.000E+00
       2    -1     0     0   514     0  0.000000000E+00  0.000000000E+00 -1.876044017E+00  1.876044017E+00  0.000000000E+00  0.00000E+00  9.000E+00
      21     1     1     2   514   512 -1.699825763E+01 -5.583040500E+00  2.298093772E+02  2.305047959E+02  0.000000000E+00  0.00000E+00  9.000E+00
       2     1     1     2   511     0  9.287981988E+00  5.060133367E+00  1.831220560E+01  2.114987785E+01  3.300000131E-01  0.00000E+00  9.000E+00
      21     1     1     2   512   513  7.710275639E+00  5.229071327E-01  1.362434447E+02  1.364624418E+02  1.907348633E-06  0.00000E+00  9.000E+00
</event>
<event>
      5  10001  2.40292E+09  3.11558E+00 -1.00000E+00  2.91839E-01
      21    -1     0     0   514   513  0.000000000E+00  0.000000000E+00  7.299079996E+01  7.299079996E+01  0.000000000E+00  0.00000E+00  9.000E+00
      21    -1     0     0   513   511  0.000000000E+00  0.000000000E+00 -1.094671520E+01  1.094671520E+01  0.000000000E+00  0.00000E+00  9.000E+00
      -2     1     1     2     0   511  1.055106345E+01 -7.135500210E+00 -5.025407594E+00  1.369685820E+01  3.300000131E-01  0.00000E+00  9.000E+00
       2     1     1     2   515     0 -1.163811036E+01  1.005499997E+01  3.786859384E+01  4.087404967E+01  3.300000131E-01  0.00000E+00  9.000E+00
      21     1     1     2   514   515  1.087046910E+00 -2.919499764E+00  2.920089851E+01  2.936660729E+01  0.000000000E+00  0.00000E+00  9.000E+00
</event>
<event>
      5  10001  2.40292E+09  5.88759E+00 -1.00000E+00  2.26676E-01
      -4    -1     0     0     0   512  0.000000000E+00  0.000000000E+00  8.863948805E+01  8.863948805E+01  0.000000000E+00  0.00000E+00  9.000E+00
      21    -1     0     0   514   515  0.000000000E+00  0.000000000E+00 -3.768013981E+00  3.768013981E+00  0.000000000E+00  0.00000E+00  9.000E+00
      -4     1     1     2     0   511 -7.369694719E+00  2.609434215E+00  7.795577381E+01  7.836117800E+01  1.500000000E+00  0.00000E+00  9.000E+00
      21     1     1     2   514   512  8.798392406E+00 -4.471238255E+00  5.362666065E+00  1.123218001E+01  2.064765462E-07  0.00000E+00  9.000E+00
      21     1     1     2   511   515 -1.428697686E+00  1.861804040E+00  1.553034193E+00  2.814144020E+00  4.712160915E-08  0.00000E+00  9.000E+00
</event>
<event>
      5  10001  2.40292E+09  7.36430E+00 -1.00000E+00  2.12417E-01
      21    -1     0     0   515   512  0.000000000E+00  0.000000000E+00  7.133108724E+00  7.133108724E+00  0.000000000E+00  0.00000E+00  9.000E+00
      -1    -1     0     0     0   513  0.000000000E+00  0.000000000E+00 -5.849109936E+01  5.849109936E+01  0.000000000E+00  0.00000E+00  9.000E+00
      -1     1     1     2     0   514  6.071793805E+00 -1.319902813E+01 -4.373764979E+01  4.608873976E+01  3.300000131E-01  0.00000E+00  9.000E+00
      21     1     1     2   515   513 -5.471572180E+00  9.207240434E+00  2.248245248E-01  1.071269922E+01  1.085779938E-07  0.00000E+00  9.000E+00
      21     1     1     2   514   512 -6.002216251E-01  3.991787692E+00 -7.845165372E+00  8.822769105E+00  1.460009660E-07  0.00000E+00  9.000E+00
</event>
<event>
      5  10001  2.40292E+09  5.86890E+00 -1.00000E+00  2.26893E-01
      21    -1     0     0   511   514  0.000000000E+00  0.000000000E+00  3.714712238E+02  3.714712238E+02  0.000000000E+00  0.00000E+00  9.000E+00
      21    -1     0     0   513   511  0.000000000E+00  0.000000000E+00 -4.168759860E+01  4.168759860E+01  0.000000000E+00  0.00000E+00  9.000E+00
      21     1     1     2   512   516 -1.273440003E+01  4.378438285E+00  3.352550030E+01  3.612886431E+01  4.768371582E-07  0.00000E+00  9.000E+00
      21     1     1     2   516   514  1.320513407E+01  1.471554791E+00  3.362989417E+02  3.365613157E+02  3.814697266E-06  0.00000E+00  9.000E+00
      21     1     1     2   513   512 -4.707340321E-01 -5.849993076E+00 -4.004081678E+01  4.046864241E+01  1.581489940E-06  0.00000E+00  9.000E+00
</event>
<event>
      5  10001  2.40292E+09  1.11298E+01 -1.00000E+00  1.90477E-01
      21    -1     0     0   515   516  0.000000000E+00  0.000000000E+00  5.169106894E+00  5.169106894E+00  0.000000000E+00  0.00000E+00  9.000E+00
      21    -1     0     0   513   512  0.000000000E+00  0.000000000E+00 -5.160030041E+01  5.160030041E+01  0.000000000E+00  0.00000E+00  9.000E+00
      21     1     1     2   515   512  7.963905219E+00 -4.513869056E+00 -9.410124622E-01  9.202407546E+00  5.475036225E-08  0.00000E+00  9.000E+00
      21     1     1     2   513   511 -2.635009259E+00 -2.452191164E+00 -2.529111012E+01  2.554597358E+01  0.000000000E+00  0.00000E+00  9.000E+00
      21     1     1     2   511   516 -5.328895960E+00  6.966060220E+00 -2.019907093E+01  2.202102617E+01  3.371747881E-07  0.00000E+00  9.000E+00
</event>
<event>
      5  10001  2.40292E+09  3.23289E+00 -1.00000E+00  2.87221E-01
       2    -1     0     0   514     0  0.000000000E+00  0.000000000E+00  1.702451821E+01  1.702451821E+01  0.000000000E+00  0.00000E+00  9.000E+00
      21    -1     0     0   517   516  0.000000000E+00  0.000000000E+00 -5.560187900E+01  5.560187900E+01  0.000000000E+00  0.00000E+00  9.000E+00
      21     1     1     2   514   516 -5.177285432E-01  1.030897556E+01  5.732755686E+00  1.180709565E+01  3.576278687E-07  0.00000E+00  9.000E+00
      21     1     1     2   517   512 -8.400221765E-01 -1.324269783E+01 -5.136540213E+01  5.305166556E+01  6.743495762E-07  0.00000E+00  9.000E+00
       2     1     1     2   512     0  1.357750720E+00  2.933722272E+00  7.055285652E+00  7.767635999E+00  3.300000131E-01  0.00000E+00  9.000E+00
</event>
<event>
      5  10001  2.40292E+09  7.59897E+00 -1.00000E+00  2.10566E-01
      -1    -1     0     0     0   511  0.000000000E+00  0.000000000E+00  1.670198993E+02  1.670198993E+02  0.000000000E+00  0.00000E+00  9.000E+00
      21    -1     0     0   512   513  0.000000000E+00  0.000000000E+00 -3.032888844E+00  3.032888844E+00  0.000000000E+00  0.00000E+00  9.000E+00
      -1     1     1     2     0   513 -1.695949657E+01  1.579652223E+00  1.293453385E+02  1.304624287E+02  3.300000131E-01  0.00000E+00  9.000E+00
      21     1     1     2   514   511  7.525379046E+00 -3.300905086E+00  8.866136322E+00  1.208865904E+01  3.153981341E-07  0.00000E+00  9.000E+00
      21     1     1     2   512   514  9.434117529E+00  1.721252863E+00  2.577553572E+01  2.750170043E+01  4.768371582E-07  0.00000E+00  9.000E+00
</event>
<event>
      5  10001  2.40292E+09  1.39993E+01 -1.00000E+00  1.80207E-01
      21    -1     0     0   515   513  0.000000000E+00  0.000000000E+00  3.437450600E+00  3.437450600E+00  0.000000000E+00  0.00000E+00  9.000E+00
      21    -1     0     0   512   515  0.000000000E+00  0.000000000E+00 -5.368386818E+01  5.368386818E+01  0.000000000E+00  0.00000E+00  9.000E+00
      21     1     1     2   512   516  8.959168088E+00 -5.716417823E+00 -3.874823280E+01  4.017921939E+01  0.000000000E+00  0.00000E+00  9.000E+00
       2     1     1     2   516     0 -2.282796362E-01  2.474186068E+00 -4.962088699E+00  5.559220499E+00  3.300000131E-01  0.00000E+00  9.000E+00
      -2     1     1     2     0   513 -8.730888451E+00  3.242231755E+00 -6.536096083E+00  1.138287889E+01  3.300000131E-01  0.00000E+00  9.000E+00
</event>
<event>
      5  10001  2.40292E+09  8.00001E+00 -1.00000E+00  2.07604E-01
      21    -1     0     0   511   513  0.000000000E+00  0.000000000E+00  3.702659375E+02  3.702659375E+02  0.000000000E+00  0.00000E+00  9.000E+00
      21    -1     0     0   514   512  0.000000000E+00  0.000000000E+00 -1.343990407E+01  1.343990407E+01  0.000000000E+00  0.00000E+00  9.000E+00
      21     1     1     2   514   513  6.226290156E+00 -9.194947747E+00  3.453996962E+02  3.455781589E+02  3.814697266E-06  0.00000E+00  9.000E+00
       4     1     1     2   511     0 -1.351111769E+01  5.900551885E+00  2.091268800E+01  2.563117892E+01  1.500000000E+00  0.00000E+00  9.000E+00
      -4     1     1     2     0   512  7.284827532E+00  3.294395861E+00 -9.486350759E+00  1.249650379E+01  1.500000000E+00  0.00000E+00  9.000E+00
</event>
<event>
      5  10001  2.40292E+09  2.03582E+01 -1.00000E+00  1.65694E-01
      21    -1     0     0   515   514  0.000000000E+00  0.000000000E+00  9.222958429E+00  9.222958429E+00  0.000000000E+00  0.00000E+00  9.000E+00
      21    -1     0     0   511   515  0.000000000E+00  0.000000000E+00 -7.289518925E+02  7.289518925E+02  0.000000000E+00  0.00000E+00  9.000E+00
      21     1     1     2   512   514  1.013979539E+01 -1.465901746E+00  4.949492152E+00  1.137812775E+01  6.251387883E-07  0.00000E+00  9.000E+00
      21     1     1     2   516   512 -2.362565411E+01 -1.378499648E+01 -2.179830283E+02  2.196925085E+02  3.814697266E-06  0.00000E+00  9.000E+00
      21     1     1     2   511   516  1.348585872E+01  1.525089823E+01 -5.066953979E+02  5.071042147E+02  5.394796609E-06  0.00000E+00  9.000E+00
</event>
<event>
      5  10001  2.40292E+09  9.19779E+00 -1.00000E+00  1.99990E-01
       4    -1     0     0   513     0  0.000000000E+00  0.000000000E+00  2.272723395E+01  2.272723395E+01  0.000000000E+00  0.00000E+00  9.000E+00
      21    -1     0     0   511   513  0.000000000E+00  0.000000000E+00 -7.969360899E+01  7.969360899E+01  0.000000000E+00  0.00000E+00  9.000E+00
      21     1     1     2   511   517  1.813896287E+00  8.921556063E+00 -7.015657566E+01  7.074481953E+01  1.348699152E-06  0.00000E+00  9.000E+00
      21     1     1     2   517   514 -1.100774186E+01 -8.919206499E+00 -1.536143218E+00  1.425069687E+01  4.514830532E-07  0.00000E+00  9.000E+00
       4     1     1     2   514     0  9.193845573E+00 -2.349564307E-03  1.472634384E+01  1.742532654E+01  1.500000000E+00  0.00000E+00  9.000E+00
</event>
<event>
      5  10001  2.40292E+09  4.67142E+01 -1.00000E+00  1.40752E-01
      -2    -1     0     0     0   512  0.000000000E+00  0.000000000E+00  1.332785453E+02  1.332785453E+02  0.000000000E+00  0.00000E+00  9.000E+00
      21    -1     0     0   514   513  0.000000000E+00  0.000000000E+00 -1.345728852E+02  1.345728852E+02  0.000000000E+00  0.00000E+00  9.000E+00
      -2     1     1     2     0   513  3.755160280E+00  1.486061292E+01  1.309414341E+02  1.318359098E+02  3.300000131E-01  0.00000E+00  9.000E+00
      21     1     1     2   514   511 -2.239874701E+00  8.315426838E+00 -3.472871799E+01  3.578054241E+01  0.000000000E+00  0.00000E+00  9.000E+00
      21     1     1     2   511   512 -1.515285579E+00 -2.317603976E+01 -9.750705604E+01  1.002349784E+02  1.348699152E-06  0.00000E+00  9.000E+00
</event>
<event>
      5  10001  2.40292E+09  2.34048E+00 -1.00000E+00  3.33770E-01
      21    -1     0     0   511   513  0.000000000E+00  0.000000000E+00  1.718093725E+00  1.718093725E+00  0.000000000E+00  0.00000E+00  9.000E+00
       3    -1     0     0   514     0  0.000000000E+00  0.000000000E+00 -4.944550815E+02  4.944550815E+02  0.000000000E+00  0.00000E+00  9.000E+00
      21     1     1     2   514   512  1.000854383E+01  6.111653285E+00 -2.408600389E+02  2.411453537E+02  4.672030912E-06  0.00000E+00  9.000E+00
       3     1     1     2   511     0 -1.176008608E+01 -4.559689174E+00 -2.523288549E+02  2.526443972E+02  5.000000000E-01  0.00000E+00  9.000E+00
      21     1     1     2   512   513  1.751542248E+00 -1.551964111E+00  4.519060373E-01  2.383424409E+00  3.881459319E-07  0.00000E+00  9.000E+00
</event>
<event>
      5  10001  2.40292E+09  7.41501E+00 -1.00000E+00  2.12009E-01
       3    -1     0     0   515     0  0.000000000E+00  0.000000000E+00  3.524499660E+00  3.524499660E+00  0.000000000E+00  0.00000E+00  9.000E+00
      -2    -1     0     0     0   515  0.000000000E+00  0.000000000E+00 -7.531621489E+01  7.531621489E+01  0.000000000E+00  0.00000E+00  9.000E+00
      -2     1     1     2     0   513 -6.478105286E+00 -1.227873742E+01 -3.982939310E+01  4.218083327E+01  3.300000131E-01  0.00000E+00  9.000E+00
       3     1     1     2   511     0  1.359442261E+00  1.164387710E+01 -1.570660021E+01  1.960549023E+01  5.000000000E-01  0.00000E+00  9.000E+00
      21     1     1     2   513   511  5.118663026E+00  6.348603284E-01 -1.625572192E+01  1.705439105E+01  2.384185791E-07  0.00000E+00  9.000E+00
</event>
<event>
      5  10001  2.40292E+09  3.47798E+00 -1.00000E+00  2.78531E-01
      21    -1     0     0   511   513  0.000000000E+00  0.000000000E+00  1.012085245E+01  1.012085245E+01  0.000000000E+00  0.00000E+00  9.000E+00
      21    -1     0     0   513   514  0.000000000E+00  0.000000000E+00 -6.172964239E+01  6.172964239E+01  0.000000000E+00  0.00000E+00  9.000E+00
      21     1     1     2   511   512 -1.224169221E+01  2.684513279E-01  4.731205577E+00  1.312689607E+01  5.960464478E-07  0.00000E+00  9.000E+00
       3     1     1     2   512     0  9.153967324E+00  1.326037656E+00 -5.324048280E+01  5.404028592E+01  5.000000000E-01  0.00000E+00  9.000E+00
      -3     1     1     2     0   514  3.087724887E+00 -1.594488984E+00 -3.099512729E+00  4.683312850E+00  5.000000000E-01  0.00000E+00  9.000E+00
</event>
<event>
      5  10001  2.40292E+09  4.13508E+00 -1.00000E+00  2.60012E-01
      21    -1     0     0   515   512  0.000000000E+00  0.000000000E+00  3.423336207E+02  3.423336207E+02  0.000000000E+00  0.00000E+00  9.000E+00
      21    -1     0     0   513   516  0.000000000E+00  0.000000000E+00 -1.864829282E+00  1.864829282E+00  0.000000000E+00  0.00000E+00  9.000E+00
      21     1     1     2   515   516  1.047694226E+01 -6.429869553E+00  2.024510680E+01  2.368488739E+01  1.011524364E-06  0.00000E+00  9.000E+00
      21     1     1     2   511   512 -5.060445937E+00  3.121741355E+00  2.250266597E+02  2.251051997E+02  0.000000000E+00  0.00000E+00  9.000E+00
      21     1     1     2   513   511 -5.416496322E+00  3.308128198E+00  9.519702496E+01  9.540836287E+01  0.000000000E+00  0.00000E+00  9.000E+00
</event>
<event>
      5  10001  2.40292E+09  6.26771E+00 -1.00000E+00  2.22491E-01
      21    -1     0     0   513   511  0.000000000E+00  0.000000000E+00  8.758575057E+00  8.758575057E+00  0.000000000E+00  0.00000E+00  9.000E+00
      -2    -1     0     0     0   514  0.000000000E+00  0.000000000E+00 -4.442885819E+01  4.442885819E+01  0.000000000E+00  0.00000E+00  9.000E+00
      -2     1     1     2     0   512  7.594983146E+00  9.789297279E-01 -2.822836083E+01  2.925049278E+01  3.300000131E-01  0.00000E+00  9.000E+00
      21     1     1     2   513   514 -7.563758630E+00 -6.276055664E+00  4.547414643E+00  1.082951057E+01  3.475518164E-07  0.00000E+00  9.000E+00
      21     1     1     2   512   511 -3.122451620E-02  5.297125936E+00 -1.198933694E+01  1.310742990E+01  1.685873940E-07  0.00000E+00  9.000E+00
</event>
<event>
      5  10001  2.40292E+09  7.86374E+00 -1.00000E+00  2.08584E-01
       2    -1     0     0   513     0  0.000000000E+00  0.000000000E+00  5.273732014E+02  5.273732014E+02  0.000000000E+00  0.00000E+00  9.000E+00
      21    -1     0     0   512   513  0.000000000E+00  0.000000000E+00 -1.197129941E+01  1.197129941E+01  0.000000000E+00  0.00000E+00  9.000E+00
      21     1     1     2   514   515 -6.455695888E+00 -5.396553518E+00 -5.018837951E+00  9.797322780E+00  5.717076687E-07  0.00000E+00  9.000E+00
       2     1     1     2   515     0  1.729894040E+01  1.169313731E+01  5.157408302E+02  5.161634389E+02  3.300000131E-01  0.00000E+00  9.000E+00
      21     1     1     2   512   514 -1.084324451E+01 -6.296583796E+00  4.679909759E+00  1.338373917E+01  4.420398764E-07  0.00000E+00  9.000E+00
</event>
<event>
      5  10001  2.40292E+09  7.72699E+00 -1.00000E+00  2.09595E-01
      21    -1     0     0   511   515  0.000000000E+00  0.000000000E+00  7.335946674E+01  7.335946674E+01  0.000000000E+00  0.00000E+00  9.000E+00
      21    -1     0     0   512   514  0.000000000E+00  0.000000000E+00 -1.500720923E+02  1.500720923E+02  0.000000000E+00  0.00000E+00  9.000E+00
      21     1     1     2   511   514 -6.147238600E+00 -1.016144414E+01 -1.485481084E+02  1.490220923E+02  1.907348633E-06  0.00000E+00  9.000E+00
      -4     1     1     2     0   515  4.381031206E+00  2.063364600E+00  5.793300438E+01  5.815439712E+01  1.500000000E+00  0.00000E+00  9.000E+00
       4     1     1     2   512     0  1.766207395E+00  8.098079537E+00  1.390247845E+01  1.625506961E+01  1.500000000E+00  0.00000E+00  9.000E+00
</event>
<event>
      5  10001  2.40292E+09  1.02988E+01 -1.00000E+00  1.94233E-01
      21    -1     0     0   513   515  0.000000000E+00  0.000000000E+00  2.162479389E+01  2.162479389E+01  0.000000000E+00  0.00000E+00  9.000E+00
      21    -1     0     0   514   511  0.000000000E+00  0.000000000E+00 -3.079142028E+01  3.079142028E+01  0.000000000E+00  0.00000E+00  9.000E+00
      -1     1     1     2     0   511 -1.411134031E+01  6.984626616E+00 -1.836558101E+01  2.419335446E+01  3.300000131E-01  0.00000E+00  9.000E+00
       1     1     1     2   513     0  4.613622207E+00 -1.096414871E+01  1.264499129E+01  1.736383516E+01  3.300000131E-01  0.00000E+00  9.000E+00
      21     1     1     2   514   515  9.497718104E+00  3.979522089E+00 -3.446036677E+00  1.085902454E+01  1.519626234E-07  0.00000E+00  9.000E+00
</event>
<event>
      5  10001  2.40292E+09  9.25176E+00 -1.00000E+00  1.99683E-01
      -4    -1     0     0     0   511  0.000000000E+00  0.000000000E+00  1.131765359E+01  1.131765359E+01  0.000000000E+00  0.00000E+00  9.000E+00
       2    -1     0     0   512     0  0.000000000E+00  0.000000000E+00 -4.844197547E+02  4.844197547E+02  0.000000000E+00  0.00000E+00  9.000E+00
      -4     1     1     2     0   514  3.622074725E+00  1.144889761E+01  3.951842489E+00  1.273042579E+01  1.500000000E+00  0.00000E+00  9.000E+00
       2     1     1     2   514     0  5.607233166E+00 -1.082400066E+01 -4.725695860E+02  4.727269006E+02  3.300000131E-01  0.00000E+00  9.000E+00
      21     1     1     2   512   511 -9.229307891E+00 -6.248969434E-01 -4.484357591E+00  1.028008187E+01  3.953724850E-07  0.00000E+00  9.000E+00
</event>
<event>
      5  10001  2.40292E+09  4.22045E+00 -1.00000E+00  2.57995E-01
      21    -1     0     0   513   514  0.000000000E+00  0.000000000E+00  7.525621027E-01  7.525621027E-01  0.000000000E+00  0.00000E+00  9.000E+00
      21    -1     0     0   512   511  0.000000000E+00  0.000000000E+00 -3.350678261E+02  3.350678261E+02  0.000000000E+00  0.00000E+00  9.000E+00
      21     1     1     2   513   511  5.586938261E+00 -8.433887639E+00 -2.743559978E+02  2.745424519E+02  5.394796609E-06  0.00000E+00  9.000E+00
      21     1     1     2   515   514 -3.192797383E+00  5.275095909E+00 -1.610703536E+01  1.724694698E+01  6.743495762E-07  0.00000E+00  9.000E+00
      21     1     1     2   512   515 -2.394140878E+00  3.158791731E+00 -4.385223079E+01  4.403098933E+01  8.259061849E-07  0.00000E+00  9.000E+00
</event>
<event>
      5  10001  2.40292E+09  7.59598E+00 -1.00000E+00  2.10589E-01
       4    -1     0     0   511     0  0.000000000E+00  0.000000000E+00  7.952453616E+01  7.952453616E+01  0.000000000E+00  0.00000E+00  9.000E+00
      21    -1     0     0   513   515  0.000000000E+00  0.000000000E+00 -1.203770260E+02  1.203770260E+02  0.000000000E+00  0.00000E+00  9.000E+00
      21     1     1     2   511   515 -1.179839323E+01 -1.302428192E+01 -1.114117371E+02  1.127892245E+02  0.000000000E+00  0.00000E+00  9.000E+00
       4     1     1     2   516     0  9.400170650E+00  5.817310842E+00  7.659966711E+01  7.740777297E+01  1.500000000E+00  0.00000E+00  9.000E+00
      21     1     1     2   513   516  2.398222580E+00  7.206971079E+00 -6.040419869E+00  9.704564693E+00  1.460009660E-07  0.00000E+00  9.000E+00
</event>
<event>
      5  10001  2.40292E+09  3.75165E+00 -1.00000E+00  2.70093E-01
      21    -1     0     0   512   515  0.000000000E+00  0.000000000E+00  3.097403399E+02  3.097403399E+02  0.000000000E+00  0.00000E+00  9.000E+00
      21    -1     0     0   511   514  0.000000000E+00  0.000000000E+00 -1.835178993E+01  1.835178993E+01  0.000000000E+00  0.00000E+00  9.000E+00
      21     1     1     2   512   514  1.627403162E+01  8.632509132E+00  2.552595802E+02  2.559234604E+02  0.000000000E+00  0.00000E+00  9.000E+00
      21     1     1     2   513   515 -1.316541434E+01 -1.073283419E+01  5.260061051E+01  5.527518512E+01  1.348699152E-06  0.00000E+00  9.000E+00
      21     1     1     2   511   513 -3.108617281E+00  2.100325059E+00 -1.647164067E+01  1.689348434E+01  8.920806376E-07  0.00000E+00  9.000E+00
</event>
<event>
      5  10001  2.40292E+09  8.59300E+00 -1.00000E+00  2.03628E-01
      21    -1     0     0   516   513  0.000000000E+00  0.000000000E+00  2.011527246E+02  2.011527246E+02  0.000000000E+00  0.00000E+00  9.000E+00
      21    -1     0     0   513   512  0.000000000E+00  0.000000000E+00 -1.817046951E+00  1.817046951E+00  0.000000000E+00  0.00000E+00  9.000E+00
      -1     1     1     2     0   512  9.652984063E+00  9.186698250E-01  1.646757504E+01  1.911318872E+01  3.300000131E-01  0.00000E+00  9.000E+00
      21     1     1     2   516   514 -7.759611862E+00  1.752888155E+00  1.765818705E+02  1.767609719E+02  2.697398305E-06  0.00000E+00  9.000E+00
       1     1     1     2   514     0 -1.893372201E+00 -2.671557980E+00  6.286232034E+00  7.095610863E+00  3.300000131E-01  0.00000E+00  9.000E+00
</event>
<event>
      5  10001  2.40292E+09  1.16437E+01 -1.00000E+00  1.88361E-01
      21    -1     0     0   514   513  0.000000000E+00  0.000000000E+00  1.664553897E+01  1.664553897E+01  0.000000000E+00  0.00000E+00  9.000E+00
      -2    -1     0     0     0   511  0.000000000E+00  0.000000000E+00 -5.612535094E+01  5.612535094E+01  0.000000000E+00  0.00000E+00  9.000E+00
      -2     1     1     2     0   513 -6.206882890E+00 -7.856948332E+00  1.226257222E+01  1.583466482E+01  3.300000131E-01  0.00000E+00  9.000E+00
      21     1     1     2   512   511 -1.256415606E+00  5.985393398E+00 -4.798546500E+01  4.837363296E+01  6.743495762E-07  0.00000E+00  9.000E+00
      21     1     1     2   514   512  7.463298496E+00  1.871554935E+00 -3.756919194E+00  8.562592139E+00  1.264405455E-07  0.00000E+00  9.000E+00
</event>
<event>
      5  10001  2.40292E+09  1.47060E+01 -1.00000E+00  1.78149E-01
      21    -1     0     0   515   512  0.000000000E+00  0.000000000E+00  1.563113845E+02  1.563113845E+02  0.000000000E+00  0.00000E+00  9.000E+00
      21    -1     0     0   516   515  0.000000000E+00  0.000000000E+00 -1.998167265E+00  1.998167265E+00  0.000000000E+00  0.00000E+00  9.000E+00
      21     1     1     2   516   517  5.597935907E+00 -1.266742064E+01  3.762241485E+01  4.009047931E+01  6.743495762E-07  0.00000E+00  9.000E+00
      21     1     1     2   517   511  3.526925330E+00  6.152988400E+00  6.100150913E+01  6.141239765E+01  9.536743164E-07  0.00000E+00  9.000E+00
      21     1     1     2   511   512 -9.124861238E+00  6.514432237E+00  5.568929329E+01  5.680667485E+01  0.000000000E+00  0.00000E+00  9.000E+00
</event>
<event>
      5  10001  2.40292E+09  1.02643E+01 -1.00000E+00  1.94399E-01
      21    -1     0     0   513   516  0.000000000E+00  0.000000000E+00  6.609584627E+02  6.609584627E+02  0.000000000E+00  0.00000E+00  9.000E+00
      21    -1     0     0   515   512  0.000000000E+00  0.000000000E+00 -1.860743566E+00  1.860743566E+00  0.000000000E+00  0.00000E+00  9.000E+00
      21     1     1     2   513   512  9.226496114E+00 -1.111378674E+01  3.496475076E+02  3.499457445E+02  0.000000000E+00  0.00000E+00  9.000E+00
      21     1     1     2   514   516 -1.522148742E+01  2.782105493E+00  2.934895321E+02  2.938971576E+02  3.814697266E-06  0.00000E+00  9.000E+00
      21     1     1     2   515   514  5.994991303E+00  8.331681251E+00  1.596067931E+01  1.897630410E+01  1.066240300E-06  0.00000E+00  9.000E+00
</event>
<event>
      5  10001  2.40292E+09  9.60000E+00 -1.00000E+00  1.97769E-01
      21    -1     0     0   512   516  0.000000000E+00  0.000000000E+00  5.591195499E+02  5.591195499E+02  0.000000000E+00  0.00000E+00  9.000E+00
      21    -1     0     0   515   511  0.000000000E+00  0.000000000E+00 -2.724290305E+01  2.724290305E+01  0.000000000E+00  0.00000E+00  9.000E+00
      21     1     1     2   514   516  9.501160468E+00 -3.552023871E+01  2.564744140E+00  3.685834127E+01  6.529361695E-07  0.00000E+00  9.000E+00
      21     1     1     2   515   514  9.483998860E-02  3.579722391E+01  2.182391599E+01  4.192533296E+01  7.539457465E-07  0.00000E+00  9.000E+00
      21     1     1     2   512   511 -9.596000457E+00 -2.769852008E-01  5.074879867E+02  5.075787787E+02  5.394796609E-06  0.00000E+00  9.000E+00
</event>
<event>
      5  10001  2.40292E+09  3.30150E+00 -1.00000E+00  2.84665E-01
      21    -1     0     0   513   511  0.000000000E+00  0.000000000E+00  3.470485118E+00  3.470485118E+00  0.000000000E+00  0.00000E+00  9.000E+00
      21    -1     0     0   516   517  0.000000000E+00  0.000000000E+00 -4.648949629E+01  4.648949629E+01  0.000000000E+00  0.00000E+00  9.000E+00
      21     1     1     2   513   517 -8.623531058E+00 -6.626832072E+00 -8.815614576E+00  1.399983041E+01  0.000000000E+00  0.00000E+00  9.000E+00
      -3     1     1     2     0   511  2.410223473E+00  1.942924734E+00 -7.192671299E+00  7.846569577E+00  5.000000000E-01  0.00000E+00  9.000E+00
       3     1     1     2   516     0  6.213307585E+00  4.683907337E+00 -2.701072530E+01  2.811358142E+01  5.000000000E-01  0.00000E+00  9.000E+00
</event>
<event>
      5  10001  2.40292E+09  3.45954E+00 -1.00000E+00  2.79145E-01
      21    -1     0     0   512   516  0.000000000E+00  0.000000000E+00  1.345512824E+02  1.345512824E+02  0.000000000E+00  0.00000E+00  9.000E+00
      21    -1     0     0   515   511  0.000000000E+00  0.000000000E+00 -2.232841980E+01  2.232841980E+01  0.000000000E+00  0.00000E+00  9.000E+00
      21     1     1     2   512   514 -1.251697474E+01  4.150206993E-01 -1.503695472E+01  1.956928476E+01  1.168007728E-06  0.00000E+00  9.000E+00
      21     1     1     2   515   516  1.090412011E+01 -3.475593017E+00  1.314099975E+02  1.319074184E+02  1.907348633E-06  0.00000E+00  9.000E+00
      21     1     1     2   514   511  1.612854634E+00  3.060572318E+00 -4.150180201E+00  5.402999045E+00  1.332800375E-07  0.00000E+00  9.000E+00
</event>
<event>
      5  10001  2.40292E+09  5.01926E+00 -1.00000E+00  2.38137E-01
      21    -1     0     0   513   515  0.000000000E+00  0.000000000E+00  5.527462222E+01  5.527462222E+01  0.000000000E+00  0.00000E+00  9.000E+00
      21    -1     0     0   517   513  0.000000000E+00  0.000000000E+00 -3.496153047E+00  3.496153047E+00  0.000000000E+00  0.00000E+00  9.000E+00
      21     1     1     2   511   515  1.072935694E+01 -7.175994257E+00  2.350899452E+01  2.681952306E+01  4.768371582E-07  0.00000E+00  9.000E+00
      21     1     1     2   517   512 -9.568844929E+00  2.993182745E+00  2.322207171E+01  2.529400227E+01  6.743495762E-07  0.00000E+00  9.000E+00
      21     1     1     2   512   511 -1.160512010E+00  4.182811512E+00  5.047402944E+00  6.657249939E+00  1.460009660E-07  0.00000E+00  9.000E+00
</event>
<event>
      5  10001  2.40292E+09  3.64794E+00 -1.00000E+00  2.73152E-01
      21    -1     0     0   514   516  0.000000000E+00  0.000000000E+00  4.836584475E+01  4.836584475E+01  0.000000000E+00  0.00000E+00  9.000E+00
      21    -1     0     0   515   511  0.000000000E+00  0.000000000E+00 -6.371819853E+01  6.371819853E+01  0.000000000E+00  0.00000E+00  9.000E+00
      21     1     1     2   514   511 -2.038383953E+00 -1.031727417E+01  4.689691281E+01  4.806164361E+01  6.743495762E-07  0.00000E+00  9.000E+00
      21     1     1     2   513   516  2.671621727E+00  6.380051325E+00 -5.706071381E+01  5.747841054E+01  0.000000000E+00  0.00000E+00  9.000E+00
      21     1     1     2   515   513 -6.332377743E-01  3.937222848E+00 -5.188552773E+00  6.543989128E+00  8.429369702E-08  0.00000E+00  9.000E+00
</event>
<event>
      5  10001  2.40292E+09  1.35345E+01 -1.00000E+00  1.81646E-01
       2    -1     0     0   512     0  0.000000000E+00  0.000000000E+00  9.191279390E+02  9.191279390E+02  0.000000000E+00  0.00000E+00  9.000E+00
      21    -1     0     0   515   512  0.000000000E+00  0.000000000E+00 -1.026912238E+01  1.026912238E+01  0.000000000E+00  0.00000E+00  9.000E+00
      21     1     1     2   515   517 -7.139621039E+00 -1.309727054E+00 -5.622712628E+00  9.181746611E+00  2.457562462E-07  0.00000E+00  9.000E+00
      21     1     1     2   517   511  1.609956290E+01  1.145372317E+01  3.185522600E+01  3.748518539E+01  5.840038640E-07  0.00000E+00  9.000E+00
       2     1     1     2   511     0 -8.959941866E+00 -1.014399612E+01  8.826263032E+02  8.827301294E+02  3.300000131E-01  0.00000E+00  9.000E+00
</event>
<event>
      5  10001  2.40292E+09  1.01221E+01 -1.00000E+00  1.95092E-01
      21    -1     0     0   513   516  0.000000000E+00  0.000000000E+00  2.933951727E+02  2.933951727E+02  0.000000000E+00  0.00000E+00  9.000E+00
      21    -1     0     0   515   514  0.000000000E+00  0.000000000E+00 -2.252646864E+01  2.252646864E+01  0.000000000E+00  0.00000E+00  9.000E+00
      21     1     1     2   513   514  1.066575290E+01  1.854216166E+00 -2.009639740E+01  2.282677356E+01  7.152557373E-07  0.00000E+00  9.000E+00
      21     1     1     2   512   516 -5.831628546E+00 -7.006099974E+00  2.793588393E+02  2.795075213E+02  0.000000000E+00  0.00000E+00  9.000E+00
      21     1     1     2   515   512 -4.834124355E+00  5.151883808E+00  1.160626211E+01  1.358734651E+01  1.685873940E-07  0.00000E+00  9.000E+00
</event>
<event>
      5  10001  2.40292E+09  2.21120E+01 -1.00000E+00  1.62811E-01
       4    -1     0     0   513     0  0.000000000E+00  0.000000000E+00  6.605081863E+01  6.605081863E+01  0.000000000E+00  0.00000E+00  9.000E+00
      21    -1     0     0   512   513  0.000000000E+00  0.000000000E+00 -3.854491951E+01  3.854491951E+01  0.000000000E+00  0.00000E+00  9.000E+00
      21     1     1     2   512   511 -1.051576670E+01 -2.679480522E+00 -3.681676603E+01  3.838274647E+01  6.743495762E-07  0.00000E+00  9.000E+00
      21     1     1     2   511   514  3.707603854E+00 -3.623574754E+00  1.229548204E+01  1.334374381E+01  1.685873940E-07  0.00000E+00  9.000E+00
       4     1     1     2   514     0  6.808162843E+00  6.303055276E+00  5.202718311E+01  5.286924786E+01  1.500000000E+00  0.00000E+00  9.000E+00
</event>
<event>
      5  10001  2.40292E+09  9.80627E+00 -1.00000E+00  1.96685E-01
      21    -1     0     0   514   515  0.000000000E+00  0.000000000E+00  3.767662452E+01  3.767662452E+01  0.000000000E+00  0.00000E+00  9.000E+00
       2    -1     0     0   511     0  0.000000000E+00  0.000000000E+00 -2.367150668E+02  2.367150668E+02  0.000000000E+00  0.00000E+00  9.000E+00
      21     1     1     2   511   515  4.286123368E+00 -1.112211115E+01  3.596934305E+01  3.789282055E+01  8.259061849E-07  0.00000E+00  9.000E+00
       2     1     1     2   512     0  2.358920506E+00  4.526801707E+00 -2.050145602E+02  2.050783636E+02  3.300000131E-01  0.00000E+00  9.000E+00
      21     1     1     2   514   512 -6.645043874E+00  6.595309442E+00 -2.999322513E+01  3.142050713E+01  3.371747881E-07  0.00000E+00  9.000E+00
</event>
<event>
      5  10001  2.40292E+09  4.08664E+00 -1.00000E+00  2.61190E-01
       4    -1     0     0   514     0  0.000000000E+00  0.000000000E+00  4.207442861E+00  4.207442861E+00  0.000000000E+00  0.00000E+00  9.000E+00
      21    -1     0     0   512   514  0.000000000E+00  0.000000000E+00 -8.577553867E+01  8.577553867E+01  0.000000000E+00  0.00000E+00  9.000E+00
      21     1     1     2   512   513  7.673907882E+00 -6.349575938E+00 -7.661891164E+01  7.726359814E+01  1.348699152E-06  0.00000E+00  9.000E+00
      21     1     1     2   513   511 -3.651178167E+00  2.582068454E+00  8.804935284E-01  4.557789855E+00  3.381611621E-07  0.00000E+00  9.000E+00
       4     1     1     2   511     0 -4.022729715E+00  3.767507484E+00 -5.829677704E+00  8.161593541E+00  1.500000000E+00  0.00000E+00  9.000E+00
</event>
<event>
      5  10001  2.40292E+09  8.98685E+00 -1.00000E+00  2.01216E-01
      21    -1     0     0   515   513  0.000000000E+00  0.000000000E+00  1.384748489E+01  1.384748489E+01  0.000000000E+00  0.00000E+00  9.000E+00
      21    -1     0     0   512   516  0.000000000E+00  0.000000000E+00 -1.997739704E+01  1.997739704E+01  0.000000000E+00  0.00000E+00  9.000E+00
      21     1     1     2   515   516  1.343114785E+01  4.923427966E+00 -3.027154929E+00  1.462188573E+01  2.795705652E-07  0.00000E+00  9.000E+00
      21     1     1     2   512   514 -9.371898257E+00 -6.996886206E+00 -6.625747321E+00  1.344207652E+01  8.429369702E-08  0.00000E+00  9.000E+00
      21     1     1     2   514   513 -4.059249591E+00  2.073458240E+00  3.522990105E+00  5.760919683E+00  1.032382731E-07  0.00000E+00  9.000E+00
</event>
<event>
      5  10001  2.40292E+09  7.52978E+00 -1.00000E+00  2.11102E-01
      21    -1     0     0   511   512  0.000000000E+00  0.000000000E+00  1.208293132E+01  1.208293132E+01  0.000000000E+00  0.00000E+00  9.000E+00
      21    -1     0     0   517   513  0.000000000E+00  0.000000000E+00 -1.675133703E+01  1.675133703E+01  0.000000000E+00  0.00000E+00  9.000E+00
      21     1     1     2   511   513  1.080623366E+01  3.767886572E+00  5.428237758E+00  1.266638939E+01  8.429369702E-08  0.00000E+00  9.000E+00
      21     1     1     2   517   515 -1.808869588E+00 -2.195304108E+00 -4.882322192E+00  5.650525577E+00  5.960464478E-08  0.00000E+00  9.000E+00
      21     1     1     2   515   512 -8.997364069E+00 -1.572582464E+00 -5.214321272E+00  1.051735338E+01  1.192092896E-07  0.00000E+00  9.000E+00
</event>
<event>
      5  10001  2.40292E+09  1.66463E+01 -1.00000E+00  1.73181E-01
      21    -1     0     0   514   512  0.000000000E+00  0.000000000E+00  2.374493672E+00  2.374493672E+00  0.000000000E+00  0.00000E+00  9.000E+00
       2    -1     0     0   515     0  0.000000000E+00  0.000000000E+00 -1.044341007E+02  1.044341007E+02  0.000000000E+00  0.00000E+00  9.000E+00
      21     1     1     2   515   512 -2.510973668E+00  1.001543979E+01 -5.559680271E+01  5.654748884E+01  0.000000000E+00  0.00000E+00  9.000E+00
      21     1     1     2   514   511  4.676059730E+00 -4.966678924E-01 -2.701757431E+00  5.423256108E+00  2.190014490E-07  0.00000E+00  9.000E+00
       2     1     1     2   511     0 -2.165086063E+00 -9.518771897E+00 -4.376104692E+01  4.483784945E+01  3.300000131E-01  0.00000E+00  9.000E+00
</event>
<event>
      5  10001  2.40292E+09  7.79385E+00 -1.00000E+00  2.09097E-01
      21    -1     0     0   513   515  0.000000000E+00  0.000000000E+00  3.975911062E+01  3.975911062E+01  0.000000000E+00  0.00000E+00  9.000E+00
       2    -1     0     0   512     0  0.000000000E+00  0.000000000E+00 -4.241658586E+02  4.241658586E+02  0.000000000E+00  0.00000E+00  9.000E+00
      21     1     1     2   513   516 -8.908640130E+00 -4.967300440E+00  3.828171130E+01  3.961726092E+01  1.066240300E-06  0.00000E+00  9.000E+00
      21     1     1     2   512   515  1.409477872E+01 -8.505843071E-01 -6.420556495E+01  6.573994868E+01  0.000000000E+00  0.00000E+00  9.000E+00
       2     1     1     2   516     0 -5.186138591E+00  5.817884747E+00 -3.584828943E+02  3.585677596E+02  3.300000131E-01  0.00000E+00  9.000E+00
</event>
<event>
      5  10001  2.40292E+09  5.06506E+00 -1.00000E+00  2.37452E-01
      21    -1     0     0   514   512  0.000000000E+00  0.000000000E+00  3.662758606E+02  3.662758606E+02  0.000000000E+00  0.00000E+00  9.000E+00
      -4    -1     0     0     0   511  0.000000000E+00  0.000000000E+00 -1.256639109E+01  1.256639109E+01  0.000000000E+00  0.00000E+00  9.000E+00
      -4     1     1     2     0   513 -5.089112262E+00 -2.138866905E+00 -5.653449909E+00  8.042717894E+00  1.500000000E+00  0.00000E+00  9.000E+00
      21     1     1     2   514   511  1.088698432E+01  8.632734818E+00  3.615553366E+02  3.618222104E+02  3.814697266E-06  0.00000E+00  9.000E+00
      21     1     1     2   513   512 -5.797872054E+00 -6.493867913E+00 -2.192417221E+00  8.977323326E+00  3.862822472E-07  0.00000E+00  9.000E+00
</event>
<event>
      5  10001  2.40292E+09  8.06050E+00 -1.00000E+00  2.07178E-01
      21    -1     0     0   515   511  0.000000000E+00  0.000000000E+00  2.463264870E+01  2.463264870E+01  0.000000000E+00  0.00000E+00  9.000E+00
      21    -1     0     0   513   512  0.000000000E+00  0.000000000E+00 -6.576929356E+01  6.576929356E+01  0.000000000E+00  0.00000E+00  9.000E+00
      21     1     1     2   515   512 -1.391712628E+00  1.334171611E+01  1.763746041E+01  2.215893189E+01  8.259061849E-07  0.00000E+00  9.000E+00
      21     1     1     2   513   516  9.442579992E+00 -1.294771403E+01 -5.796801547E+01  6.014230152E+01  0.000000000E+00  0.00000E+00  9.000E+00
      21     1     1     2   516   511 -8.050867364E+00 -3.940020861E-01 -8.060898098E-01  8.100708842E+00  9.064022497E-08  0.00000E+00  9.000E+00
</event>
<event>
      5  10001  2.40292E+09  7.38097E+00 -1.00000E+00  2.12282E-01
      21    -1     0     0   514   512  0.000000000E+00  0.000000000E+00  9.777666004E+01  9.777666004E+01  0.000000000E+00  0.00000E+00  9.000E+00
      21    -1     0     0   511   514  0.000000000E+00  0.000000000E+00 -3.279144650E+01  3.279144650E+01  0.000000000E+00  0.00000E+00  9.000E+00
      21     1     1     2   511   517  9.420209103E+00  5.574796077E+00 -3.114561377E+01  3.301314811E+01  8.259061849E-07  0.00000E+00  9.000E+00
      21     1     1     2   513   512 -1.065955243E+01 -1.082686078E-01  7.178512105E+01  7.257231831E+01  9.536743164E-07  0.00000E+00  9.000E+00
      21     1     1     2   517   513  1.239343324E+00 -5.466527470E+00  2.434570626E+01  2.498264013E+01  4.768371582E-07  0.00000E+00  9.000E+00
</event>
<event>
      5  10001  2.40292E+09  4.76684E+00 -1.00000E+00  2.46630E-01
      21    -1     0     0   515   513  0.000000000E+00  0.000000000E+00  8.384226858E+01  8.384226858E+01  0.000000000E+00  0.00000E+00  9.000E+00
      21    -1     0     0   511   516  0.000000000E+00  0.000000000E+00 -4.172502553E+00  4.172502553E+00  0.000000000E+00  0.00000E+00  9.000E+00
      21     1     1     2   515   516 -9.651833697E-01  1.028079738E+01  3.369200412E+00  1.086176252E+01  3.475518164E-07  0.00000E+00  9.000E+00
      21     1     1     2   512   513 -7.214409328E-01 -3.581462822E+00  4.231383070E+01  4.247125642E+01  6.743495762E-07  0.00000E+00  9.000E+00
      21     1     1     2   511   512  1.686624303E+00 -6.699334559E+00  3.398673491E+01  3.468175219E+01  6.743495762E-07  0.00000E+00  9.000E+00
</event>
<event>
      5  10001  2.40292E+09  1.07998E+01 -1.00000E+00  1.91916E-01
      21    -1     0     0   514   512  0.000000000E+00  0.000000000E+00  1.375468344E+01  1.375468344E+01  0.000000000E+00  0.00000E+00  9.000E+00
      21    -1     0     0   511   514  0.000000000E+00  0.000000000E+00 -4.072752382E+01  4.072752382E+01  0.000000000E+00  0.00000E+00  9.000E+00
      21     1     1     2   511   517  9.769294351E+00  9.860052794E+00 -2.780247672E+01  3.107470781E+01  3.371747881E-07  0.00000E+00  9.000E+00
      21     1     1     2   513   512 -1.082226163E+01 -1.468153015E+01 -6.640497098E-01  1.825129136E+01  3.724545166E-07  0.00000E+00  9.000E+00
      21     1     1     2   517   513  1.052967276E+00  4.821477354E+00  1.493686056E+00  5.156208102E+00  6.664001875E-08  0.00000E+00  9.000E+00
</event>
<event>
      5  10001  2.40292E+09  9.25318E+00 -1.00000E+00  1.99675E-01
      21    -1     0     0   512   513  0.000000000E+00  0.000000000E+00  1.119674716E+02  1.119674716E+02  0.000000000E+00  0.00000E+00  9.000E+00
      21    -1     0     0   511   516  0.000000000E+00  0.000000000E+00 -3.589045719E+01  3.589045719E+01  0.000000000E+00  0.00000E+00  9.000E+00
      21     1     1     2   515   516 -2.050997494E+01  3.440180188E+00 -3.107366908E+01  3.739073177E+01  1.011524364E-06  0.00000E+00  9.000E+00
      21     1     1     2   511   513  1.413518920E+01 -1.014714391E+01  7.628853719E+01  7.824774125E+01  9.536743164E-07  0.00000E+00  9.000E+00
      21     1     1     2   512   515  6.374785742E+00  6.706963726E+00  3.086214626E+01  3.221945573E+01  0.000000000E+00  0.00000E+00  9.000E+00
</event>
<event>
      5  10001  2.40292E+09  7.82604E+00 -1.00000E+00  2.08860E-01
      21    -1     0     0   514   515  0.000000000E+00  0.000000000E+00  2.180281042E+01  2.180281042E+01  0.000000000E+00  0.00000E+00  9.000E+00
      -2    -1     0     0     0   514  0.000000000E+00  0.000000000E+00 -1.152548770E+02  1.152548770E+02  0.000000000E+00  0.00000E+00  9.000E+00
      -2     1     1     2     0   511 -4.160362424E+00  9.390592136E+00 -6.872992956E+01  6.949391307E+01  3.300000131E-01  0.00000E+00  9.000E+00
      21     1     1     2   512   515  8.171329450E+00 -7.681750809E+00  1.983914254E+01  2.278972350E+01  7.152557373E-07  0.00000E+00  9.000E+00
      21     1     1     2   511   512 -4.010967026E+00 -1.708841327E+00 -4.456127956E+01  4.477405087E+01  4.768371582E-07  0.00000E+00  9.000E+00
</event>
<event>
      5  10001  2.40292E+09  7.48119E+00 -1.00000E+00  2.11484E-01
      21    -1     0     0   513   512  0.000000000E+00  0.000000000E+00  2.086687586E+00  2.086687586E+00  0.000000000E+00  0.00000E+00  9.000E+00
      21    -1     0     0   511   516  0.000000000E+00  0.000000000E+00 -4.894770543E+02  4.894770543E+02  0.000000000E+00  0.00000E+00  9.000E+00
      21     1     1     2   513   516 -9.382129197E+00 -3.761937448E+00 -4.454504885E+02  4.455651627E+02  9.344061824E-06  0.00000E+00  9.000E+00
      21     1     1     2   514   512  1.240922399E+01 -4.061631537E-01 -2.065697818E+01  2.410113184E+01  5.331201500E-07  0.00000E+00  9.000E+00
      21     1     1     2   511   514 -3.027094796E+00  4.168100602E+00 -2.128290005E+01  2.189744734E+01  2.384185791E-07  0.00000E+00  9.000E+00
</event>
<event>
      5  10001  2.40292E+09  6.38402E+00 -1.00000E+00  2.21292E-01
      21    -1     0     0   515   514  0.000000000E+00  0.000000000E+00  1.149683744E+02  1.149683744E+02  0.000000000E+00  0.00000E+00  9.000E+00
      21    -1     0     0   511   515  0.000000000E+00  0.000000000E+00 -1.928637909E+00  1.928637909E+00  0.000000000E+00  0.00000E+00  9.000E+00
      21     1     1     2   511   517  5.218177859E+00  1.074236819E+01  2.498689675E+01  2.769427492E+01  3.371747881E-07  0.00000E+00  9.000E+00
      21     1     1     2   512   514 -6.254873099E+00 -6.924206876E+00  4.433820682E+01  4.530943237E+01  9.536743164E-07  0.00000E+00  9.000E+00
      21     1     1     2   517   512  1.036695240E+00 -3.818161313E+00  4.371463289E+01  4.389330498E+01  4.768371582E-07  0.00000E+00  9.000E+00
</event>
<event>
      5  10001  2.40292E+09  6.04727E+00 -1.00000E+00  2.24866E-01
       2    -1     0     0   513     0  0.000000000E+00  0.000000000E+00  1.438859092E+02  1.438859092E+02  0.000000000E+00  0.00000E+00  9.000E+00
      -1    -1     0     0     0   514  0.000000000E+00  0.000000000E+00 -6.195867745E+01  6.195867745E+01  0.000000000E+00  0.00000E+00  9.000E+00
      -1     1     1     2     0   511  1.271807449E+01 -7.946360235E+00 -5.799425391E+01  5.990272487E+01  3.300000131E-01  0.00000E+00  9.000E+00
       2     1     1     2   511     0 -7.077987143E+00  5.764991297E+00  1.395868111E+02  1.398853808E+02  3.300000131E-01  0.00000E+00  9.000E+00
      21     1     1     2   513   514 -5.640087344E+00  2.181368938E+00  3.346746326E-01  6.056481057E+00  9.283375587E-08  0.00000E+00  9.000E+00
</event>
<event>
      5  10001  2.40292E+09  9.61424E+00 -1.00000E+00  1.97693E-01
       2    -1     0     0   513     0  0.000000000E+00  0.000000000E+00  1.178821870E+01  1.178821870E+01  0.000000000E+00  0.00000E+00  9.000E+00
      21    -1     0     0   512   511  0.000000000E+00  0.000000000E+00 -2.397097884E+02  2.397097884E+02  0.000000000E+00  0.00000E+00  9.000E+00
       2     1     1     2   512     0  1.208908242E+01  1.939503093E-01  7.387635758E+00  1.417284702E+01  3.300000131E-01  0.00000E+00  9.000E+00
       5     1     1     2   513     0 -8.273564191E+00  8.501377604E+00 -2.009310978E+02  2.013382014E+02  4.800000191E+00  0.00000E+00  9.000E+00
      -5     1     1     2     0   511 -3.815518227E+00 -8.695327914E+00 -3.437810770E+01  3.598695872E+01  4.800000191E+00  0.00000E+00  9.000E+00
</event>
<event>
      5  10001  2.40292E+09  6.81517E+00 -1.00000E+00  2.17137E-01
      21    -1     0     0   514   511  0.000000000E+00  0.000000000E+00  1.780813057E+02  1.780813057E+02  0.000000000E+00  0.00000E+00  9.000E+00
      21    -1     0     0   512   515  0.000000000E+00  0.000000000E+00 -9.321667554E-01  9.321667554E-01  0.000000000E+00  0.00000E+00  9.000E+00
      21     1     1     2   514   515 -5.040580334E+00  9.531012535E+00  1.025915678E+02  1.031565676E+02  1.348699152E-06  0.00000E+00  9.000E+00
      21     1     1     2   513   511  3.217987297E+00 -5.485808022E+00  1.737453745E+01  1.850200214E+01  4.768371582E-07  0.00000E+00  9.000E+00
      21     1     1     2   512   513  1.822593037E+00 -4.045204514E+00  5.718303363E+01  5.735490267E+01  9.536743164E-07  0.00000E+00  9.000E+00
</event>
<event>
      5  10001  2.40292E+09  8.26000E+00 -1.00000E+00  2.05806E-01
      21    -1     0     0   516   511  0.000000000E+00  0.000000000E+00  1.854915893E+02  1.854915893E+02  0.000000000E+00  0.00000E+00  9.000E+00
      21    -1     0     0   512   514  0.000000000E+00  0.000000000E+00 -2.955399864E+00  2.955399864E+00  0.000000000E+00  0.00000E+00  9.000E+00
      21     1     1     2   513   511  4.824062594E-01  1.553562524E+01  1.033119574E+02  1.044746329E+02  1.907348633E-06  0.00000E+00  9.000E+00
      21     1     1     2   512   513  6.369851522E-01 -7.351831096E+00  7.362394460E+01  7.399284012E+01  0.000000000E+00  0.00000E+00  9.000E+00
      21     1     1     2   516   514 -1.119391412E+00 -8.183794144E+00  5.600287393E+00  9.979516151E+00  1.884864366E-07  0.00000E+00  9.000E+00
</event>
<event>
      5  10001  2.40292E+09  4.08944E+00 -1.00000E+00  2.61121E-01
       3    -1     0     0   512     0  0.000000000E+00  0.000000000E+00  2.306580232E+02  2.306580232E+02  0.000000000E+00  0.00000E+00  9.000E+00
      21    -1     0     0   515   514  0.000000000E+00  0.000000000E+00 -8.200030249E+00  8.200030249E+00  0.000000000E+00  0.00000E+00  9.000E+00
      21     1     1     2   511   514  7.165366081E+00  2.659641526E+00 -2.092024524E+00  7.924186439E+00  1.763129170E-07  0.00000E+00  9.000E+00
       3     1     1     2   515     0 -1.388493547E+01 -7.283301857E+00  2.217586495E+02  2.223128124E+02  5.000000000E-01  0.00000E+00  9.000E+00
      21     1     1     2   512   511  6.719569385E+00  4.623660331E+00  2.791367956E+00  8.621054613E+00  4.214684851E-08  0.00000E+00  9.000E+00
</event>
<event>
      5  10001  2.40292E+09  2.08141E+01 -1.00000E+00  1.64911E-01
      21    -1     0     0   513   515  0.000000000E+00  0.000000000E+00  7.641385294E+00  7.641385294E+00  0.000000000E+00  0.00000E+00  9.000E+00
       4    -1     0     0   512     0  0.000000000E+00  0.000000000E+00 -5.837371743E+01  5.837371743E+01  0.000000000E+00  0.00000E+00  9.000E+00
      21     1     1     2   512   515  4.918000017E+00  5.504824422E+00 -3.622364495E+01  3.696812505E+01  6.743495762E-07  0.00000E+00  9.000E+00
      21     1     1     2   513   514 -7.381417287E+00  6.196226372E+00  6.762174066E-01  9.661046133E+00  2.364312359E-07  0.00000E+00  9.000E+00
       4     1     1     2   514     0  2.463417269E+00 -1.170105079E+01 -1.518490460E+01  1.938593155E+01  1.500000000E+00  0.00000E+00  9.000E+00
</event>
<event>
      5  10001  2.40292E+09  1.57900E+01 -1.00000E+00  1.75263E-01
       3    -1     0     0   511     0  0.000000000E+00  0.000000000E+00  3.062081895E+02  3.062081895E+02  0.000000000E+00  0.00000E+00  9.000E+00
      21    -1     0     0   512   516  0.000000000E+00  0.000000000E+00 -8.637686083E+01  8.637686083E+01  0.000000000E+00  0.00000E+00  9.000E+00
      21     1     1     2   511   516  1.586879230E+01  1.458943206E+01  2.974224024E+01  3.673242370E+01  8.259061849E-07  0.00000E+00  9.000E+00
      21     1     1     2   512   515 -5.082099828E+00 -2.612072251E+01 -8.050950254E+01  8.479327735E+01  1.651812370E-06  0.00000E+00  9.000E+00
       3     1     1     2   515     0 -1.078669247E+01  1.153129045E+01  2.705985910E+02  2.710593493E+02  5.000000000E-01  0.00000E+00  9.000E+00
</event>
<event>
      5  10001  2.40292E+09  5.96467E+00 -1.00000E+00  2.25792E-01
      21    -1     0     0   513   511  0.000000000E+00  0.000000000E+00  6.120887626E+00  6.120887626E+00  0.000000000E+00  0.00000E+00  9.000E+00
      21    -1     0     0   517   514  0.000000000E+00  0.000000000E+00 -4.768406592E+01  4.768406592E+01  0.000000000E+00  0.00000E+00  9.000E+00
      21     1     1     2   513   514 -1.246873213E+01  5.130455002E+00 -2.216271180E+01  2.594179338E+01  0.000000000E+00  0.00000E+00  9.000E+00
      21     1     1     2   517   512  8.305106123E+00 -9.401468200E+00 -1.763719879E+01  2.164331706E+01  5.331201500E-07  0.00000E+00  9.000E+00
      21     1     1     2   512   511  4.163626010E+00  4.271013198E+00 -1.763267702E+00  6.219843107E+00  4.712160915E-08  0.00000E+00  9.000E+00
</event>
<event>
      5  10001  2.40292E+09  3.17301E+00 -1.00000E+00  2.89537E-01
      21    -1     0     0   515   514  0.000000000E+00  0.000000000E+00  3.817156097E+00  3.817156097E+00  0.000000000E+00  0.00000E+00  9.000E+00
      21    -1     0     0   516   511  0.000000000E+00  0.000000000E+00 -5.377782380E+01  5.377782380E+01  0.000000000E+00  0.00000E+00  9.000E+00
      21     1     1     2   515   511  1.093655229E+01 -2.835303018E+00 -4.240527659E+01  4.388455995E+01  0.000000000E+00  0.00000E+00  9.000E+00
      21     1     1     2   513   514 -2.317814033E+00  2.110867838E-01 -8.428373582E-01  2.475317017E+00  1.825012075E-08  0.00000E+00  9.000E+00
      21     1     1     2   516   513 -8.618738256E+00  2.624216234E+00 -6.712553757E+00  1.123510293E+01  3.039252468E-07  0.00000E+00  9.000E+00
</event>
<event>
      5  10001  2.40292E+09  1.88357E+00 -1.00000E+00  3.75448E-01
      21    -1     0     0   512   511  0.000000000E+00  0.000000000E+00  3.142239033E+01  3.142239033E+01  0.000000000E+00  0.00000E+00  9.000E+00
       1    -1     0     0   514     0  0.000000000E+00  0.000000000E+00 -1.433596408E+01  1.433596408E+01  0.000000000E+00  0.00000E+00  9.000E+00
      21     1     1     2   514   513 -9.906391280E+00  6.467078843E+00 -4.439482695E+00  1.263600821E+01  8.429369702E-08  0.00000E+00  9.000E+00
       1     1     1     2   512     0  9.478407067E+00 -4.632982573E+00 -9.221031290E-01  1.059546612E+01  3.300000131E-01  0.00000E+00  9.000E+00
      21     1     1     2   513   511  4.279842126E-01 -1.834096270E+00  2.244801208E+01  2.252688008E+01  0.000000000E+00  0.00000E+00  9.000E+00
</event>
<event>
      5  10001  2.40292E+09  7.50232E+00 -1.00000E+00  2.11317E-01
      21    -1     0     0   515   514  0.000000000E+00  0.000000000E+00  1.482175543E+02  1.482175543E+02  0.000000000E+00  0.00000E+00  9.000E+00
      21    -1     0     0   511   515  0.000000000E+00  0.000000000E+00 -1.571096417E+00  1.571096417E+00  0.000000000E+00  0.00000E+00  9.000E+00
      21     1     1     2   516   514 -1.502233588E+00 -9.559254375E+00  1.178151654E+02  1.182118829E+02  1.348699152E-06  0.00000E+00  9.000E+00
      21     1     1     2   512   516  4.461417791E+00  3.743956297E+00  9.191074362E+00  1.088105259E+01  3.153981341E-07  0.00000E+00  9.000E+00
      21     1     1     2   511   512 -2.959184202E+00  5.815298078E+00  1.964021809E+01  2.069571524E+01  4.768371582E-07  0.00000E+00  9.000E+00
</event>
<event>
      5  10001  2.40292E+09  4.30104E+00 -1.00000E+00  2.56157E-01
      21    -1     0     0   513   512  0.000000000E+00  0.000000000E+00  2.554421335E+01  2.554421335E+01  0.000000000E+00  0.00000E+00  9.000E+00
      21    -1     0     0   511   517  0.000000000E+00  0.000000000E+00 -1.777845675E+01  1.777845675E+01  0.000000000E+00  0.00000E+00  9.000E+00
      21     1     1     2   513   517 -1.679226054E+00 -1.514726954E+01  1.660978680E+01  2.254206274E+01  3.371747881E-07  0.00000E+00  9.000E+00
      21     1     1     2   514   512  4.409380842E-01  1.668836143E+01 -7.088753814E+00  1.813687581E+01  4.298152060E-07  0.00000E+00  9.000E+00
      21     1     1     2   511   514  1.238287970E+00 -1.541091887E+00 -1.755276387E+00  2.643731548E+00  6.322027277E-08  0.00000E+00  9.000E+00
</event>
<event>
      5  10001  2.40292E+09  9.76751E+00 -1.00000E+00  1.96886E-01
      21    -1     0     0   515   514  0.000000000E+00  0.000000000E+00  1.268386188E+02  1.268386188E+02  0.000000000E+00  0.00000E+00  9.000E+00
      21    -1     0     0   511   512  0.000000000E+00  0.000000000E+00 -8.727524559E+01  8.727524559E+01  0.000000000E+00  0.00000E+00  9.000E+00
      21     1     1     2   511   516  1.452439511E+01  4.642870810E+00  1.762341575E+01  2.330448638E+01  4.129530925E-07  0.00000E+00  9.000E+00
      21     1     1     2   516   514 -4.756993228E+00 -4.597302367E+00  1.059887150E+02  1.061949711E+02  1.907348633E-06  0.00000E+00  9.000E+00
      21     1     1     2   515   512 -9.767401886E+00 -4.556844257E-02 -8.404875755E+01  8.461440694E+01  1.651812370E-06  0.00000E+00  9.000E+00
</event>
<event>
      5  10001  2.40292E+09  3.60528E+00 -1.00000E+00  2.74458E-01
      21    -1     0     0   513   512  0.000000000E+00  0.000000000E+00  1.292156872E+02  1.292156872E+02  0.000000000E+00  0.00000E+00  9.000E+00
      21    -1     0     0   511   517  0.000000000E+00  0.000000000E+00 -2.121372123E+00  2.121372123E+00  0.000000000E+00  0.00000E+00  9.000E+00
      21     1     1     2   513   517  1.123606992E+01  5.109906227E+00  2.011997999E+01  2.360453355E+01  4.768371582E-07  0.00000E+00  9.000E+00
      21     1     1     2   511   514 -4.339624233E+00 -1.305742829E+00  5.196200105E+01  5.215924516E+01  6.743495762E-07  0.00000E+00  9.000E+00
      21     1     1     2   514   512 -6.896445691E+00 -3.804163398E+00  5.501233406E+01  5.557328064E+01  9.536743164E-07  0.00000E+00  9.000E+00
</event>
<event>
      5  10001  2.40292E+09  5.44884E+00 -1.00000E+00  2.32090E-01
      21    -1     0     0   513   511  0.000000000E+00  0.000000000E+00  1.247515535E+02  1.247515535E+02  0.000000000E+00  0.00000E+00  9.000E+00
      21    -1     0     0   512   515  0.000000000E+00  0.000000000E+00 -3.046986520E+01  3.046986520E+01  0.000000000E+00  0.00000E+00  9.000E+00
      21     1     1     2   512   516 -5.711906063E+00  1.301963330E+01 -7.549579878E+00  1.609760474E+01  2.528810911E-07  0.00000E+00  9.000E+00
      21     1     1     2   516   511  5.814471644E+00 -1.846750509E+01 -1.353868638E+01  2.362525881E+01  2.920019320E-07  0.00000E+00  9.000E+00
      21     1     1     2   513   515 -1.025655805E-01  5.447871790E+00  1.153699545E+02  1.154985551E+02  1.348699152E-06  0.00000E+00  9.000E+00
</event>
<event>
      5  10001  2.40292E+09  1.00576E+01 -1.00000E+00  1.95411E-01
      21    -1     0     0   511   515  0.000000000E+00  0.000000000E+00  9.660092954E+01  9.660092954E+01  0.000000000E+00  0.00000E+00  9.000E+00
      21    -1     0     0   517   514  0.000000000E+00  0.000000000E+00 -7.862694266E+01  7.862694266E+01  0.000000000E+00  0.00000E+00  9.000E+00
      21     1     1     2   517   512  1.286102140E+01  1.189303454E+01 -6.920362017E+01  7.138621146E+01  9.536743164E-07  0.00000E+00  9.000E+00
      21     1     1     2   512   515 -1.115633493E+01 -1.980976766E+00 -4.071349367E+00  1.204009816E+01  5.559551151E-07  0.00000E+00  9.000E+00
      21     1     1     2   511   514 -1.704686470E+00 -9.912057772E+00  9.124895642E+01  9.180156259E+01  0.000000000E+00  0.00000E+00  9.000E+00
</event>
<event>
      5  10001  2.40292E+09  6.40810E+00 -1.00000E+00  2.21048E-01
       1    -1     0     0   515     0  0.000000000E+00  0.000000000E+00  3.859898258E+02  3.859898258E+02  0.000000000E+00  0.00000E+00  9.000E+00
      21    -1     0     0   511   513  0.000000000E+00  0.000000000E+00 -1.659332710E+01  1.659332710E+01  0.000000000E+00  0.00000E+00  9.000E+00
      21     1     1     2   512   513  7.693150666E+00 -1.090908852E+01 -1.328495646E+01  1.883302545E+01  1.348699152E-06  0.00000E+00  9.000E+00
       1     1     1     2   511     0 -1.199748955E+01  6.161876707E+00  3.578798354E+02  3.581340447E+02  3.300000131E-01  0.00000E+00  9.000E+00
      21     1     1     2   515   512  4.304338884E+00  4.747211812E+00  2.480161973E+01  2.561608273E+01  3.371747881E-07  0.00000E+00  9.000E+00
</event>
<event>
      5  10001  2.40292E+09  5.14908E+00 -1.00000E+00  2.36222E-01
      -1    -1     0     0     0   512  0.000000000E+00  0.000000000E+00  7.034474236E+01  7.034474236E+01  0.000000000E+00  0.00000E+00  9.000E+00
      21    -1     0     0   514   515  0.000000000E+00  0.000000000E+00 -6.392803641E+00  6.392803641E+00  0.000000000E+00  0.00000E+00  9.000E+00
      -1     1     1     2     0   515 -1.997602306E+01 -3.980729745E+00  3.466399488E+01  4.020682961E+01  3.300000131E-01  0.00000E+00  9.000E+00
      21     1     1     2   511   512  1.466917491E+01  4.151251208E+00  2.640220538E+01  3.048760450E+01  6.743495762E-07  0.00000E+00  9.000E+00
      21     1     1     2   514   511  5.306848151E+00 -1.705214634E-01  2.885738460E+00  6.043111891E+00  1.737759082E-07  0.00000E+00  9.000E+00
</event>
<event>
      5  10001  2.40292E+09  4.84527E+00 -1.00000E+00  2.45187E-01
      21    -1     0     0   513   511  0.000000000E+00  0.000000000E+00  3.121368727E+00  3.121368727E+00  0.000000000E+00  0.00000E+00  9.000E+00
      21    -1     0     0   514   512  0.000000000E+00  0.000000000E+00 -1.359103619E+02  1.359103619E+02  0.000000000E+00  0.00000E+00  9.000E+00
      21     1     1     2   513   516  4.877949928E+00  1.279123896E+01 -2.066932402E+01  2.479175559E+01  3.371747881E-07  0.00000E+00  9.000E+00
      21     1     1     2   514   511 -8.180060695E-01 -1.014672416E+01 -2.510253963E+01  2.708805347E+01  3.371747881E-07  0.00000E+00  9.000E+00
      21     1     1     2   516   512 -4.059943859E+00 -2.644514792E+00 -8.701712954E+01  8.715192158E+01  1.348699152E-06  0.00000E+00  9.000E+00
</event>
<event>
      5  10001  2.40292E+09  6.42495E+00 -1.00000E+00  2.20878E-01
       2    -1     0     0   515     0  0.000000000E+00  0.000000000E+00  5.860074048E+02  5.860074048E+02  0.000000000E+00  0.00000E+00  9.000E+00
       2    -1     0     0   514     0  0.000000000E+00  0.000000000E+00 -3.185191727E+02  3.185191727E+02  0.000000000E+00  0.00000E+00  9.000E+00
      21     1     1     2   514   511  1.164740426E+01 -4.340693162E+00 -7.174161720E+00  1.435173298E+01  3.039252468E-07  0.00000E+00  9.000E+00
       2     1     1     2   515     0 -5.648692221E+00  6.641876648E+00 -3.076766102E+02  3.078003048E+02  3.300000131E-01  0.00000E+00  9.000E+00
       2     1     1     2   511     0 -5.998712041E+00 -2.301183485E+00  5.823390041E+02  5.823745398E+02  3.300000131E-01  0.00000E+00  9.000E+00
</event>
<event>
      5  10001  2.40292E+09  8.19654E+00 -1.00000E+00  2.06237E-01
      21    -1     0     0   512   511  0.000000000E+00  0.000000000E+00  1.834020872E+02  1.834020872E+02  0.000000000E+00  0.00000E+00  9.000E+00
      21    -1     0     0   513   515  0.000000000E+00  0.000000000E+00 -1.515069467E+01  1.515069467E+01  0.000000000E+00  0.00000E+00  9.000E+00
      21     1     1     2   513   514  1.410536260E+01 -1.044388236E+00 -7.593312317E+00  1.605336080E+01  7.679521279E-07  0.00000E+00  9.000E+00
      21     1     1     2   514   511 -1.051975358E+01  8.415047371E+00  1.734330526E+02  1.739554597E+02  1.907348633E-06  0.00000E+00  9.000E+00
      21     1     1     2   512   515 -3.585609023E+00 -7.370659135E+00  2.411652201E+00  8.543961288E+00  5.161913656E-08  0.00000E+00  9.000E+00
</event>
<event>
      5  10001  2.40292E+09  8.91072E+00 -1.00000E+00  2.01669E-01
      21    -1     0     0   515   511  0.000000000E+00  0.000000000E+00  4.965092301E+01  4.965092301E+01  0.000000000E+00  0.00000E+00  9.000E+00
      21    -1     0     0   516   515  0.000000000E+00  0.000000000E+00 -3.445447390E+00  3.445447390E+00  0.000000000E+00  0.00000E+00  9.000E+00
      -4     1     1     2     0   513 -9.012623671E-01 -4.421148181E+00  2.206419620E+01  2.257072393E+01  1.500000000E+00  0.00000E+00  9.000E+00
       4     1     1     2   516     0  8.312539865E+00  4.864432894E+00  7.485426336E+00  1.228994035E+01  1.500000000E+00  0.00000E+00  9.000E+00
      21     1     1     2   513   511 -7.411277498E+00 -4.432847135E-01  1.665585309E+01  1.823570612E+01  2.384185791E-07  0.00000E+00  9.000E+00
</event>
<event>
      5  10001  2.40292E+09  5.00857E+00 -1.00000E+00  2.38299E-01
      21    -1     0     0   512   515  0.000000000E+00  0.000000000E+00  3.172343865E+01  3.172343865E+01  0.000000000E+00  0.00000E+00  9.000E+00
      21    -1     0     0   513   511  0.000000000E+00  0.000000000E+00 -2.058809224E+01  2.058809224E+01  0.000000000E+00  0.00000E+00  9.000E+00
      21     1     1     2   512   511 -8.567877994E+00  7.100612216E+00 -1.500381821E+01  1.867998362E+01  2.384185791E-07  0.00000E+00  9.000E+00
      21     1     1     2   513   514  9.059549038E+00 -1.208498632E+01  1.439846819E+01  2.086715624E+01  2.384185791E-07  0.00000E+00  9.000E+00
      21     1     1     2   514   515 -4.916710437E-01  4.984374109E+00  1.174069643E+01  1.276439103E+01  1.685873940E-07  0.00000E+00  9.000E+00
</event>
<event>
      5  10001  2.40292E+09  7.85591E+00 -1.00000E+00  2.08641E-01
      -2    -1     0     0     0   515  0.000000000E+00  0.000000000E+00  7.876487518E+00  7.876487518E+00  0.000000000E+00  0.00000E+00  9.000E+00
      21    -1     0     0   512   511  0.000000000E+00  0.000000000E+00 -9.248356784E+01  9.248356784E+01  0.000000000E+00  0.00000E+00  9.000E+00
      -2     1     1     2     0   514  1.659866589E+01 -1.377525570E+01 -2.176855004E+01  3.064721928E+01  3.300000131E-01  0.00000E+00  9.000E+00
      21     1     1     2   512   515 -1.284003387E+01  6.877245580E+00 -1.385310583E+01  2.010153023E+01  6.743495762E-07  0.00000E+00  9.000E+00
      21     1     1     2   514   511 -3.758632027E+00  6.898010120E+00 -4.898542446E+01  4.961130584E+01  0.000000000E+00  0.00000E+00  9.000E+00
</event>
<event>
      5  10001  2.40292E+09  7.12985E+00 -1.00000E+00  2.14361E-01
      21    -1     0     0   513   512  0.000000000E+00  0.000000000E+00  5.962993886E+01  5.962993886E+01  0.000000000E+00  0.00000E+00  9.000E+00
      -3    -1     0     0     0   511  0.000000000E+00  0.000000000E+00 -1.129334864E+01  1.129334864E+01  0.000000000E+00  0.00000E+00  9.000E+00
      -3     1     1     2     0   515 -8.341611649E+00 -1.518848523E+00 -2.609052032E-01  8.497497118E+00  5.000000000E-01  0.00000E+00  9.000E+00
      21     1     1     2   513   511  1.243067243E+01  3.477576995E+00  5.391448126E+01  5.543813172E+01  0.000000000E+00  0.00000E+00  9.000E+00
      21     1     1     2   515   512 -4.089060782E+00 -1.958728473E+00 -5.316985835E+00  6.987658669E+00  2.149076030E-07  0.00000E+00  9.000E+00
</event>
<event>
      5  10001  2.40292E+09  4.35822E+00 -1.00000E+00  2.54890E-01
      21    -1     0     0   514   516  0.000000000E+00  0.000000000E+00  2.679028683E+01  2.679028683E+01  0.000000000E+00  0.00000E+00  9.000E+00
      21    -1     0     0   515   511  0.000000000E+00  0.000000000E+00 -1.082674823E+01  1.082674823E+01  0.000000000E+00  0.00000E+00  9.000E+00
      21     1     1     2   514   512 -2.104426434E+00 -7.952743511E+00  2.753476194E+00  8.675043004E+00  2.402740046E-07  0.00000E+00  9.000E+00
      21     1     1     2   515   516  1.361134718E+00  1.224710960E+01  1.841238738E+01  2.215536934E+01  2.384185791E-07  0.00000E+00  9.000E+00
      21     1     1     2   512   511  7.432917161E-01 -4.294366090E+00 -5.202324981E+00  6.786622717E+00  1.332800375E-07  0.00000E+00  9.000E+00
</event>
<event>
      5  10001  2.40292E+09  6.84728E+00 -1.00000E+00  2.16844E-01
      21    -1     0     0   513   512  0.000000000E+00  0.000000000E+00  2.345326259E+01  2.345326259E+01  0.000000000E+00  0.00000E+00  9.000E+00
      21    -1     0     0   514   513  0.000000000E+00  0.000000000E+00 -2.789000217E+01  2.789000217E+01  0.000000000E+00  0.00000E+00  9.000E+00
      21     1     1     2   517   511 -8.292974415E+00  8.115462572E+00 -2.724207848E+00  1.191870235E+01  1.365713982E-07  0.00000E+00  9.000E+00
      21     1     1     2   511   512  1.111303906E+01 -1.875868324E+00  1.649187373E+01  1.997499482E+01  3.371747881E-07  0.00000E+00  9.000E+00
      21     1     1     2   514   517 -2.820064644E+00 -6.239594248E+00 -1.820440546E+01  1.944956759E+01  0.000000000E+00  0.00000E+00  9.000E+00
</event>
<event>
      5  10001  2.40292E+09  1.21464E+01 -1.00000E+00  1.86423E-01
      -2    -1     0     0     0   515  0.000000000E+00  0.000000000E+00  1.500913263E+01  1.500913263E+01  0.000000000E+00  0.00000E+00  9.000E+00
      21    -1     0     0   512   513  0.000000000E+00  0.000000000E+00 -6.164316321E+01  6.164316321E+01  0.000000000E+00  0.00000E+00  9.000E+00
      -2     1     1     2     0   513 -5.409425988E+00 -8.906865374E+00  1.186706117E+01  1.579652433E+01  3.300000131E-01  0.00000E+00  9.000E+00
       1     1     1     2   512     0  9.081214115E+00  6.356063047E+00 -2.960145003E+01  3.161048452E+01  3.300000131E-01  0.00000E+00  9.000E+00
      -1     1     1     2     0   515 -3.671788126E+00  2.550802327E+00 -2.889964171E+01  2.924528700E+01  3.300000131E-01  0.00000E+00  9.000E+00
</event>
<event>
      5  10001  2.40292E+09  4.77739E+00 -1.00000E+00  2.46434E-01
      21    -1     0     0   511   515  0.000000000E+00  0.000000000E+00  5.954034239E-01  5.954034239E-01  0.000000000E+00  0.00000E+00  9.000E+00
      21    -1     0     0   514   511  0.000000000E+00  0.000000000E+00 -3.064375903E+02  3.064375903E+02  0.000000000E+00  0.00000E+00  9.000E+00
      21     1     1     2   512   515 -1.085143046E+01  4.390249212E+00 -1.106429683E+02  1.112604793E+02  1.348699152E-06  0.00000E+00  9.000E+00
      21     1     1     2   514   513  9.426485772E+00 -5.885135843E+00 -1.865284654E+02  1.868592034E+02  3.814697266E-06  0.00000E+00  9.000E+00
      21     1     1     2   513   512  1.424944687E+00  1.494886631E+00 -8.670753128E+00  8.913311013E+00  1.685873940E-07  0.00000E+00  9.000E+00
</event>
<event>
      5  10001  2.40292E+09  4.73482E+00 -1.00000E+00  2.47232E-01
      21    -1     0     0   516   514  0.000000000E+00  0.000000000E+00  2.870663654E+02  2.870663654E+02  0.000000000E+00  0.00000E+00  9.000E+00
      21    -1     0     0   515   511  0.000000000E+00  0.000000000E+00 -1.949857164E+00  1.949857164E+00  0.000000000E+00  0.00000E+00  9.000E+00
      21     1     1     2   516   512  1.115103641E+01  7.292062160E+00  2.211154294E+02  2.215164845E+02  2.697398305E-06  0.00000E+00  9.000E+00
      21     1     1     2   515   514 -1.037909945E+01 -2.620593690E+00  6.091393127E+01  6.184739477E+01  0.000000000E+00  0.00000E+00  9.000E+00
      21     1     1     2   512   511 -7.719369607E-01 -4.671468470E+00  3.087147489E+00  5.652343227E+00  4.214684851E-08  0.00000E+00  9.000E+00
</event>
<event>
      5  10001  2.40292E+09  5.72532E+00 -1.00000E+00  2.28599E-01
      21    -1     0     0   513   515  0.000000000E+00  0.000000000E+00  4.214944732E+00  4.214944732E+00  0.000000000E+00  0.00000E+00  9.000E+00
      -1    -1     0     0     0   511  0.000000000E+00  0.000000000E+00 -2.899886624E+02  2.899886624E+02  0.000000000E+00  0.00000E+00  9.000E+00
      -1     1     1     2     0   514  2.130508177E+00 -1.146901270E+01 -2.426542226E+02  2.429346784E+02  3.300000131E-01  0.00000E+00  9.000E+00
      21     1     1     2   513   511 -7.819373219E+00  1.082526106E+01 -4.352685016E+01  4.552928244E+01  4.768371582E-07  0.00000E+00  9.000E+00
      21     1     1     2   514   515  5.688865042E+00  6.437516400E-01  4.073550857E-01  5.739646313E+00  2.743088870E-07  0.00000E+00  9.000E+00
</event>
<event>
      5  10001  2.40292E+09  5.83645E+00 -1.00000E+00  2.27272E-01
       2    -1     0     0   513     0  0.000000000E+00  0.000000000E+00  2.640452533E+02  2.640452533E+02  0.000000000E+00  0.00000E+00  9.000E+00
      21    -1     0     0   512   511  0.000000000E+00  0.000000000E+00 -1.716549889E+00  1.716549889E+00  0.000000000E+00  0.00000E+00  9.000E+00
      21     1     1     2   516   511 -6.698752283E+00  5.409423083E+00  1.458230446E+01  1.693454291E+01  4.460403188E-07  0.00000E+00  9.000E+00
       2     1     1     2   512     0  1.197158500E+01 -3.043365314E+00  2.256332858E+02  2.259713908E+02  3.300000131E-01  0.00000E+00  9.000E+00
      21     1     1     2   513   516 -5.272832722E+00 -2.366057769E+00  2.211311317E+01  2.285586945E+01  0.000000000E+00  0.00000E+00  9.000E+00
</event>
<event>
      5  10001  2.40292E+09  4.74941E+00 -1.00000E+00  2.46957E-01
      21    -1     0     0   514   512  0.000000000E+00  0.000000000E+00  9.152000953E-01  9.152000953E-01  0.000000000E+00  0.00000E+00  9.000E+00
      21    -1     0     0   515   514  0.000000000E+00  0.000000000E+00 -2.696263068E+02  2.696263068E+02  0.000000000E+00  0.00000E+00  9.000E+00
      21     1     1     2   515   516 -1.294588556E+01 -3.514296385E+00 -1.268472897E+02  1.275546202E+02  2.697398305E-06  0.00000E+00  9.000E+00
      21     1     1     2   516   511  8.250104934E+00  2.802562388E+00 -1.286628942E+02  1.289575858E+02  1.907348633E-06  0.00000E+00  9.000E+00
      21     1     1     2   511   512  4.695780627E+00  7.117339966E-01 -1.320092283E+01  1.402930093E+01  3.371747881E-07  0.00000E+00  9.000E+00
</event>
<event>
      5  10001  2.40292E+09  6.00009E+00 -1.00000E+00  2.25392E-01
      -2    -1     0     0     0   512  0.000000000E+00  0.000000000E+00  1.250108111E+02  1.250108111E+02  0.000000000E+00  0.00000E+00  9.000E+00
      21    -1     0     0   512   513  0.000000000E+00  0.000000000E+00 -6.389623734E+00  6.389623734E+00  0.000000000E+00  0.00000E+00  9.000E+00
      -2     1     1     2     0   514 -6.661187144E+00  1.362456716E+01  1.016141627E+02  1.027401928E+02  3.300000131E-01  0.00000E+00  9.000E+00
      21     1     1     2   511   513  6.389923942E+00 -1.023088450E+01  7.884220607E-01  1.208816508E+01  4.149645661E-07  0.00000E+00  9.000E+00
      21     1     1     2   514   511  2.712632011E-01 -3.393682661E+00  1.621860257E+01  1.657207697E+01  2.384185791E-07  0.00000E+00  9.000E+00
</event>
<event>
      5  10001  2.40292E+09  5.77339E+00 -1.00000E+00  2.28020E-01
       2    -1     0     0   513     0  0.000000000E+00  0.000000000E+00  6.483282329E+02  6.483282329E+02  0.000000000E+00  0.00000E+00  9.000E+00
      21    -1     0     0   515   511  0.000000000E+00  0.000000000E+00 -9.371382185E+01  9.371382185E+01  0.000000000E+00  0.00000E+00  9.000E+00
      21     1     1     2   512   511 -4.736750849E+00  3.918809334E+00 -8.563178268E+01  8.585217575E+01  3.932099939E-06  0.00000E+00  9.000E+00
       2     1     1     2   515     0  7.404759531E+00 -9.537431054E+00  6.469397740E+02  6.470525273E+02  3.300000131E-01  0.00000E+00  9.000E+00
      21     1     1     2   513   512 -2.668008682E+00  5.618621721E+00 -6.693580204E+00  9.137351713E+00  8.429369702E-08  0.00000E+00  9.000E+00
</event>
<event>
      5  10001  2.40292E+09  9.40229E+00 -1.00000E+00  1.98843E-01
      21    -1     0     0   512   514  0.000000000E+00  0.000000000E+00  2.245248336E+00  2.245248336E+00  0.000000000E+00  0.00000E+00  9.000E+00
      -2    -1     0     0     0   512  0.000000000E+00  0.000000000E+00 -2.369098315E+02  2.369098315E+02  0.000000000E+00  0.00000E+00  9.000E+00
      -2     1     1     2     0   513 -8.692124278E+00  4.850915943E+00 -2.231520330E+02  2.233741775E+02  3.300000131E-01  0.00000E+00  9.000E+00
      21     1     1     2   513   511  7.211058538E-02 -1.529887616E+00 -1.285940046E+00  1.999849459E+00  8.296615426E-08  0.00000E+00  9.000E+00
      21     1     1     2   511   514  8.620013693E+00 -3.321028327E+00 -1.022661003E+01  1.378105286E+01  4.129530925E-07  0.00000E+00  9.000E+00
</event>
<event>
      5  10001  2.40292E+09  9.04755E+00 -1.00000E+00  2.00858E-01
      -2    -1     0     0     0   514  0.000000000E+00  0.000000000E+00  3.509943013E+00  3.509943013E+00  0.000000000E+00  0.00000E+00  9.000E+00
      21    -1     0     0   511   512  0.000000000E+00  0.000000000E+00 -1.082363990E+02  1.082363990E+02  0.000000000E+00  0.00000E+00  9.000E+00
      -2     1     1     2     0   512 -4.295568453E+00 -1.220687141E+01 -1.209970022E+01  1.771923427E+01  3.300000131E-01  0.00000E+00  9.000E+00
      21     1     1     2   513   514 -7.561303808E-01  4.511924141E+00 -5.856685057E+01  5.874525665E+01  9.536743164E-07  0.00000E+00  9.000E+00
      21     1     1     2   511   513  5.051698834E+00  7.694947265E+00 -3.405990524E+01  3.528185113E+01  4.768371582E-07  0.00000E+00  9.000E+00
</event>
<event>
      5  10001  2.40292E+09  5.47963E+00 -1.00000E+00  2.31687E-01
       3    -1     0     0   512     0  0.000000000E+00  0.000000000E+00  1.830621178E+01  1.830621178E+01  0.000000000E+00  0.00000E+00  9.000E+00
      21    -1     0     0   513   512  0.000000000E+00  0.000000000E+00 -3.875964650E+01  3.875964650E+01  0.000000000E+00  0.00000E+00  9.000E+00
      21     1     1     2   513   515 -9.977305749E+00 -9.970861320E+00 -3.308553829E+01  3.596689519E+01  0.000000000E+00  0.00000E+00  9.000E+00
       3     1     1     2   514     0  8.001755001E+00  1.126607611E+01  8.198732773E+00  1.607550226E+01  5.000000000E-01  0.00000E+00  9.000E+00
      21     1     1     2   515   514  1.975550748E+00 -1.295214788E+00  4.433370793E+00  5.023460829E+00  1.460009660E-07  0.00000E+00  9.000E+00
</event>
<event>
      5  10001  2.40292E+09  1.02045E+01 -1.00000E+00  1.94688E-01
      21    -1     0     0   511   514  0.000000000E+00  0.000000000E+00  5.785986353E+01  5.785986353E+01  0.000000000E+00  0.00000E+00  9.000E+00
       4    -1     0     0   515     0  0.000000000E+00  0.000000000E+00 -6.561002104E+00  6.561002104E+00  0.000000000E+00  0.00000E+00  9.000E+00
      21     1     1     2   515   514  3.168899417E+00  1.279614685E+01  4.385441026E+01  4.579293173E+01  8.259061849E-07  0.00000E+00  9.000E+00
       4     1     1     2   512     0 -3.159853479E+00 -3.077833433E+00 -2.005629379E+00  5.072502524E+00  1.500000000E+00  0.00000E+00  9.000E+00
      21     1     1     2   511   512 -9.045937959E-03 -9.718313417E+00  9.450080552E+00  1.355543138E+01  1.685873940E-07  0.00000E+00  9.000E+00
</event>
<event>
      5  10001  2.40292E+09  3.06502E+00 -1.00000E+00  2.93934E-01
      21    -1     0     0   513   515  0.000000000E+00  0.000000000E+00  1.689580768E+00  1.689580768E+00  0.000000000E+00  0.00000E+00  9.000E+00
      -3    -1     0     0     0   513  0.000000000E+00  0.000000000E+00 -5.769143737E+02  5.769143737E+02  0.000000000E+00  0.00000E+00  9.000E+00
      -3     1     1     2     0   511  1.763097753E+01 -3.359998466E+00 -5.218686801E+02  5.221774701E+02  5.000000000E-01  0.00000E+00  9.000E+00
      21     1     1     2   514   515 -1.037197978E+01  3.401314322E-01 -2.712059489E+01  2.903825617E+01  7.539457465E-07  0.00000E+00  9.000E+00
      21     1     1     2   511   514 -7.258997754E+00  3.019867034E+00 -2.623551798E+01  2.738822829E+01  5.840038640E-07  0.00000E+00  9.000E+00
</event>
<event>
      5  10001  2.40292E+09  9.83092E+00 -1.00000E+00  1.96558E-01
      21    -1     0     0   512   515  0.000000000E+00  0.000000000E+00  3.043353352E+02  3.043353352E+02  0.000000000E+00  0.00000E+00  9.000E+00
      21    -1     0     0   516   512  0.000000000E+00  0.000000000E+00 -7.957149392E-01  7.957149392E-01  0.000000000E+00  0.00000E+00  9.000E+00
      21     1     1     2   514   515 -7.761915385E+00  9.976055662E+00  2.184743639E+02  2.188397055E+02  3.814697266E-06  0.00000E+00  9.000E+00
      -4     1     1     2     0   514  1.687392194E+00 -4.419406087E+00  4.980779205E+01  5.005441630E+01  1.500000000E+00  0.00000E+00  9.000E+00
       4     1     1     2   516     0  6.074523191E+00 -5.556649575E+00  3.525746436E+01  3.623692840E+01  1.500000000E+00  0.00000E+00  9.000E+00
</event>
<event>
      5  10001  2.40292E+09  1.45821E+01 -1.00000E+00  1.78499E-01
      21    -1     0     0   511   515  0.000000000E+00  0.000000000E+00  2.668041014E+02  2.668041014E+02  0.000000000E+00  0.00000E+00  9.000E+00
      21    -1     0     0   512   511  0.000000000E+00  0.000000000E+00 -1.102636019E+01  1.102636019E+01  0.000000000E+00  0.00000E+00  9.000E+00
      21     1     1     2   513   516 -1.027675028E+01 -2.857817332E+00  5.491786595E+00  1.199743457E+01  5.092623082E-07  0.00000E+00  9.000E+00
      21     1     1     2   516   515  5.319983287E+00  1.657160827E+01  2.506429980E+02  2.512465579E+02  5.394796609E-06  0.00000E+00  9.000E+00
      21     1     1     2   512   513  4.956766990E+00 -1.371379093E+01 -3.570433823E-01  1.458646910E+01  1.903911283E-07  0.00000E+00  9.000E+00
</event>
<event>
      5  10001  2.40292E+09  5.88448E+00 -1.00000E+00  2.26712E-01
       2    -1     0     0   512     0  0.000000000E+00  0.000000000E+00  4.519715146E+02  4.519715146E+02  0.000000000E+00  0.00000E+00  9.000E+00
      21    -1     0     0   514   511  0.000000000E+00  0.000000000E+00 -2.421258950E+00  2.421258950E+00  0.000000000E+00  0.00000E+00  9.000E+00
      21     1     1     2   512   515 -1.209649649E+01 -3.444960033E+00  1.788774656E+01  2.186697176E+01  6.307962682E-07  0.00000E+00  9.000E+00
       2     1     1     2   514     0  1.267730300E+01 -1.161105463E+00  4.158728018E+02  4.160677329E+02  3.300000131E-01  0.00000E+00  9.000E+00
      21     1     1     2   515   511 -5.808065118E-01  4.606065496E+00  1.578970729E+01  1.645806890E+01  2.920019320E-07  0.00000E+00  9.000E+00
</event>
<event>
      5  10001  2.40292E+09  8.24424E+00 -1.00000E+00  2.05913E-01
      21    -1     0     0   513   514  0.000000000E+00  0.000000000E+00  7.374840599E+00  7.374840599E+00  0.000000000E+00  0.00000E+00  9.000E+00
      21    -1     0     0   516   513  0.000000000E+00  0.000000000E+00 -9.417396260E+01  9.417396260E+01  0.000000000E+00  0.00000E+00  9.000E+00
      21     1     1     2   511   514  4.476779277E+00 -9.408932147E+00  2.788683024E+00  1.078639466E+01  3.769728732E-07  0.00000E+00  9.000E+00
      21     1     1     2   512   511 -7.638717150E+00  5.818656674E+00 -5.296093466E+01  5.382441235E+01  6.743495762E-07  0.00000E+00  9.000E+00
      21     1     1     2   516   512  3.161937873E+00  3.590275473E+00 -3.662687036E+01  3.693799618E+01  6.743495762E-07  0.00000E+00  9.000E+00
</event>
<event>
      5  10001  2.40292E+09  5.73426E+00 -1.00000E+00  2.28491E-01
       4    -1     0     0   511     0  0.000000000E+00  0.000000000E+00  3.574273322E+01  3.574273322E+01  0.000000000E+00  0.00000E+00  9.000E+00
      21    -1     0     0   514   511  0.000000000E+00  0.000000000E+00 -2.481398484E+02  2.481398484E+02  0.000000000E+00  0.00000E+00  9.000E+00
      -3     1     1     2     0   513  1.348347060E+01 -4.069447340E+00  2.156824928E-01  1.409471177E+01  5.000000000E-01  0.00000E+00  9.000E+00
       4     1     1     2   513     0 -1.158276139E+01 -1.339922917E+00  2.734295097E+01  2.976311010E+01  1.500000000E+00  0.00000E+00  9.000E+00
       3     1     1     2   514     0 -1.900709204E+00  5.409370257E+00 -2.399557487E+02  2.400247598E+02  5.000000000E-01  0.00000E+00  9.000E+00
</event>
<event>
      5  10001  2.40292E+09  2.70316E+00 -1.00000E+00  3.11156E-01
       3    -1     0     0   511     0  0.000000000E+00  0.000000000E+00  2.572249709E+00  2.572249709E+00  0.000000000E+00  0.00000E+00  9.000E+00
      21    -1     0     0   515   511  0.000000000E+00  0.000000000E+00 -1.998414296E+02  1.998414296E+02  0.000000000E+00  0.00000E+00  9.000E+00
      21     1     1     2   513   512 -1.930508966E+00  1.288204697E+01 -1.374123209E+02  1.380283302E+02  1.907348633E-06  0.00000E+00  9.000E+00
       3     1     1     2   512     0  3.393513154E+00 -1.060943349E+01 -1.173458350E+01  1.618723140E+01  5.000000000E-01  0.00000E+00  9.000E+00
      21     1     1     2   515   513 -1.463004188E+00 -2.272613473E+00 -4.812227553E+01  4.819811776E+01  6.743495762E-07  0.00000E+00  9.000E+00
</event>
<event>
      5  10001  2.40292E+09  1.03142E+01 -1.00000E+00  1.94159E-01
      21    -1     0     0   512   513  0.000000000E+00  0.000000000E+00  2.078821053E+01  2.078821053E+01  0.000000000E+00  0.00000E+00  9.000E+00
       2    -1     0     0   513     0  0.000000000E+00  0.000000000E+00 -9.336423195E+02  9.336423195E+02  0.000000000E+00  0.00000E+00  9.000E+00
      21     1     1     2   512   514  1.246163278E+01  5.720904771E-03  1.852332229E+01  2.232500376E+01  2.185142372E-06  0.00000E+00  9.000E+00
       2     1     1     2   511     0 -7.707728203E+00 -7.725639390E+00 -8.693937136E+02  8.694622664E+02  3.300000131E-01  0.00000E+00  9.000E+00
      21     1     1     2   514   511 -4.753904575E+00  7.719918485E+00 -6.198371772E+01  6.264325991E+01  6.743495762E-07  0.00000E+00  9.000E+00
</event>
<event>
      5  10001  2.40292E+09  4.63365E+00 -1.00000E+00  2.49181E-01
      21    -1     0     0   515   511  0.000000000E+00  0.000000000E+00  7.159935032E+01  7.159935032E+01  0.000000000E+00  0.00000E+00  9.000E+00
      21    -1     0     0   511   512  0.000000000E+00  0.000000000E+00 -2.943312145E+00  2.943312145E+00  0.000000000E+00  0.00000E+00  9.000E+00
      -2     1     1     2     0   512  1.360731783E+01  3.436234273E-01  3.481642294E+01  3.738407926E+01  3.300000131E-01  0.00000E+00  9.000E+00
      21     1     1     2   515   513 -1.027782494E+01 -3.116652263E+00  2.697126140E+01  2.903095155E+01  4.768371582E-07  0.00000E+00  9.000E+00
       2     1     1     2   513     0 -3.329492895E+00  2.773028836E+00  6.868353837E+00  8.127631654E+00  3.300000131E-01  0.00000E+00  9.000E+00
</event>
<event>
      5  10001  2.40292E+09  1.84104E+01 -1.00000E+00  1.69349E-01
      21    -1     0     0   514   512  0.000000000E+00  0.000000000E+00  3.219621973E+02  3.219621973E+02  0.000000000E+00  0.00000E+00  9.000E+00
      21    -1     0     0   511   514  0.000000000E+00  0.000000000E+00 -8.291317246E+00  8.291317246E+00  0.000000000E+00  0.00000E+00  9.000E+00
      21     1     1     2   516   513 -1.464099060E+00  2.441765269E+01  7.235441675E+01  7.637752924E+01  9.536743164E-07  0.00000E+00  9.000E+00
      21     1     1     2   511   516 -6.595364874E+00 -7.865089005E+00 -1.490478266E+00  1.037207734E+01  2.107342426E-07  0.00000E+00  9.000E+00
      21     1     1     2   513   512  8.059463934E+00 -1.655256368E+01  2.428069415E+02  2.435039079E+02  5.394796609E-06  0.00000E+00  9.000E+00
</event>
<event>
      5  10001  2.40292E+09  3.35623E+00 -1.00000E+00  2.82698E-01
      21    -1     0     0   511   512  0.000000000E+00  0.000000000E+00  2.686584465E+01  2.686584465E+01  0.000000000E+00  0.00000E+00  9.000E+00
      21    -1     0     0   512   514  0.000000000E+00  0.000000000E+00 -2.064171791E+02  2.064171791E+02  0.000000000E+00  0.00000E+00  9.000E+00
      21     1     1     2   511   515  3.800357188E+00  1.955153332E+01  2.236724418E+01  2.994993793E+01  1.143415337E-06  0.00000E+00  9.000E+00
       1     1     1     2   515     0 -4.773857523E+00 -1.633965765E+01 -1.062852020E+02  1.076402675E+02  3.300000131E-01  0.00000E+00  9.000E+00
      -1     1     1     2     0   514  9.735003353E-01 -3.211875668E+00 -9.563337672E+01  9.569281839E+01  3.300000131E-01  0.00000E+00  9.000E+00
</event>
<event>
      5  10001  2.40292E+09  4.86132E+00 -1.00000E+00  2.44896E-01
      21    -1     0     0   513   514  0.000000000E+00  0.000000000E+00  5.656339444E+00  5.656339444E+00  0.000000000E+00  0.00000E+00  9.000E+00
      21    -1     0     0   512   516  0.000000000E+00  0.000000000E+00 -5.529003542E+01  5.529003542E+01  0.000000000E+00  0.00000E+00  9.000E+00
      21     1     1     2   513   516  1.078961863E+01  1.250737388E+00 -1.057820392E+00  1.091325791E+01  1.273155770E-07  0.00000E+00  9.000E+00
      21     1     1     2   512   511 -7.420510428E+00 -1.636240948E+00 -2.274844406E+01  2.398401482E+01  0.000000000E+00  0.00000E+00  9.000E+00
      21     1     1     2   511   514 -3.369108206E+00  3.855035597E-01 -2.582743152E+01  2.604910213E+01  3.371747881E-07  0.00000E+00  9.000E+00
</event>
<event>
      5  10001  2.40292E+09  8.45581E+00 -1.00000E+00  2.04509E-01
      21    -1     0     0   515   512  0.000000000E+00  0.000000000E+00  6.513555697E+01  6.513555697E+01  0.000000000E+00  0.00000E+00  9.000E+00
      21    -1     0     0   514   515  0.000000000E+00  0.000000000E+00 -2.956360566E+00  2.956360566E+00  0.000000000E+00  0.00000E+00  9.000E+00
      21     1     1     2   514   517  8.435089170E+00  1.563049429E+00  6.881695527E+00  1.099779915E+01  8.429369702E-08  0.00000E+00  9.000E+00
      21     1     1     2   513   512 -3.021781991E+00 -1.610963932E+00  4.737553508E+01  4.749913363E+01  0.000000000E+00  0.00000E+00  9.000E+00
      21     1     1     2   517   513 -5.413307179E+00  4.791450344E-02  7.921965798E+00  9.594984759E+00  1.192092896E-07  0.00000E+00  9.000E+00
</event>
<event>
      5  10001  2.40292E+09  6.88436E+00 -1.00000E+00  2.16509E-01
      21    -1     0     0   511   513  0.000000000E+00  0.000000000E+00  1.513972855E+02  1.513972855E+02  0.000000000E+00  0.00000E+00  9.000E+00
      21    -1     0     0   514   512  0.000000000E+00  0.000000000E+00 -1.428939871E+02  1.428939871E+02  0.000000000E+00  0.00000E+00  9.000E+00
      21     1     1     2   511   516  2.338973003E+00  1.522268312E+01  1.457996979E+02  1.466108890E+02  1.907348633E-06  0.00000E+00  9.000E+00
      21     1     1     2   514   513 -8.878690203E-01 -8.492992878E+00  1.536917728E+00  8.676482901E+00  6.125809190E-07  0.00000E+00  9.000E+00
      21     1     1     2   516   512 -1.451103983E+00 -6.729690244E+00 -1.388333172E+02  1.390039007E+02  1.907348633E-06  0.00000E+00  9.000E+00
</event>
<event>
      5  10001  2.40292E+09  8.27746E+00 -1.00000E+00  2.05688E-01
      -3    -1     0     0     0   515  0.000000000E+00  0.000000000E+00  4.291378200E-01  4.291378200E-01  0.000000000E+00  0.00000E+00  9.000E+00
      21    -1     0     0   511   512  0.000000000E+00  0.000000000E+00 -3.612606121E+02  3.612606121E+02  0.000000000E+00  0.00000E+00  9.000E+00
      -3     1     1     2     0   513  4.861983995E+00 -1.000970478E+01 -1.278758818E+02  1.283601349E+02  5.000000000E-01  0.00000E+00  9.000E+00
      21     1     1     2   511   515 -9.246559464E-01  8.107611666E+00 -1.834097110E+02  1.835911503E+02  0.000000000E+00  0.00000E+00  9.000E+00
      21     1     1     2   513   512 -3.937328049E+00  1.902093109E+00 -4.954588141E+01  4.973846474E+01  6.743495762E-07  0.00000E+00  9.000E+00
</event>
<event>
      5  10001  2.40292E+09  8.94389E+00 -1.00000E+00  2.01471E-01
      21    -1     0     0   512   511  0.000000000E+00  0.000000000E+00  2.197333055E+02  2.197333055E+02  0.000000000E+00  0.00000E+00  9.000E+00
      21    -1     0     0   514   512  0.000000000E+00  0.000000000E+00 -1.364004250E+00  1.364004250E+00  0.000000000E+00  0.00000E+00  9.000E+00
      -3     1     1     2     0   511 -1.421948197E+01 -4.855889954E+00  1.317383083E+02  1.325933830E+02  5.000000000E-01  0.00000E+00  9.000E+00
       3     1     1     2   515     0  8.699052743E+00 -1.230642904E+00  2.948461733E+01  3.076980110E+01  5.000000000E-01  0.00000E+00  9.000E+00
      21     1     1     2   514   515  5.520429228E+00  6.086532858E+00  5.714637559E+01  5.773412565E+01  6.743495762E-07  0.00000E+00  9.000E+00
</event>
<event>
      5  10001  2.40292E+09  4.19065E+01 -1.00000E+00  1.43566E-01
      21    -1     0     0   513   514  0.000000000E+00  0.000000000E+00  3.576930367E+02  3.576930367E+02  0.000000000E+00  0.00000E+00  9.000E+00
      21    -1     0     0   511   516  0.000000000E+00  0.000000000E+00 -3.656402039E+00  3.656402039E+00  0.000000000E+00  0.00000E+00  9.000E+00
      21     1     1     2   513   516 -1.892338744E+01 -6.673452310E+00  3.393386769E+01  3.942254348E+01  1.066240300E-06  0.00000E+00  9.000E+00
      21     1     1     2   511   512  1.198470873E+01 -2.625034424E+00  4.690923020E+01  4.848711094E+01  0.000000000E+00  0.00000E+00  9.000E+00
      21     1     1     2   512   514  6.938678708E+00  9.298486734E+00  2.731935368E+02  2.734397843E+02  0.000000000E+00  0.00000E+00  9.000E+00
</event>
<event>
      5  10001  2.40292E+09  8.35318E+00 -1.00000E+00  2.05183E-01
      21    -1     0     0   515   511  0.000000000E+00  0.000000000E+00  9.581395111E+01  9.581395111E+01  0.000000000E+00  0.00000E+00  9.000E+00
      21    -1     0     0   517   514  0.000000000E+00  0.000000000E+00 -1.972481428E+00  1.972481428E+00  0.000000000E+00  0.00000E+00  9.000E+00
      21     1     1     2   515   514 -1.018110074E+01  5.788212256E+00  3.640282660E+01  3.824034516E+01  0.000000000E+00  0.00000E+00  9.000E+00
       2     1     1     2   517     0  5.141566648E+00 -6.790563706E+00  4.839092815E+01  4.913591650E+01  3.300000131E-01  0.00000E+00  9.000E+00
      -2     1     1     2     0   511  5.039534088E+00  1.002351450E+00  9.047714931E+00  1.041017088E+01  3.300000131E-01  0.00000E+00  9.000E+00
</event>
<event>
      5  10001  2.40292E+09  6.45693E+00 -1.00000E+00  2.20558E-01
       1    -1     0     0   513     0  0.000000000E+00  0.000000000E+00  1.198015462E+01  1.198015462E+01  0.000000000E+00  0.00000E+00  9.000E+00
       3    -1     0     0   512     0  0.000000000E+00  0.000000000E+00 -1.019785320E+01  1.019785320E+01  0.000000000E+00  0.00000E+00  9.000E+00
       1     1     1     2   514     0 -4.451662074E+00 -3.048467265E+00 -6.175101192E-01  5.440649469E+00  3.300000131E-01  0.00000E+00  9.000E+00
       3     1     1     2   513     0  3.688346418E+00  9.033178601E+00  3.901365718E+00  1.052011737E+01  5.000000000E-01  0.00000E+00  9.000E+00
      21     1     1     2   512   514  7.633156557E-01 -5.984711336E+00 -1.501554176E+00  6.217240988E+00  8.688795410E-08  0.00000E+00  9.000E+00
</event>
<event>
      5  10001  2.40292E+09  1.38608E+01 -1.00000E+00  1.80628E-01
       1    -1     0     0   512     0  0.000000000E+00  0.000000000E+00  4.081031178E+02  4.081031178E+02  0.000000000E+00  0.00000E+00  9.000E+00
      21    -1     0     0   511   513  0.000000000E+00  0.000000000E+00 -1.661434523E+01  1.661434523E+01  0.000000000E+00  0.00000E+00  9.000E+00
      21     1     1     2   512   513  2.003124054E+01 -2.453407474E+00 -9.631851501E+00  2.236162715E+01  1.180111758E-06  0.00000E+00  9.000E+00
       1     1     1     2   515     0 -5.663645171E+00  3.255875290E+00  3.129740705E+02  3.130424177E+02  3.300000131E-01  0.00000E+00  9.000E+00
      21     1     1     2   511   515 -1.436759536E+01 -8.024678167E-01  8.814655360E+01  8.931341816E+01  9.536743164E-07  0.00000E+00  9.000E+00
</event>
<event>
      5  10001  2.40292E+09  2.94847E+00 -1.00000E+00  2.99029E-01
      21    -1     0     0   514   513  0.000000000E+00  0.000000000E+00  7.896546171E+00  7.896546171E+00  0.000000000E+00  0.00000E+00  9.000E+00
      21    -1     0     0   511   514  0.000000000E+00  0.000000000E+00 -2.125122828E+02  2.125122828E+02  0.000000000E+00  0.00000E+00  9.000E+00
      21     1     1     2   511   516  4.646622180E+00 -1.240562428E+01 -2.057727247E+02  2.061987023E+02  0.000000000E+00  0.00000E+00  9.000E+00
      21     1     1     2   516   512 -3.719466540E+00  7.184590271E+00  2.951703352E+00  8.611929016E+00  9.029661064E-07  0.00000E+00  9.000E+00
      21     1     1     2   512   513 -9.271556402E-01  5.221034005E+00 -1.794715271E+00  5.598197617E+00  1.896608183E-07  0.00000E+00  9.000E+00
</event>
<event>
      5  10001  2.40292E+09  1.14915E+01 -1.00000E+00  1.88973E-01
      -3    -1     0     0     0   513  0.000000000E+00  0.000000000E+00  4.499677717E+01  4.499677717E+01  0.000000000E+00  0.00000E+00  9.000E+00
      21    -1     0     0   511   514  0.000000000E+00  0.000000000E+00 -3.236453649E+01  3.236453649E+01  0.000000000E+00  0.00000E+00  9.000E+00
      -3     1     1     2     0   514 -8.201978317E+00  3.783527393E+00  2.385045039E+01  2.550845961E+01  5.000000000E-01  0.00000E+00  9.000E+00
      21     1     1     2   512   513  1.162641159E+01 -1.475200386E+01  1.447102434E+01  2.371087535E+01  3.371747881E-07  0.00000E+00  9.000E+00
      21     1     1     2   511   512 -3.424433273E+00  1.096847647E+01 -2.568923405E+01  2.814197871E+01  4.768371582E-07  0.00000E+00  9.000E+00
</event>
<event>
      5  10001  2.40292E+09  5.33379E+00 -1.00000E+00  2.33630E-01
      21    -1     0     0   514   513  0.000000000E+00  0.000000000E+00  4.316723034E+01  4.316723034E+01  0.000000000E+00  0.00000E+00  9.000E+00
      21    -1     0     0   511   515  0.000000000E+00  0.000000000E+00 -6.534236283E+01  6.534236283E+01  0.000000000E+00  0.00000E+00  9.000E+00
      21     1     1     2   512   513  1.294230150E+01 -2.174818079E+00  1.096127733E+01  1.709919888E+01  7.633118912E-07  0.00000E+00  9.000E+00
      21     1     1     2   511   512 -8.230178818E+00 -3.242190232E-01 -6.175355702E+01  6.230042348E+01  6.743495762E-07  0.00000E+00  9.000E+00
      21     1     1     2   514   515 -4.712122682E+00  2.499037102E+00  2.861714720E+01  2.910997081E+01  6.743495762E-07  0.00000E+00  9.000E+00
</event>
<event>
      5  10001  2.40292E+09  4.69551E+00 -1.00000E+00  2.47980E-01
       1    -1     0     0   511     0  0.000000000E+00  0.000000000E+00  1.514399552E+01  1.514399552E+01  0.000000000E+00  0.00000E+00  9.000E+00
      21    -1     0     0   514   515  0.000000000E+00  0.000000000E+00 -1.956757591E+01  1.956757591E+01  0.000000000E+00  0.00000E+00  9.000E+00
      21     1     1     2   512   515  1.280193853E+01  4.654672706E+00  1.180419201E+00  1.367292937E+01  3.604110069E-07  0.00000E+00  9.000E+00
       1     1     1     2   514     0 -1.504036839E+01 -2.080970628E+00 -7.707672924E+00  1.703115504E+01  3.300000131E-01  0.00000E+00  9.000E+00
      21     1     1     2   511   512  2.238429868E+00 -2.573702078E+00  2.103673336E+00  4.007487014E+00  5.960464478E-08  0.00000E+00  9.000E+00
</event>
<event>
      5  10001  2.40292E+09  3.46694E+00 -1.00000E+00  2.78898E-01
      21    -1     0     0   514   512  0.000000000E+00  0.000000000E+00  5.547372333E+01  5.547372333E+01  0.000000000E+00  0.00000E+00  9.000E+00
       2    -1     0     0   512     0  0.000000000E+00  0.000000000E+00 -2.412680972E+02  2.412680972E+02  0.000000000E+00  0.00000E+00  9.000E+00
      21     1     1     2   515   513 -8.469817739E+00  1.632636847E+00  2.567663000E+01  2.708676141E+01  4.768371582E-07  0.00000E+00  9.000E+00
       2     1     1     2   513     0  1.942991813E+01 -6.384987342E+00 -2.388808967E+02  2.397550448E+02  3.300000131E-01  0.00000E+00  9.000E+00
      21     1     1     2   514   515 -1.096010039E+01  4.752350494E+00  2.740989280E+01  2.990001437E+01  7.539457465E-07  0.00000E+00  9.000E+00
</event>
<event>
      5  10001  2.40292E+09  7.13311E+00 -1.00000E+00  2.14333E-01
      -4    -1     0     0     0   513  0.000000000E+00  0.000000000E+00  3.306259692E+01  3.306259692E+01  0.000000000E+00  0.00000E+00  9.000E+00
      21    -1     0     0   512   515  0.000000000E+00  0.000000000E+00 -1.939507217E+01  1.939507217E+01  0.000000000E+00  0.00000E+00  9.000E+00
      21     1     1     2   511   515  1.095330211E+01  7.262486913E+00 -1.390687557E+01  1.913425544E+01  2.920019320E-07  0.00000E+00  9.000E+00
      21     1     1     2   512   513 -3.835363990E+00 -6.952616410E+00  4.498385009E+00  9.126026494E+00  2.064765462E-07  0.00000E+00  9.000E+00
      -4     1     1     2     0   511 -7.117938120E+00 -3.098705040E-01  2.307601531E+01  2.419738716E+01  1.500000000E+00  0.00000E+00  9.000E+00
</event>
<event>
      5  10001  2.40292E+09  3.10133E+00 -1.00000E+00  2.92423E-01
      21    -1     0     0   512   511  0.000000000E+00  0.000000000E+00  4.365979875E+00  4.365979875E+00  0.000000000E+00  0.00000E+00  9.000E+00
       1    -1     0     0   511     0  0.000000000E+00  0.000000000E+00 -1.363732022E+02  1.363732022E+02  0.000000000E+00  0.00000E+00  9.000E+00
      21     1     1     2   513   514 -1.194609493E+01  1.115531557E+01 -2.339952505E+01  2.854274027E+01  5.840038640E-07  0.00000E+00  9.000E+00
       1     1     1     2   514     0  1.378118759E+01 -1.642089508E+01 -9.669271618E+01  9.904118935E+01  3.300000131E-01  0.00000E+00  9.000E+00
      21     1     1     2   512   513 -1.835092665E+00  5.265579509E+00 -1.191498112E+01  1.315525248E+01  1.685873940E-07  0.00000E+00  9.000E+00
</event>
<event>
      5  10001  2.40292E+09  2.06936E+00 -1.00000E+00  3.56095E-01
       2    -1     0     0   514     0  0.000000000E+00  0.000000000E+00  1.287778189E+01  1.287778189E+01  0.000000000E+00  0.00000E+00  9.000E+00
      21    -1     0     0   512   511  0.000000000E+00  0.000000000E+00 -9.807243328E+01  9.807243328E+01  0.000000000E+00  0.00000E+00  9.000E+00
      21     1     1     2   514   515 -1.191971353E+01 -1.044484733E+01 -6.597134158E+01  6.784830371E+01  9.536743164E-07  0.00000E+00  9.000E+00
       2     1     1     2   512     0  1.117212277E+01  1.237439746E+01  6.054152038E+00  1.773988998E+01  3.300000131E-01  0.00000E+00  9.000E+00
      21     1     1     2   515   511  7.475907551E-01 -1.929550135E+00 -2.527746185E+01  2.536202147E+01  0.000000000E+00  0.00000E+00  9.000E+00
</event>
<event>
      5  10001  2.40292E+09  4.67436E+00 -1.00000E+00  2.48388E-01
      21    -1     0     0   513   512  0.000000000E+00  0.000000000E+00  2.344242384E+00  2.344242384E+00  0.000000000E+00  0.00000E+00  9.000E+00
      21    -1     0     0   516   513  0.000000000E+00  0.000000000E+00 -8.037829996E+01  8.037829996E+01  0.000000000E+00  0.00000E+00  9.000E+00
      21     1     1     2   511   512 -1.135132487E+01  2.166010611E+00 -2.178598985E+01  2.466117459E+01  4.768371582E-07  0.00000E+00  9.000E+00
      21     1     1     2   514   511  9.636915476E+00 -5.120490470E+00 -4.511312250E+01  4.641425842E+01  4.768371582E-07  0.00000E+00  9.000E+00
      21     1     1     2   516   514  1.714409395E+00  2.954479860E+00 -1.113494522E+01  1.164710934E+01  0.000000000E+00  0.00000E+00  9.000E+00
</event>
<event>
      5  10001  2.40292E+09  3.34995E+00 -1.00000E+00  2.82921E-01
       2    -1     0     0   511     0  0.000000000E+00  0.000000000E+00  7.569032918E+02  7.569032918E+02  0.000000000E+00  0.00000E+00  9.000E+00
      21    -1     0     0   515   513  0.000000000E+00  0.000000000E+00 -3.107806636E-01  3.107806636E-01  0.000000000E+00  0.00000E+00  9.000E+00
      21     1     1     2   514   513  6.772470061E+00  6.439845352E+00  1.136267575E+02  1.140104293E+02  4.264961200E-06  0.00000E+00  9.000E+00
       2     1     1     2   515     0 -9.168503336E+00 -8.780372833E+00  3.710206940E+02  3.712379570E+02  3.300000131E-01  0.00000E+00  9.000E+00
      21     1     1     2   511   514  2.396033274E+00  2.340527481E+00  2.719450596E+02  2.719656862E+02  3.814697266E-06  0.00000E+00  9.000E+00
</event>
<event>
      5  10001  2.40292E+09  4.48043E+01 -1.00000E+00  1.41820E-01
      21    -1     0     0   512   514  0.000000000E+00  0.000000000E+00  4.164352800E+01  4.164352800E+01  0.000000000E+00  0.00000E+00  9.000E+00
      21    -1     0     0   516   512  0.000000000E+00  0.000000000E+00 -9.430980122E+01  9.430980122E+01  0.000000000E+00  0.00000E+00  9.000E+00
      21     1     1     2   515   514 -4.217074458E+01 -9.933219817E+00  1.254245570E+01  4.510381081E+01  6.951036328E-07  0.00000E+00  9.000E+00
      21     1     1     2   516   513  3.079372709E+01  1.969216129E+01 -1.690154788E+01  4.027030128E+01  6.307962682E-07  0.00000E+00  9.000E+00
      21     1     1     2   513   515  1.137701749E+01 -9.758941470E+00 -4.830718104E+01  5.057921713E+01  6.743495762E-07  0.00000E+00  9.000E+00
</event>
<event>
      5  10001  2.40292E+09  2.42564E+01 -1.00000E+00  1.59701E-01
      21    -1     0     0   513   514  0.000000000E+00  0.000000000E+00  2.831626332E+00  2.831626332E+00  0.000000000E+00  0.00000E+00  9.000E+00
       2    -1     0     0   514     0  0.000000000E+00  0.000000000E+00 -3.305932908E+02  3.305932908E+02  0.000000000E+00  0.00000E+00  9.000E+00
      21     1     1     2   512   511 -2.924024675E+00 -2.093956249E+01 -7.045284560E+01  7.355690756E+01  1.651812370E-06  0.00000E+00  9.000E+00
       2     1     1     2   511     0 -7.593013333E+00  1.328934886E+01 -2.164199528E+02  2.169607465E+02  3.300000131E-01  0.00000E+00  9.000E+00
      21     1     1     2   513   512  1.051703801E+01  7.650213635E+00 -4.088886612E+01  4.290726313E+01  9.536743164E-07  0.00000E+00  9.000E+00
</event>
<event>
      5  10001  2.40292E+09  2.45928E+01 -1.00000E+00  1.59249E-01
      -1    -1     0     0     0   512  0.000000000E+00  0.000000000E+00  1.287699678E+02  1.287699678E+02  0.000000000E+00  0.00000E+00  9.000E+00
      21    -1     0     0   513   515  0.000000000E+00  0.000000000E+00 -7.583818884E+00  7.583818884E+00  0.000000000E+00  0.00000E+00  9.000E+00
      -1     1     1     2     0   515  1.137291333E+01  3.996395214E+00  1.166852816E+02  1.173067695E+02  3.300000131E-01  0.00000E+00  9.000E+00
      21     1     1     2   511   512 -6.803807344E+00 -3.328011017E+00  9.560368121E+00  1.219705253E+01  1.192092896E-07  0.00000E+00  9.000E+00
      21     1     1     2   513   511 -4.569105982E+00 -6.683841968E-01 -5.059500817E+00  6.849964630E+00  2.528810911E-07  0.00000E+00  9.000E+00
</event>
<event>
      5  10001  2.40292E+09  8.65221E+00 -1.00000E+00  2.03254E-01
      21    -1     0     0   514   511  0.000000000E+00  0.000000000E+00  1.541214402E+00  1.541214402E+00  0.000000000E+00  0.00000E+00  9.000E+00
      21    -1     0     0   513   516  0.000000000E+00  0.000000000E+00 -2.871182212E+02  2.871182212E+02  0.000000000E+00  0.00000E+00  9.000E+00
      21     1     1     2   514   516  1.072434315E+01  6.146832227E+00 -2.837105075E+01  3.094691589E+01  1.011524364E-06  0.00000E+00  9.000E+00
      21     1     1     2   512   511 -2.381608536E+00 -5.510214877E+00 -1.700370271E+02  1.701429550E+02  0.000000000E+00  0.00000E+00  9.000E+00
      21     1     1     2   513   512 -8.342734614E+00 -6.366173502E-01 -8.716892893E+01  8.756956477E+01  1.651812370E-06  0.00000E+00  9.000E+00
</event>
<event>
      5  10001  2.40292E+09  8.64885E+00 -1.00000E+00  2.03276E-01
      21    -1     0     0   515   511  0.000000000E+00  0.000000000E+00  7.340559110E+01  7.340559110E+01  0.000000000E+00  0.00000E+00  9.000E+00
      21    -1     0     0   513   514  0.000000000E+00  0.000000000E+00 -1.558795575E+01  1.558795575E+01  0.000000000E+00  0.00000E+00  9.000E+00
      21     1     1     2   512   511 -3.076285270E+00 -1.360457728E+01  6.812234245E+01  6.953561386E+01  1.907348633E-06  0.00000E+00  9.000E+00
      21     1     1     2   513   512  5.286905652E+00  5.243011845E+00 -6.936947040E+00  1.017653078E+01  4.986882368E-07  0.00000E+00  9.000E+00
      21     1     1     2   515   514 -2.210620381E+00  8.361565433E+00 -3.367760058E+00  9.281402198E+00  9.424321831E-08  0.00000E+00  9.000E+00
</event>
<event>
      5  10001  2.40292E+09  1.31217E+01 -1.00000E+00  1.82987E-01
      -1    -1     0     0     0   513  0.000000000E+00  0.000000000E+00  1.097071528E+02  1.097071528E+02  0.000000000E+00  0.00000E+00  9.000E+00
      21    -1     0     0   511   517  0.000000000E+00  0.000000000E+00 -2.195907013E+01  2.195907013E+01  0.000000000E+00  0.00000E+00  9.000E+00
      21     1     1     2   516   517  1.163617732E+01  2.891929398E+00  6.052260132E+00  1.343107334E+01  1.460009660E-07  0.00000E+00  9.000E+00
      21     1     1     2   511   513 -2.420872101E+01 -6.647828202E+00 -8.943505547E+00  2.665036743E+01  2.665600750E-07  0.00000E+00  9.000E+00
      -1     1     1     2     0   516  1.257254369E+01  3.755898805E+00  9.063932807E+01  9.158478216E+01  3.300000131E-01  0.00000E+00  9.000E+00
</event>
<event>
      5  10001  2.40292E+09  9.07781E+00 -1.00000E+00  2.00682E-01
      21    -1     0     0   512   511  0.000000000E+00  0.000000000E+00  9.936549786E+01  9.936549786E+01  0.000000000E+00  0.00000E+00  9.000E+00
      21    -1     0     0   513   514  0.000000000E+00  0.000000000E+00 -2.865787149E+01  2.865787149E+01  0.000000000E+00  0.00000E+00  9.000E+00
      21     1     1     2   512   514  2.771816760E+00  1.012193244E+01  6.348168775E+00  1.226522447E+01  4.214684851E-07  0.00000E+00  9.000E+00
      21     1     1     2   515   511 -4.547080052E+00 -1.902446714E+01  8.815020328E+01  9.029432222E+01  9.536743164E-07  0.00000E+00  9.000E+00
      21     1     1     2   513   515  1.775263292E+00  8.902534697E+00 -2.379074569E+01  2.546382266E+01  4.768371582E-07  0.00000E+00  9.000E+00
</event>
<event>
      5  10001  2.40292E+09  2.73489E+01 -1.00000E+00  1.55848E-01
       1    -1     0     0   513     0  0.000000000E+00  0.000000000E+00  9.731994172E+01  9.731994172E+01  0.000000000E+00  0.00000E+00  9.000E+00
      21    -1     0     0   511   515  0.000000000E+00  0.000000000E+00 -5.789851122E+02  5.789851122E+02  0.000000000E+00  0.00000E+00  9.000E+00
      21     1     1     2   513   515 -1.026202135E+01 -7.758727483E+00 -2.979590280E+01  3.245462614E+01  3.371747881E-07  0.00000E+00  9.000E+00
       1     1     1     2   516     0  3.155452147E+01 -9.404990775E+00  9.281351828E+01  9.848146908E+01  3.300000131E-01  0.00000E+00  9.000E+00
      21     1     1     2   511   516 -2.129250012E+01  1.716371826E+01 -5.446827860E+02  5.453689587E+02  0.000000000E+00  0.00000E+00  9.000E+00
</event>
<event>
      5  10001  2.40292E+09  2.38764E+01 -1.00000E+00  1.60223E-01
      21    -1     0     0   512   515  0.000000000E+00  0.000000000E+00  5.812277028E+00  5.812277028E+00  0.000000000E+00  0.00000E+00  9.000E+00
      21    -1     0     0   511   514  0.000000000E+00  0.000000000E+00 -1.041329256E+02  1.041329256E+02  0.000000000E+00  0.00000E+00  9.000E+00
      21     1     1     2   512   514 -7.842508595E+00 -6.487156209E+00 -9.276532347E+01  9.332198763E+01  1.907348633E-06  0.00000E+00  9.000E+00
      21     1     1     2   511   513  4.621985796E+00  2.273568718E+00 -8.950004405E+00  1.032639561E+01  1.192092896E-07  0.00000E+00  9.000E+00
      21     1     1     2   513   515  3.220522799E+00  4.213587492E+00  3.394679313E+00  6.296819379E+00  2.980232239E-07  0.00000E+00  9.000E+00
</event>
<event>
      5  10001  2.40292E+09  4.94859E+00 -1.00000E+00  2.43346E-01
      21    -1     0     0   512   511  0.000000000E+00  0.000000000E+00  3.009706291E+02  3.009706291E+02  0.000000000E+00  0.00000E+00  9.000E+00
      21    -1     0     0   517   515  0.000000000E+00  0.000000000E+00 -2.331471969E+01  2.331471969E+01  0.000000000E+00  0.00000E+00  9.000E+00
      21     1     1     2   516   515  3.561060726E+00 -7.458352171E+00 -2.087069259E+01  2.244758293E+01  2.384185791E-07  0.00000E+00  9.000E+00
      21     1     1     2   517   511 -2.349955527E+00  1.225645644E+01  2.220340770E+01  2.547026362E+01  0.000000000E+00  0.00000E+00  9.000E+00
      21     1     1     2   512   516 -1.211105200E+00 -4.798104267E+00  2.763231943E+02  2.763675022E+02  3.814697266E-06  0.00000E+00  9.000E+00
</event>
<event>
      5  10001  2.40292E+09  5.56413E+00 -1.00000E+00  2.30600E-01
      21    -1     0     0   513   515  0.000000000E+00  0.000000000E+00  3.158074499E+00  3.158074499E+00  0.000000000E+00  0.00000E+00  9.000E+00
      -2    -1     0     0     0   513  0.000000000E+00  0.000000000E+00 -8.685664825E+01  8.685664825E+01  0.000000000E+00  0.00000E+00  9.000E+00
      -2     1     1     2     0   511  8.909649940E+00 -2.251855085E+00 -4.660365254E+01  4.750223198E+01  3.300000131E-01  0.00000E+00  9.000E+00
      21     1     1     2   511   514 -1.020430613E+01  7.662441059E+00 -3.360210413E+01  3.594359844E+01  0.000000000E+00  0.00000E+00  9.000E+00
      21     1     1     2   514   515  1.294656194E+00 -5.410585975E+00 -3.492817080E+00  6.568892327E+00  1.192092896E-07  0.00000E+00  9.000E+00
</event>
<event>
      5  10001  2.40292E+09  1.09965E+01 -1.00000E+00  1.91051E-01
      21    -1     0     0   512   511  0.000000000E+00  0.000000000E+00  6.812654407E+00  6.812654407E+00  0.000000000E+00  0.00000E+00  9.000E+00
      21    -1     0     0   515   512  0.000000000E+00  0.000000000E+00 -3.033449817E+01  3.033449817E+01  0.000000000E+00  0.00000E+00  9.000E+00
      21     1     1     2   515   516 -4.906927029E+00 -7.639537750E+00 -1.353850089E+01  1.630127223E+01  0.000000000E+00  0.00000E+00  9.000E+00
      21     1     1     2   513   511  1.067663067E+01  5.793500562E+00 -5.645085057E+00  1.339485261E+01  2.665600750E-07  0.00000E+00  9.000E+00
      21     1     1     2   516   513 -5.769703643E+00  1.846037188E+00 -4.338257818E+00  7.451027736E+00  5.960464478E-08  0.00000E+00  9.000E+00
</event>
<event>
      5  10001  2.40292E+09  9.08929E+00 -1.00000E+00  2.00615E-01
      21    -1     0     0   515   511  0.000000000E+00  0.000000000E+00  8.771698117E+01  8.771698117E+01  0.000000000E+00  0.00000E+00  9.000E+00
      -2    -1     0     0     0   514  0.000000000E+00  0.000000000E+00 -3.778504912E+00  3.778504912E+00  0.000000000E+00  0.00000E+00  9.000E+00
      21     1     1     2   512   511  4.865178518E+00  3.018195444E+00  7.150904993E+01  7.173788182E+01  9.536743164E-07  0.00000E+00  9.000E+00
      21     1     1     2   515   514 -9.602082415E+00 -3.920179515E+00  7.134539821E+00  1.258846506E+01  4.298152060E-07  0.00000E+00  9.000E+00
      -2     1     1     2     0   512  4.736903897E+00  9.019840702E-01  5.294886507E+00  7.169139204E+00  3.300000131E-01  0.00000E+00  9.000E+00
</event>
<event>
      5  10001  2.40292E+09  9.52514E+00 -1.00000E+00  1.98172E-01
       2    -1     0     0   515     0  0.000000000E+00  0.000000000E+00  3.430146730E+02  3.430146730E+02  0.000000000E+00  0.00000E+00  9.000E+00
      21    -1     0     0   513   511  0.000000000E+00  0.000000000E+00 -6.741524257E+00  6.741524257E+00  0.000000000E+00  0.00000E+00  9.000E+00
      21     1     1     2   515   514 -1.241891398E+01  5.514667680E+00  2.649622421E+02  2.653104422E+02  5.394796609E-06  0.00000E+00  9.000E+00
       2     1     1     2   513     0  1.050922727E+01  3.816664588E+00  7.376634418E+01  7.460960541E+01  3.300000131E-01  0.00000E+00  9.000E+00
      21     1     1     2   514   511  1.909686716E+00 -9.331332268E+00 -2.455437607E+00  9.836149607E+00  6.899736466E-07  0.00000E+00  9.000E+00
</event>
<event>
      5  10001  2.40292E+09  7.16385E+00 -1.00000E+00  2.14073E-01
      21    -1     0     0   512   511  0.000000000E+00  0.000000000E+00  1.491101563E+01  1.491101563E+01  0.000000000E+00  0.00000E+00  9.000E+00
      21    -1     0     0   514   516  0.000000000E+00  0.000000000E+00 -3.845289683E+02  3.845289683E+02  0.000000000E+00  0.00000E+00  9.000E+00
      21     1     1     2   512   516  1.213926960E+01  5.053111110E+00 -3.724692118E+02  3.727012336E+02  5.394796609E-06  0.00000E+00  9.000E+00
      21     1     1     2   513   511 -1.108201742E+01  9.651069016E-01  1.159716581E+01  1.606974786E+01  1.338120956E-06  0.00000E+00  9.000E+00
      21     1     1     2   514   513 -1.057252176E+00 -6.018218012E+00 -8.745906735E+00  1.066900252E+01  1.685873940E-07  0.00000E+00  9.000E+00
</event>
<event>
      5  10001  2.40292E+09  9.88542E+00 -1.00000E+00  1.96279E-01
      21    -1     0     0   513   511  0.000000000E+00  0.000000000E+00  3.377081283E-01  3.377081283E-01  0.000000000E+00  0.00000E+00  9.000E+00
       2    -1     0     0   511     0  0.000000000E+00  0.000000000E+00 -4.824609983E+02  4.824609983E+02  0.000000000E+00  0.00000E+00  9.000E+00
      21     1     1     2   512   514  3.964403643E+00  1.474048539E+00 -9.404454684E+01  9.413960966E+01  0.000000000E+00  0.00000E+00  9.000E+00
       2     1     1     2   514     0 -9.666156984E+00 -1.634508281E+00 -3.516252663E+02  3.517620546E+02  3.300000131E-01  0.00000E+00  9.000E+00
      21     1     1     2   513   512  5.701753341E+00  1.604597420E-01 -3.645347695E+01  3.689704216E+01  1.066240300E-06  0.00000E+00  9.000E+00
</event>
<event>
      5  10001  2.40292E+09  1.01233E+01 -1.00000E+00  1.95086E-01
       2    -1     0     0   512     0  0.000000000E+00  0.000000000E+00  7.627789684E+01  7.627789684E+01  0.000000000E+00  0.00000E+00  9.000E+00
      21    -1     0     0   514   512  0.000000000E+00  0.000000000E+00 -1.821262080E+00  1.821262080E+00  0.000000000E+00  0.00000E+00  9.000E+00
      21     1     1     2   514   513 -2.346867632E+00  7.105853797E+00  1.863812215E+01  2.008433577E+01  4.129530925E-07  0.00000E+00  9.000E+00
      21     1     1     2   513   511  2.758909314E+00 -9.481621085E+00  2.206740651E+01  2.417608631E+01  0.000000000E+00  0.00000E+00  9.000E+00
       2     1     1     2   511     0 -4.120416823E-01  2.375767288E+00  3.375110609E+01  3.383873684E+01  3.300000131E-01  0.00000E+00  9.000E+00
</event>
<event>
      5  10001  2.40292E+09  3.23511E+00 -1.00000E+00  2.87136E-01
      -2    -1     0     0     0   513  0.000000000E+00  0.000000000E+00  2.889731440E+00  2.889731440E+00  0.000000000E+00  0.00000E+00  9.000E+00
      21    -1     0     0   514   516  0.000000000E+00  0.000000000E+00 -1.155366481E+02  1.155366481E+02  0.000000000E+00  0.00000E+00  9.000E+00
      21     1     1     2   515   516 -9.000440842E+00 -5.204451851E-01 -3.255208295E+01  3.377746146E+01  4.768371582E-07  0.00000E+00  9.000E+00
      21     1     1     2   514   513  1.125991588E+01 -1.794315864E+00 -8.056126312E+01  8.136413454E+01  1.907348633E-06  0.00000E+00  9.000E+00
      -2     1     1     2     0   515 -2.259475034E+00  2.314761049E+00  4.664294492E-01  3.284783491E+00  3.300000131E-01  0.00000E+00  9.000E+00
</event>
<event>
      5  10001  2.40292E+09  6.45803E+00 -1.00000E+00  2.20547E-01
      -2    -1     0     0     0   511  0.000000000E+00  0.000000000E+00  1.210582929E+01  1.210582929E+01  0.000000000E+00  0.00000E+00  9.000E+00
       3    -1     0     0   511     0  0.000000000E+00  0.000000000E+00 -3.989105845E+01  3.989105845E+01  0.000000000E+00  0.00000E+00  9.000E+00
      -2     1     1     2     0   512  6.402503502E+00 -8.204754336E+00  7.934910090E+00  1.309128500E+01  3.300000131E-01  0.00000E+00  9.000E+00
       3     1     1     2   513     0 -1.259228266E+00  5.908732894E+00 -3.090953414E+01  3.149838219E+01  5.000000000E-01  0.00000E+00  9.000E+00
      21     1     1     2   512   513 -5.143275236E+00  2.296021442E+00 -4.810605116E+00  7.407220545E+00  1.332800375E-07  0.00000E+00  9.000E+00
</event>
<event>
      5  10001  2.40292E+09  1.54011E+01 -1.00000E+00  1.76264E-01
      21    -1     0     0   514   512  0.000000000E+00  0.000000000E+00  2.744691501E+00  2.744691501E+00  0.000000000E+00  0.00000E+00  9.000E+00
      21    -1     0     0   511   515  0.000000000E+00  0.000000000E+00 -1.398426490E+02  1.398426490E+02  0.000000000E+00  0.00000E+00  9.000E+00
      21     1     1     2   514   515 -7.788147269E+00 -1.569941262E+01 -9.105219986E+01  9.272340532E+01  1.348699152E-06  0.00000E+00  9.000E+00
      21     1     1     2   511   516  3.743883020E+00  9.849978335E-01 -9.782100803E+00  1.052028407E+01  1.192092896E-07  0.00000E+00  9.000E+00
      21     1     1     2   516   512  4.044264249E+00  1.471441479E+01 -3.626365686E+01  3.934365114E+01  6.743495762E-07  0.00000E+00  9.000E+00
</event>
<event>
      5  10001  2.40292E+09  1.90879E+00 -1.00000E+00  3.72575E-01
      21    -1     0     0   513   514  0.000000000E+00  0.000000000E+00  1.931575582E+02  1.931575582E+02  0.000000000E+00  0.00000E+00  9.000E+00
      21    -1     0     0   517   512  0.000000000E+00  0.000000000E+00 -9.681068699E+00  9.681068699E+00  0.000000000E+00  0.00000E+00  9.000E+00
      21     1     1     2   513   512  1.269298133E+01 -8.220327903E+00 -2.956116224E+00  1.540857518E+01  6.782893346E-07  0.00000E+00  9.000E+00
      21     1     1     2   517   511 -1.236359312E+01  1.010048752E+01  1.316919979E+02  1.326561744E+02  3.303624740E-06  0.00000E+00  9.000E+00
      21     1     1     2   511   514 -3.293882133E-01 -1.880159618E+00  5.474060777E+01  5.477387731E+01  6.743495762E-07  0.00000E+00  9.000E+00
</event>
<event>
      5  10001  2.40292E+09  4.04450E+00 -1.00000E+00  2.62236E-01
      21    -1     0     0   515   512  0.000000000E+00  0.000000000E+00  8.476165985E+01  8.476165985E+01  0.000000000E+00  0.00000E+00  9.000E+00
      21    -1     0     0   514   515  0.000000000E+00  0.000000000E+00 -3.327942623E+00  3.327942623E+00  0.000000000E+00  0.00000E+00  9.000E+00
      21     1     1     2   516   511  7.475856847E+00 -8.630806584E+00  5.367070575E+01  5.487188637E+01  9.536743164E-07  0.00000E+00  9.000E+00
      21     1     1     2   514   516 -3.839770737E+00  1.040193155E+01  9.778009042E+00  1.478355438E+01  5.331201500E-07  0.00000E+00  9.000E+00
      21     1     1     2   511   512 -3.636086109E+00 -1.771124969E+00  1.798500243E+01  1.843416172E+01  0.000000000E+00  0.00000E+00  9.000E+00
</event>
<event>
      5  10001  2.40292E+09  4.98804E+00 -1.00000E+00  2.42661E-01
      21    -1     0     0   513   516  0.000000000E+00  0.000000000E+00  5.010323670E+02  5.010323670E+02  0.000000000E+00  0.00000E+00  9.000E+00
      21    -1     0     0   512   513  0.000000000E+00  0.000000000E+00 -6.098463585E+00  6.098463585E+00  0.000000000E+00  0.00000E+00  9.000E+00
      21     1     1     2   514   516  1.232994117E+01  8.678157408E+00  4.885781773E+02  4.888107745E+02  0.000000000E+00  0.00000E+00  9.000E+00
      21     1     1     2   512   515 -7.807336351E+00 -9.792579991E+00  4.576530042E+00  1.333393232E+01  6.194296387E-07  0.00000E+00  9.000E+00
      21     1     1     2   515   514 -4.522604820E+00  1.114422583E+00  1.779196040E+00  4.986123806E+00  1.591008641E-07  0.00000E+00  9.000E+00
</event>
<event>
      5  10001  2.40292E+09  5.58463E+00 -1.00000E+00  2.30340E-01
      21    -1     0     0   511   512  0.000000000E+00  0.000000000E+00  2.801682136E+00  2.801682136E+00  0.000000000E+00  0.00000E+00  9.000E+00
      21    -1     0     0   516   514  0.000000000E+00  0.000000000E+00 -1.175369193E+02  1.175369193E+02  0.000000000E+00  0.00000E+00  9.000E+00
      21     1     1     2   511   514 -9.121764928E+00 -4.262304080E+00 -1.050325699E+02  1.055140491E+02  1.907348633E-06  0.00000E+00  9.000E+00
      21     1     1     2   513   512  6.042959244E+00  1.557284101E+00 -8.516395944E+00  1.055800597E+01  1.192092896E-07  0.00000E+00  9.000E+00
      21     1     1     2   516   513  3.078805684E+00  2.705019979E+00 -1.186271295E+00  4.266546275E+00  5.771194914E-08  0.00000E+00  9.000E+00
</event>
<event>
      5  10001  2.40292E+09  1.26539E+01 -1.00000E+00  1.84586E-01
      21    -1     0     0   515   513  0.000000000E+00  0.000000000E+00  1.035121269E+02  1.035121269E+02  0.000000000E+00  0.00000E+00  9.000E+00
       4    -1     0     0   516     0  0.000000000E+00  0.000000000E+00 -1.391307967E+02  1.391307967E+02  0.000000000E+00  0.00000E+00  9.000E+00
      21     1     1     2   515   517 -9.961052951E+00  7.679044340E+00  7.982469479E+00  1.489664784E+01  4.298152060E-07  0.00000E+00  9.000E+00
      21     1     1     2   516   513  1.296616568E+01  4.612370724E+00  9.125631463E+01  9.228819196E+01  1.348699152E-06  0.00000E+00  9.000E+00
       4     1     1     2   517     0 -3.005112732E+00 -1.229141506E+01 -1.348574539E+02  1.354580838E+02  1.500000000E+00  0.00000E+00  9.000E+00
</event>
<event>
      5  10001  2.40292E+09  8.15866E+00 -1.00000E+00  2.06496E-01
      21    -1     0     0   511   516  0.000000000E+00  0.000000000E+00  4.464984628E+01  4.464984628E+01  0.000000000E+00  0.00000E+00  9.000E+00
      21    -1     0     0   514   512  0.000000000E+00  0.000000000E+00 -4.015514554E+01  4.015514554E+01  0.000000000E+00  0.00000E+00  9.000E+00
      21     1     1     2   511   512 -9.689672394E+00  2.049397883E+00 -3.674002636E+01  3.805153505E+01  8.259061849E-07  0.00000E+00  9.000E+00
      21     1     1     2   513   516  3.862528018E+00  7.775374694E-01  3.995846539E+01  4.015224332E+01  1.066240300E-06  0.00000E+00  9.000E+00
      21     1     1     2   514   513  5.827144376E+00 -2.826935352E+00  1.276261716E+00  6.601213451E+00  9.064022497E-08  0.00000E+00  9.000E+00
</event>
<event>
      5  10001  2.40292E+09  8.83804E+00 -1.00000E+00  2.02107E-01
       2    -1     0     0   515     0  0.000000000E+00  0.000000000E+00  3.381758019E+02  3.381758019E+02  0.000000000E+00  0.00000E+00  9.000E+00
      21    -1     0     0   514   517  0.000000000E+00  0.000000000E+00 -2.674890822E+00  2.674890822E+00  0.000000000E+00  0.00000E+00  9.000E+00
      21     1     1     2   515   517 -1.268081565E+01  2.895712744E+00  1.987590461E+01  2.375373280E+01  4.768371582E-07  0.00000E+00  9.000E+00
      21     1     1     2   514   512  6.946566203E+00 -9.620558942E+00  5.254051478E+01  5.386386200E+01  1.168007728E-06  0.00000E+00  9.000E+00
       2     1     1     2   512     0  5.734249449E+00  6.724846197E+00  2.630844917E+02  2.632330979E+02  3.300000131E-01  0.00000E+00  9.000E+00
</event>
<event>
      5  10001  2.40292E+09  1.11096E+01 -1.00000E+00  1.90563E-01
      21    -1     0     0   511   514  0.000000000E+00  0.000000000E+00  6.440394011E-01  6.440394011E-01  0.000000000E+00  0.00000E+00  9.000E+00
      21    -1     0     0   516   513  0.000000000E+00  0.000000000E+00 -1.845182024E+02  1.845182024E+02  0.000000000E+00  0.00000E+00  9.000E+00
      21     1     1     2   511   513  6.927532079E+00  5.863701233E+00 -5.615638117E+01  5.688508450E+01  1.168007728E-06  0.00000E+00  9.000E+00
      21     1     1     2   516   515 -3.691732566E+00  1.451285936E+00 -4.154798637E+01  4.173691761E+01  6.743495762E-07  0.00000E+00  9.000E+00
      21     1     1     2   515   514 -3.235799513E+00 -7.314987169E+00 -8.616979551E+01  8.654023974E+01  0.000000000E+00  0.00000E+00  9.000E+00
</event>
<event>
      5  10001  2.40292E+09  2.29299E+00 -1.00000E+00  3.37277E-01
      21    -1     0     0   515   511  0.000000000E+00  0.000000000E+00  1.403556879E+01  1.403556879E+01  0.000000000E+00  0.00000E+00  9.000E+00
      -1    -1     0     0     0   512  0.000000000E+00  0.000000000E+00 -1.547128898E+01  1.547128898E+01  0.000000000E+00  0.00000E+00  9.000E+00
      -1     1     1     2     0   514  8.127332809E+00 -7.678374415E+00 -8.249866957E+00  1.389892719E+01  3.300000131E-01  0.00000E+00  9.000E+00
      21     1     1     2   515   512 -6.796203319E+00  9.545043566E+00  6.078220841E+00  1.320003806E+01  2.230201594E-07  0.00000E+00  9.000E+00
      21     1     1     2   514   511 -1.331129490E+00 -1.866669151E+00  7.359259217E-01  2.407892523E+00  2.980232239E-08  0.00000E+00  9.000E+00
</event>
<event>
      5  10001  2.40292E+09  4.01284E+00 -1.00000E+00  2.63035E-01
       2    -1     0     0   514     0  0.000000000E+00  0.000000000E+00  7.756428847E+00  7.756428847E+00  0.000000000E+00  0.00000E+00  9.000E+00
      21    -1     0     0   515   512  0.000000000E+00  0.000000000E+00 -5.926548896E+01  5.926548896E+01  0.000000000E+00  0.00000E+00  9.000E+00
      21     1     1     2   514   512 -1.019445238E+01 -8.191807368E+00 -1.099867045E+01  1.708810460E+01  1.192092896E-07  0.00000E+00  9.000E+00
       2     1     1     2   513     0  9.333658972E+00  1.211092954E+01 -8.158107602E+00  1.733365004E+01  3.300000131E-01  0.00000E+00  9.000E+00
      21     1     1     2   515   513  8.607934038E-01 -3.919122169E+00 -3.235228206E+01  3.260016316E+01  0.000000000E+00  0.00000E+00  9.000E+00
</event>
<event>
      5  10001  2.40292E+09  1.87534E+00 -1.00000E+00  3.76405E-01
       1    -1     0     0   511     0  0.000000000E+00  0.000000000E+00  4.369530515E+02  4.369530515E+02  0.000000000E+00  0.00000E+00  9.000E+00
      -2    -1     0     0     0   512  0.000000000E+00  0.000000000E+00 -1.104871715E+00  1.104871715E+00  0.000000000E+00  0.00000E+00  9.000E+00
      -2     1     1     2     0   514 -6.033079846E-01 -1.252170459E+01  4.507582714E+01  4.678777787E+01  3.300000131E-01  0.00000E+00  9.000E+00
       1     1     1     2   514     0  2.364034966E+00  1.187681658E+01  3.852060819E+02  3.853965255E+02  3.300000131E-01  0.00000E+00  9.000E+00
      21     1     1     2   511   512 -1.760726981E+00  6.448880070E-01  5.566270828E+00  5.873619921E+00  1.788139343E-07  0.00000E+00  9.000E+00
</event>
<event>
      5  10001  2.40292E+09  8.85645E+00 -1.00000E+00  2.01996E-01
       2    -1     0     0   514     0  0.000000000E+00  0.000000000E+00  8.284756809E+02  8.284756809E+02  0.000000000E+00  0.00000E+00  9.000E+00
      21    -1     0     0   513   512  0.000000000E+00  0.000000000E+00 -1.790671649E+02  1.790671649E+02  0.000000000E+00  0.00000E+00  9.000E+00
      21     1     1     2   513   511  2.687794363E+00 -1.556419446E+01 -1.786045682E+02  1.793015900E+02  8.529922400E-06  0.00000E+00  9.000E+00
       2     1     1     2   511     0 -6.902777900E+00  7.775064244E+00  5.028417654E+02  5.029493512E+02  3.300000131E-01  0.00000E+00  9.000E+00
      21     1     1     2   514   512  4.214983537E+00  7.789130214E+00  3.251713188E+02  3.252919046E+02  5.394796609E-06  0.00000E+00  9.000E+00
</event>
<event>
      5  10001  2.40292E+09  4.46332E+00 -1.00000E+00  2.52638E-01
      21    -1     0     0   515   511  0.000000000E+00  0.000000000E+00  4.953709640E+00  4.953709640E+00  0.000000000E+00  0.00000E+00  9.000E+00
      21    -1     0     0   513   516  0.000000000E+00  0.000000000E+00 -6.450302236E+01  6.450302236E+01  0.000000000E+00  0.00000E+00  9.000E+00
      21     1     1     2   515   516  8.720324522E+00  7.010349546E+00 -3.155171165E+00  1.162515228E+01  2.795705652E-07  0.00000E+00  9.000E+00
      21     1     1     2   517   511 -6.096677320E+00 -2.162511116E+00 -4.039012703E+01  4.090486879E+01  4.768371582E-07  0.00000E+00  9.000E+00
      21     1     1     2   513   517 -2.623647201E+00 -4.847838430E+00 -1.600401452E+01  1.692671093E+01  0.000000000E+00  0.00000E+00  9.000E+00
</event>
<event>
      5  10001  2.40292E+09  1.04612E+01 -1.00000E+00  1.93463E-01
      21    -1     0     0   512   516  0.000000000E+00  0.000000000E+00  5.097280197E+00  5.097280197E+00  0.000000000E+00  0.00000E+00  9.000E+00
      21    -1     0     0   513   511  0.000000000E+00  0.000000000E+00 -1.117221704E+02  1.117221704E+02  0.000000000E+00  0.00000E+00  9.000E+00
      21     1     1     2   513   514 -7.769749973E-01 -7.114238042E+00 -8.461465385E+00  1.108207875E+01  2.920019320E-07  0.00000E+00  9.000E+00
      21     1     1     2   514   516 -1.210023519E+00  1.738499472E+01 -1.859736320E+01  2.548654775E+01  3.371747881E-07  0.00000E+00  9.000E+00
      21     1     1     2   512   511  1.986998516E+00 -1.027075668E+01 -7.956606159E+01  8.025082407E+01  1.348699152E-06  0.00000E+00  9.000E+00
</event>
<event>
      5  10001  2.40292E+09  3.50873E+00 -1.00000E+00  2.77522E-01
      21    -1     0     0   515   513  0.000000000E+00  0.000000000E+00  1.239209298E+01  1.239209298E+01  0.000000000E+00  0.00000E+00  9.000E+00
      21    -1     0     0   517   515  0.000000000E+00  0.000000000E+00 -1.705566070E+01  1.705566070E+01  0.000000000E+00  0.00000E+00  9.000E+00
      21     1     1     2   511   513 -3.683077988E+00 -1.076205820E+01  5.979861036E+00  1.285090262E+01  2.920019320E-07  0.00000E+00  9.000E+00
      -4     1     1     2     0   511  2.640673262E+00  5.856480180E+00 -8.902261984E+00  1.108024295E+01  1.500000000E+00  0.00000E+00  9.000E+00
       4     1     1     2   517     0  1.042404726E+00  4.905578023E+00 -1.741166772E+00  5.516608114E+00  1.500000000E+00  0.00000E+00  9.000E+00
</event>
<event>
      5  10001  2.40292E+09  5.74000E+00 -1.00000E+00  2.28421E-01
      21    -1     0     0   511   514  0.000000000E+00  0.000000000E+00  2.540320105E+00  2.540320105E+00  0.000000000E+00  0.00000E+00  9.000E+00
      -4    -1     0     0     0   512  0.000000000E+00  0.000000000E+00 -7.163979593E+01  7.163979593E+01  0.000000000E+00  0.00000E+00  9.000E+00
      -4     1     1     2     0   514 -1.248054548E+01  6.467674915E-01 -4.287393054E+01  4.468340009E+01  1.500000000E+00  0.00000E+00  9.000E+00
      21     1     1     2   511   513  5.831421369E+00  1.994220138E+00 -1.458038699E+01  1.582940536E+01  3.371747881E-07  0.00000E+00  9.000E+00
      21     1     1     2   513   512  6.649124106E+00 -2.640987629E+00 -1.164515829E+01  1.366731059E+01  3.769728732E-07  0.00000E+00  9.000E+00
</event>
<event>
      5  10001  2.40292E+09  6.04659E+00 -1.00000E+00  2.24873E-01
       2    -1     0     0   512     0  0.000000000E+00  0.000000000E+00  7.256149607E+02  7.256149607E+02  0.000000000E+00  0.00000E+00  9.000E+00
      21    -1     0     0   511   512  0.000000000E+00  0.000000000E+00 -9.977683132E-01  9.977683132E-01  0.000000000E+00  0.00000E+00  9.000E+00
      21     1     1     2   511   514 -2.440337952E-01  6.731317854E+00  1.177116787E+01  1.356210108E+01  9.386548846E-07  0.00000E+00  9.000E+00
       2     1     1     2   513     0 -2.810902232E+00 -9.575097442E+00  6.444700724E+02  6.445474124E+02  3.300000131E-01  0.00000E+00  9.000E+00
      21     1     1     2   514   513  3.054936027E+00  2.843779588E+00  6.837595208E+01  6.850321554E+01  1.348699152E-06  0.00000E+00  9.000E+00
</event>
<event>
      5  10001  2.40292E+09  4.29235E+00 -1.00000E+00  2.56352E-01
      21    -1     0     0   515   513  0.000000000E+00  0.000000000E+00  5.918328583E+01  5.918328583E+01  0.000000000E+00  0.00000E+00  9.000E+00
      21    -1     0     0   516   515  0.000000000E+00  0.000000000E+00 -4.462003208E+01  4.462003208E+01  0.000000000E+00  0.00000E+00  9.000E+00
      21     1     1     2   516   511 -7.363369592E+00 -1.063664918E+01 -4.242969859E+01  4.435805271E+01  8.259061849E-07  0.00000E+00  9.000E+00
      -4     1     1     2     0   513  3.946418311E+00  6.656148133E+00  4.978498537E+01  5.040509194E+01  1.500000000E+00  0.00000E+00  9.000E+00
       4     1     1     2   511     0  3.416951280E+00  3.980501048E+00  7.207966970E+00  9.040173255E+00  1.500000000E+00  0.00000E+00  9.000E+00
</event>
<event>
      5  10001  2.40292E+09  1.02198E+01 -1.00000E+00  1.94614E-01
      -4    -1     0     0     0   512  0.000000000E+00  0.000000000E+00  1.616696296E+02  1.616696296E+02  0.000000000E+00  0.00000E+00  9.000E+00
      21    -1     0     0   512   514  0.000000000E+00  0.000000000E+00 -4.288706261E+00  4.288706261E+00  0.000000000E+00  0.00000E+00  9.000E+00
      -4     1     1     2     0   515 -1.949999623E+01 -5.557652300E+00  9.202290570E+01  9.424225446E+01  1.500000000E+00  0.00000E+00  9.000E+00
      21     1     1     2   513   514  2.292844723E+01  3.855636712E+00  6.315696036E+01  6.730067807E+01  1.168007728E-06  0.00000E+00  9.000E+00
      21     1     1     2   515   513 -3.428451002E+00  1.702015588E+00  2.201057258E+00  4.415403310E+00  1.931411236E-07  0.00000E+00  9.000E+00
</event>
<event>
      5  10001  2.40292E+09  9.26720E+00 -1.00000E+00  1.99596E-01
      21    -1     0     0   511   514  0.000000000E+00  0.000000000E+00  1.123341890E+02  1.123341890E+02  0.000000000E+00  0.00000E+00  9.000E+00
      21    -1     0     0   516   511  0.000000000E+00  0.000000000E+00 -1.162622749E+01  1.162622749E+01  0.000000000E+00  0.00000E+00  9.000E+00
      21     1     1     2   513   514 -4.287150971E+00 -1.087922049E+01  1.014607298E+02  1.021323494E+02  1.348699152E-06  0.00000E+00  9.000E+00
      21     1     1     2   512   513 -4.971575583E+00  1.127531308E+01  1.120102424E+00  1.237351519E+01  4.180300277E-07  0.00000E+00  9.000E+00
      21     1     1     2   516   512  9.258726555E+00 -3.960925892E-01 -1.872870722E+00  9.454551893E+00  2.493441184E-07  0.00000E+00  9.000E+00
</event>
<event>
      5  10001  2.40292E+09  5.50841E+00 -1.00000E+00  2.31314E-01
      -4    -1     0     0     0   515  0.000000000E+00  0.000000000E+00  1.376730953E+00  1.376730953E+00  0.000000000E+00  0.00000E+00  9.000E+00
      21    -1     0     0   513   514  0.000000000E+00  0.000000000E+00 -8.679236281E+02  8.679236281E+02  0.000000000E+00  0.00000E+00  9.000E+00
      -4     1     1     2     0   511 -1.241337325E+01  3.549190104E+00 -3.635753077E+01  3.861099105E+01  1.500000000E+00  0.00000E+00  9.000E+00
      21     1     1     2   513   515  1.751389298E+01 -1.476974549E+00 -3.285463693E+02  3.290161617E+02  3.814697266E-06  0.00000E+00  9.000E+00
      21     1     1     2   511   514 -5.100519729E+00 -2.072215555E+00 -5.016429970E+02  5.016732062E+02  7.629394531E-06  0.00000E+00  9.000E+00
</event>
<event>
      5  10001  2.40292E+09  1.08635E+01 -1.00000E+00  1.91633E-01
      21    -1     0     0   511   513  0.000000000E+00  0.000000000E+00  3.426049422E+01  3.426049422E+01  0.000000000E+00  0.00000E+00  9.000E+00
       2    -1     0     0   513     0  0.000000000E+00  0.000000000E+00 -8.242810355E+02  8.242810355E+02  0.000000000E+00  0.00000E+00  9.000E+00
      21     1     1     2   511   512 -1.244350321E+01  2.996766655E+00  3.263005040E+01  3.505055737E+01  2.567846683E-06  0.00000E+00  9.000E+00
       2     1     1     2   515     0  1.810978301E+01 -9.558807349E+00 -7.561869492E+02  7.564642398E+02  3.300000131E-01  0.00000E+00  9.000E+00
      21     1     1     2   512   515 -5.666279795E+00  6.562040694E+00 -6.646364250E+01  6.702673257E+01  1.348699152E-06  0.00000E+00  9.000E+00
</event>
<event>
      5  10001  2.40292E+09  5.41628E+00 -1.00000E+00  2.32521E-01
      -1    -1     0     0     0   514  0.000000000E+00  0.000000000E+00  6.551389390E+01  6.551389390E+01  0.000000000E+00  0.00000E+00  9.000E+00
       3    -1     0     0   513     0  0.000000000E+00  0.000000000E+00 -1.694250832E+01  1.694250832E+01  0.000000000E+00  0.00000E+00  9.000E+00
      -1     1     1     2     0   511 -1.066103077E+01  7.831686685E+00 -6.608022890E+00  1.479079984E+01  3.300000131E-01  0.00000E+00  9.000E+00
       3     1     1     2   511     0  7.003222976E+00 -3.838408954E+00 -3.502208718E+00  8.734642594E+00  5.000000000E-01  0.00000E+00  9.000E+00
      21     1     1     2   513   514  3.657807797E+00 -3.993277731E+00  5.868161719E+01  5.893095978E+01  6.743495762E-07  0.00000E+00  9.000E+00
</event>
<event>
      5  10001  2.40292E+09  1.54088E+01 -1.00000E+00  1.76244E-01
       2    -1     0     0   515     0  0.000000000E+00  0.000000000E+00  4.393186195E+02  4.393186195E+02  0.000000000E+00  0.00000E+00  9.000E+00
      21    -1     0     0   511   515  0.000000000E+00  0.000000000E+00 -3.511970018E+01  3.511970018E+01  0.000000000E+00  0.00000E+00  9.000E+00
      21     1     1     2   511   516  2.969799183E+00 -3.785391536E+00 -7.771639536E+00  9.140419976E+00  3.674277069E-07  0.00000E+00  9.000E+00
       2     1     1     2   512     0 -2.527717398E+01  7.523956724E+00  4.333633094E+02  4.341651901E+02  3.300000131E-01  0.00000E+00  9.000E+00
      21     1     1     2   516   512  2.230737480E+01 -3.738565188E+00 -2.139275047E+01  3.113270969E+01  4.129530925E-07  0.00000E+00  9.000E+00
</event>
<event>
      5  10001  2.40292E+09  6.64552E+00 -1.00000E+00  2.18720E-01
      21    -1     0     0   513   512  0.000000000E+00  0.000000000E+00  2.464069056E+01  2.464069056E+01  0.000000000E+00  0.00000E+00  9.000E+00
      21    -1     0     0   511   514  0.000000000E+00  0.000000000E+00 -5.557675015E+00  5.557675015E+00  0.000000000E+00  0.00000E+00  9.000E+00
      21     1     1     2   513   514 -8.888059191E+00  1.882975876E+00  1.849806034E+00  9.271729973E+00  8.940696716E-08  0.00000E+00  9.000E+00
      21     1     1     2   511   515  4.012404289E+00  6.393341955E-01  1.395138913E+01  1.453098053E+01  1.685873940E-07  0.00000E+00  9.000E+00
      21     1     1     2   515   512  4.875654902E+00 -2.522310071E+00  3.281820379E+00  6.395655073E+00  0.000000000E+00  0.00000E+00  9.000E+00
</event>
<event>
      5  10001  2.40292E+09  8.55331E+00 -1.00000E+00  2.03881E-01
      21    -1     0     0   516   511  0.000000000E+00  0.000000000E+00  1.647715899E+02  1.647715899E+02  0.000000000E+00  0.00000E+00  9.000E+00
      21    -1     0     0   517   512  0.000000000E+00  0.000000000E+00 -6.335462395E+00  6.335462395E+00  0.000000000E+00  0.00000E+00  9.000E+00
      21     1     1     2   516   512 -8.489370018E+00  4.662882162E+00 -1.926802540E+00  9.875446389E+00  3.948104769E-07  0.00000E+00  9.000E+00
      21     1     1     2   513   511  1.137374203E+01 -6.392380435E+00  1.133186763E+02  1.140672912E+02  1.348699152E-06  0.00000E+00  9.000E+00
      21     1     1     2   517   513 -2.884372015E+00  1.729498273E+00  4.704425379E+01  4.716431470E+01  0.000000000E+00  0.00000E+00  9.000E+00
</event>
<event>
      5  10001  2.40292E+09  4.46026E+00 -1.00000E+00  2.52702E-01
      21    -1     0     0   514   512  0.000000000E+00  0.000000000E+00  1.669665268E+01  1.669665268E+01  0.000000000E+00  0.00000E+00  9.000E+00
      21    -1     0     0   517   515  0.000000000E+00  0.000000000E+00 -1.577924740E+02  1.577924740E+02  0.000000000E+00  0.00000E+00  9.000E+00
      21     1     1     2   514   515 -1.026206721E+01  3.602731123E+00 -1.554001489E+02  1.557802811E+02  0.000000000E+00  0.00000E+00  9.000E+00
      21     1     1     2   517   511  3.535698844E+00 -1.307701275E+00  9.247326819E+00  9.986205598E+00  4.129530925E-07  0.00000E+00  9.000E+00
      21     1     1     2   511   512  6.726368361E+00 -2.295029848E+00  5.057000706E+00  8.722640052E+00  3.862822472E-07  0.00000E+00  9.000E+00
</event>
<event>
      5  10001  2.40292E+09  1.20084E+01 -1.00000E+00  1.86943E-01
      21    -1     0     0   513   511  0.000000000E+00  0.000000000E+00  7.146060058E+01  7.146060058E+01  0.000000000E+00  0.00000E+00  9.000E+00
      21    -1     0     0   512   513  0.000000000E+00  0.000000000E+00 -1.445794999E+01  1.445794999E+01  0.000000000E+00  0.00000E+00  9.000E+00
      21     1     1     2   516   511  2.405019881E+00  9.479168533E+00  6.584648712E+01  6.656875109E+01  0.000000000E+00  0.00000E+00  9.000E+00
      21     1     1     2   514   516  4.255818901E+00 -2.035797002E+00 -8.049034703E+00  9.329706512E+00  1.685873940E-07  0.00000E+00  9.000E+00
      21     1     1     2   512   514 -6.660838783E+00 -7.443371531E+00 -7.948018244E-01  1.002009296E+01  1.985268681E-07  0.00000E+00  9.000E+00
</event>
<event>
      5  10001  2.40292E+09  1.03603E+01 -1.00000E+00  1.93940E-01
      -1    -1     0     0     0   514  0.000000000E+00  0.000000000E+00  9.050101739E-01  9.050101739E-01  0.000000000E+00  0.00000E+00  9.000E+00
      -1    -1     0     0     0   513  0.000000000E+00  0.000000000E+00 -4.522774825E+02  4.522774825E+02  0.000000000E+00  0.00000E+00  9.000E+00
      -1     1     1     2     0   513  1.274761988E+01 -5.094902357E+00 -6.722566885E+01  6.861384186E+01  3.300000131E-01  0.00000E+00  9.000E+00
      21     1     1     2   511   514 -5.778713901E+00  8.461809686E+00 -2.111056744E+02  2.113542087E+02  2.697398305E-06  0.00000E+00  9.000E+00
      -1     1     1     2     0   511 -6.968905981E+00 -3.366907329E+00 -1.730411291E+02  1.732144421E+02  3.300000131E-01  0.00000E+00  9.000E+00
</event>
<event>
      5  10001  2.40292E+09  8.12264E+00 -1.00000E+00  2.06745E-01
      21    -1     0     0   512   511  0.000000000E+00  0.000000000E+00  2.762864614E+02  2.762864614E+02  0.000000000E+00  0.00000E+00  9.000E+00
      21    -1     0     0   516   515  0.000000000E+00  0.000000000E+00 -1.357719816E+01  1.357719816E+01  0.000000000E+00  0.00000E+00  9.000E+00
      21     1     1     2   512   515 -1.537410370E+01 -9.308023695E+00 -7.093250395E+00  1.932140188E+01  6.194296387E-07  0.00000E+00  9.000E+00
       2     1     1     2   516     0  4.146270547E+00  4.212120582E+00  1.476387777E+02  1.477574062E+02  3.300000131E-01  0.00000E+00  9.000E+00
      -2     1     1     2     0   511  1.122783315E+01  5.095903114E+00  1.221637359E+02  1.227848514E+02  3.300000131E-01  0.00000E+00  9.000E+00
</event>
<event>
      5  10001  2.40292E+09  1.85838E+01 -1.00000E+00  1.69001E-01
      21    -1     0     0   513   511  0.000000000E+00  0.000000000E+00  9.632201066E+00  9.632201066E+00  0.000000000E+00  0.00000E+00  9.000E+00
       3    -1     0     0   514     0  0.000000000E+00  0.000000000E+00 -2.959531404E+02  2.959531404E+02  0.000000000E+00  0.00000E+00  9.000E+00
      21     1     1     2   514   511  8.819541629E+00 -6.012948215E+00  4.490246923E+00  1.158024949E+01  4.951133646E-07  0.00000E+00  9.000E+00
       3     1     1     2   512     0 -6.247406895E+00 -6.606968089E-01 -2.841861338E+02  2.842560031E+02  5.000000000E-01  0.00000E+00  9.000E+00
      21     1     1     2   513   512 -2.572134734E+00  6.673645024E+00 -6.625052406E+00  9.749088900E+00  8.429369702E-08  0.00000E+00  9.000E+00
</event>
<event>
      5  10001  2.40292E+09  4.15847E+00 -1.00000E+00  2.59452E-01
      21    -1     0     0   515   514  0.000000000E+00  0.000000000E+00  1.643116149E+01  1.643116149E+01  0.000000000E+00  0.00000E+00  9.000E+00
       2    -1     0     0   516     0  0.000000000E+00  0.000000000E+00 -2.164402771E+02  2.164402771E+02  0.000000000E+00  0.00000E+00  9.000E+00
      21     1     1     2   512   514 -1.088059628E-01  1.081569640E+01  6.128320817E+00  1.243171120E+01  2.920019320E-07  0.00000E+00  9.000E+00
      21     1     1     2   516   512 -1.682682111E+00 -1.456844684E+01 -4.110584567E-01  1.467106102E+01  2.321068122E-07  0.00000E+00  9.000E+00
       2     1     1     2   515     0  1.791488073E+00  3.752750441E+00 -2.057263779E+02  2.057686663E+02  3.300000131E-01  0.00000E+00  9.000E+00
</event>
<event>
      5  10001  2.40292E+09  6.51414E+00 -1.00000E+00  2.19991E-01
      21    -1     0     0   511   512  0.000000000E+00  0.000000000E+00  1.909844083E+02  1.909844083E+02  0.000000000E+00  0.00000E+00  9.000E+00
      21    -1     0     0   514   511  0.000000000E+00  0.000000000E+00 -2.897899085E+02  2.897899085E+02  0.000000000E+00  0.00000E+00  9.000E+00
      21     1     1     2   516   512  6.678751370E+00  6.002327642E+00  1.883393703E+02  1.885533136E+02  2.697398305E-06  0.00000E+00  9.000E+00
      21     1     1     2   513   516 -9.155138038E+00 -1.202739824E+01 -2.036465869E+01  2.536127332E+01  7.152557373E-07  0.00000E+00  9.000E+00
      21     1     1     2   514   513  2.476386668E+00  6.025070594E+00 -2.667802119E+02  2.668597299E+02  3.814697266E-06  0.00000E+00  9.000E+00
</event>
<event>
      5  10001  2.40292E+09  1.80239E+01 -1.00000E+00  1.70142E-01
      21    -1     0     0   513   512  0.000000000E+00  0.000000000E+00  7.087311031E+00  7.087311031E+00  0.000000000E+00  0.00000E+00  9.000E+00
       2    -1     0     0   512     0  0.000000000E+00  0.000000000E+00 -2.977089225E+02  2.977089225E+02  0.000000000E+00  0.00000E+00  9.000E+00
      21     1     1     2   513   511 -2.828502643E+00  3.949359503E+00  2.332403700E+00  5.388689516E+00  4.578319638E-07  0.00000E+00  9.000E+00
       2     1     1     2   514     0  1.478441893E+01  6.596216525E+00 -2.746802266E+02  2.751570913E+02  3.300000131E-01  0.00000E+00  9.000E+00
      21     1     1     2   511   514 -1.195591629E+01 -1.054557603E+01 -1.827378862E+01  2.425045275E+01  4.129530925E-07  0.00000E+00  9.000E+00
</event>
<event>
      5  10001  2.40292E+09  2.77016E+00 -1.00000E+00  3.07633E-01
      21    -1     0     0   513   512  0.000000000E+00  0.000000000E+00  8.223097436E+02  8.223097436E+02  0.000000000E+00  0.00000E+00  9.000E+00
       2    -1     0     0   511     0  0.000000000E+00  0.000000000E+00 -3.663193103E-01  3.663193103E-01  0.000000000E+00  0.00000E+00  9.000E+00
      21     1     1     2   511   512  4.397355211E+00 -1.071315185E+01  5.737697176E+02  5.738865717E+02  0.000000000E+00  0.00000E+00  9.000E+00
       2     1     1     2   515     0 -5.759293260E+00  8.301226582E+00  8.599260935E+01  8.658474222E+01  3.300000131E-01  0.00000E+00  9.000E+00
      21     1     1     2   513   515  1.361938048E+00  2.411925268E+00  1.621810973E+02  1.622047490E+02  1.907348633E-06  0.00000E+00  9.000E+00
</event>
<event>
      5  10001  2.40292E+09  1.44289E+01 -1.00000E+00  1.78938E-01
      21    -1     0     0   514   512  0.000000000E+00  0.000000000E+00  7.519767132E+01  7.519767132E+01  0.000000000E+00  0.00000E+00  9.000E+00
      21    -1     0     0   511   516  0.000000000E+00  0.000000000E+00 -3.190555721E+00  3.190555721E+00  0.000000000E+00  0.00000E+00  9.000E+00
      21     1     1     2   514   516 -1.031992140E+01 -5.874390669E+00  5.669147877E+01  5.792178354E+01  9.536743164E-07  0.00000E+00  9.000E+00
      21     1     1     2   517   512  2.714366764E+00  1.487493390E-01  8.032808387E+00  8.480325694E+00  1.192092896E-07  0.00000E+00  9.000E+00
      21     1     1     2   511   517  7.605554633E+00  5.725641330E+00  7.282828440E+00  1.198611780E+01  3.769728732E-07  0.00000E+00  9.000E+00
</event>
<event>
      5  10001  2.40292E+09  4.84842E+00 -1.00000E+00  2.45129E-01
      21    -1     0     0   513   512  0.000000000E+00  0.000000000E+00  4.592906866E+01  4.592906866E+01  0.000000000E+00  0.00000E+00  9.000E+00
      21    -1     0     0   511   515  0.000000000E+00  0.000000000E+00 -8.505873798E+01  8.505873798E+01  0.000000000E+00  0.00000E+00  9.000E+00
      21     1     1     2   513   515 -7.824495786E+00  2.420523998E+01 -1.548767809E+01  2.978228583E+01  6.078504936E-07  0.00000E+00  9.000E+00
      21     1     1     2   511   516  1.011890078E+01 -2.847640505E+01 -5.858890838E+01  6.592388021E+01  1.651812370E-06  0.00000E+00  9.000E+00
      21     1     1     2   516   512 -2.294404996E+00  4.271165068E+00  3.494691714E+01  3.528164060E+01  0.000000000E+00  0.00000E+00  9.000E+00
</event>
<event>
      5  10001  2.40292E+09  3.63156E+00 -1.00000E+00  2.73650E-01
      21    -1     0     0   513   511  0.000000000E+00  0.000000000E+00  1.745619047E+01  1.745619047E+01  0.000000000E+00  0.00000E+00  9.000E+00
       4    -1     0     0   512     0  0.000000000E+00  0.000000000E+00 -1.725044427E+01  1.725044427E+01  0.000000000E+00  0.00000E+00  9.000E+00
      21     1     1     2   512   511 -7.020277807E+00 -5.719609287E+00 -5.674949376E+00  1.068659353E+01  1.192092896E-07  0.00000E+00  9.000E+00
       4     1     1     2   514     0  8.378059835E+00  9.078150036E+00 -4.337776811E+00  1.317842943E+01  1.500000000E+00  0.00000E+00  9.000E+00
      21     1     1     2   513   514 -1.357782028E+00 -3.358540749E+00  1.021847238E+01  1.084161177E+01  2.064765462E-07  0.00000E+00  9.000E+00
</event>
<event>
      5  10001  2.40292E+09  6.05765E+00 -1.00000E+00  2.24751E-01
      21    -1     0     0   515   512  0.000000000E+00  0.000000000E+00  1.136554568E+02  1.136554568E+02  0.000000000E+00  0.00000E+00  9.000E+00
      21    -1     0     0   511   517  0.000000000E+00  0.000000000E+00 -8.926603799E+01  8.926603799E+01  0.000000000E+00  0.00000E+00  9.000E+00
      21     1     1     2   515   516 -2.188618229E+01 -7.980636417E+00  7.719896559E+01  8.063731035E+01  1.348699152E-06  0.00000E+00  9.000E+00
      21     1     1     2   511   512  2.606776951E+01  3.597771663E+00  2.962655417E+01  3.962581583E+01  8.259061849E-07  0.00000E+00  9.000E+00
      21     1     1     2   516   517 -4.181587215E+00  4.382864754E+00 -8.243610091E+01  8.265836865E+01  9.536743164E-07  0.00000E+00  9.000E+00
</event>
<event>
      5  10001  2.40292E+09  6.03988E+00 -1.00000E+00  2.24948E-01
       2    -1     0     0   515     0  0.000000000E+00  0.000000000E+00  4.208449606E+02  4.208449606E+02  0.000000000E+00  0.00000E+00  9.000E+00
      21    -1     0     0   514   511  0.000000000E+00  0.000000000E+00 -1.013243748E+01  1.013243748E+01  0.000000000E+00  0.00000E+00  9.000E+00
      21     1     1     2   514   513 -1.303442975E+01 -4.243786510E-01  2.111878678E+00  1.321122582E+01  3.384893147E-07  0.00000E+00  9.000E+00
       2     1     1     2   513     0  1.024558156E+01 -4.933040965E+00  4.110799065E+02  4.112372858E+02  3.300000131E-01  0.00000E+00  9.000E+00
      21     1     1     2   515   511  2.788848192E+00  5.357419616E+00 -2.479261970E+00  6.528886513E+00  3.024605383E-07  0.00000E+00  9.000E+00
</event>
<event>
      5  10001  2.40292E+09  1.31169E+01 -1.00000E+00  1.83003E-01
       4    -1     0     0   514     0  0.000000000E+00  0.000000000E+00  3.623929018E+02  3.623929018E+02  0.000000000E+00  0.00000E+00  9.000E+00
      21    -1     0     0   513   511  0.000000000E+00  0.000000000E+00 -7.065806162E+01  7.065806162E+01  0.000000000E+00  0.00000E+00  9.000E+00
      21     1     1     2   513   512  5.581542819E+00 -1.234364185E+01 -6.860503995E+01  6.992975491E+01  2.523185073E-06  0.00000E+00  9.000E+00
       4     1     1     2   512     0 -1.835051848E+01  9.343808049E+00  3.207745367E+02  3.214383326E+02  1.500000000E+00  0.00000E+00  9.000E+00
      21     1     1     2   514   511  1.276897566E+01  2.999833805E+00  3.956534345E+01  4.168287591E+01  4.768371582E-07  0.00000E+00  9.000E+00
</event>
<event>
      5  10001  2.40292E+09  7.52807E+00 -1.00000E+00  2.11116E-01
      21    -1     0     0   515   513  0.000000000E+00  0.000000000E+00  9.526586967E+01  9.526586967E+01  0.000000000E+00  0.00000E+00  9.000E+00
      21    -1     0     0   516   512  0.000000000E+00  0.000000000E+00 -2.139872486E+02  2.139872486E+02  0.000000000E+00  0.00000E+00  9.000E+00
      21     1     1     2   511   513 -1.240749080E+01  4.312883581E+00  7.092345545E+01  7.212962863E+01  1.348699152E-06  0.00000E+00  9.000E+00
      21     1     1     2   516   511  5.448726967E+00 -7.184732914E+00  2.281398231E+01  2.453134325E+01  5.840038640E-07  0.00000E+00  9.000E+00
      21     1     1     2   515   512  6.958763837E+00  2.871849333E+00 -2.124588167E+02  2.125921464E+02  3.814697266E-06  0.00000E+00  9.000E+00
</event>
<event>
      5  10001  2.40292E+09  2.47969E+00 -1.00000E+00  3.24291E-01
      21    -1     0     0   514   511  0.000000000E+00  0.000000000E+00  4.336962093E+01  4.336962093E+01  0.000000000E+00  0.00000E+00  9.000E+00
       2    -1     0     0   517     0  0.000000000E+00  0.000000000E+00 -2.026185757E+02  2.026185757E+02  0.000000000E+00  0.00000E+00  9.000E+00
      21     1     1     2   512   511 -7.629080832E+00  6.514012651E+00  2.415369845E+01  2.615408924E+01  3.371747881E-07  0.00000E+00  9.000E+00
      21     1     1     2   517   512  7.944914175E+00 -8.973496796E+00  1.623559642E+01  2.018018575E+01  2.384185791E-07  0.00000E+00  9.000E+00
       2     1     1     2   514     0 -3.158333422E-01  2.459484144E+00 -1.996382496E+02  1.996539216E+02  3.300000131E-01  0.00000E+00  9.000E+00
</event>
<event>
      5  10001  2.40292E+09  1.98506E+01 -1.00000E+00  1.66596E-01
      21    -1     0     0   512   515  0.000000000E+00  0.000000000E+00  1.047088587E+01  1.047088587E+01  0.000000000E+00  0.00000E+00  9.000E+00
      -1    -1     0     0     0   513  0.000000000E+00  0.000000000E+00 -5.313128154E+01  5.313128154E+01  0.000000000E+00  0.00000E+00  9.000E+00
      -1     1     1     2     0   515  1.291465860E+01  2.895851583E+00 -4.419440967E+01  4.613490120E+01  3.300000131E-01  0.00000E+00  9.000E+00
      21     1     1     2   512   511 -5.322315914E+00  2.567335511E+00 -3.476706788E+00  6.856073833E+00  1.332800375E-07  0.00000E+00  9.000E+00
      21     1     1     2   511   513 -7.592342689E+00 -5.463187093E+00  5.010720787E+00  1.061119237E+01  2.308477966E-07  0.00000E+00  9.000E+00
</event>
<event>
      5  10001  2.40292E+09  2.35715E+01 -1.00000E+00  1.60650E-01
      21    -1     0     0   511   514  0.000000000E+00  0.000000000E+00  1.089117948E+00  1.089117948E+00  0.000000000E+00  0.00000E+00  9.000E+00
       1    -1     0     0   512     0  0.000000000E+00  0.000000000E+00 -2.690606541E+02  2.690606541E+02  0.000000000E+00  0.00000E+00  9.000E+00
      21     1     1     2   512   514  7.001326018E+00  3.185712674E+00 -7.361005916E+01  7.401086501E+01  0.000000000E+00  0.00000E+00  9.000E+00
      21     1     1     2   511   515 -5.956618516E-01 -1.255860518E+01 -6.027628325E+01  6.157356331E+01  0.000000000E+00  0.00000E+00  9.000E+00
       1     1     1     2   515     0 -6.405664166E+00  9.372892508E+00 -1.340851938E+02  1.345653437E+02  3.300000131E-01  0.00000E+00  9.000E+00
</event>
<event>
      5  10001  2.40292E+09  4.36245E+00 -1.00000E+00  2.54798E-01
      21    -1     0     0   513   515  0.000000000E+00  0.000000000E+00  1.046979533E+00  1.046979533E+00  0.000000000E+00  0.00000E+00  9.000E+00
       2    -1     0     0   511     0  0.000000000E+00  0.000000000E+00 -3.946423534E+02  3.946423534E+02  0.000000000E+00  0.00000E+00  9.000E+00
      21     1     1     2   512   515 -9.928505845E+00 -9.432595466E+00 -6.023431571E+01  6.177152965E+01  6.743495762E-07  0.00000E+00  9.000E+00
       2     1     1     2   513     0  1.248112506E+01  7.201222818E+00 -3.072034127E+02  3.075413497E+02  3.300000131E-01  0.00000E+00  9.000E+00
      21     1     1     2   511   512 -2.552619216E+00  2.231372648E+00 -2.615764549E+01  2.637645364E+01  0.000000000E+00  0.00000E+00  9.000E+00
</event>
<event>
      5  10001  2.40292E+09  4.81978E+00 -1.00000E+00  2.45651E-01
      21    -1     0     0   514   513  0.000000000E+00  0.000000000E+00  9.424618360E+00  9.424618360E+00  0.000000000E+00  0.00000E+00  9.000E+00
      21    -1     0     0   511   512  0.000000000E+00  0.000000000E+00 -9.925816749E+01  9.925816749E+01  0.000000000E+00  0.00000E+00  9.000E+00
      21     1     1     2   514   512 -7.233487787E-01 -9.309290277E+00 -8.789470330E+01  8.838928095E+01  2.523185073E-06  0.00000E+00  9.000E+00
      21     1     1     2   511   515  7.442923145E-01  1.412902346E+01 -4.485091387E+00  1.484248361E+01  3.371747881E-07  0.00000E+00  9.000E+00
      21     1     1     2   515   513 -2.094353576E-02 -4.819733181E+00  2.546245563E+00  5.451021283E+00  9.884312124E-08  0.00000E+00  9.000E+00
</event>
<event>
      5  10001  2.40292E+09  4.18664E+01 -1.00000E+00  1.43592E-01
      -1    -1     0     0     0   513  0.000000000E+00  0.000000000E+00  1.667465549E+02  1.667465549E+02  0.000000000E+00  0.00000E+00  9.000E+00
      21    -1     0     0   513   514  0.000000000E+00  0.000000000E+00 -1.125875080E+01  1.125875080E+01  0.000000000E+00  0.00000E+00  9.000E+00
      -1     1     1     2     0   515 -2.286680131E+01 -1.532612085E+01  1.345470873E+02  1.373346577E+02  3.300000131E-01  0.00000E+00  9.000E+00
      21     1     1     2   515   511  9.480352543E+00  6.371879147E-01  1.830344228E+01  2.062278090E+01  3.371747881E-07  0.00000E+00  9.000E+00
      21     1     1     2   511   514  1.338644877E+01  1.468893294E+01  2.637274520E+00  2.004786718E+01  1.954268969E-07  0.00000E+00  9.000E+00
</event>
<event>
      5  10001  2.40292E+09  2.68765E+00 -1.00000E+00  3.11996E-01
       1    -1     0     0   511     0  0.000000000E+00  0.000000000E+00  1.481288605E+03  1.481288605E+03  0.000000000E+00  0.00000E+00  9.000E+00
      21    -1     0     0   513   511  0.000000000E+00  0.000000000E+00 -3.532683595E-01  3.532683595E-01  0.000000000E+00  0.00000E+00  9.000E+00
      -2     1     1     2     0   512  2.797322557E+00 -1.206191154E+01  2.009797959E+02  2.013611233E+02  3.300000131E-01  0.00000E+00  9.000E+00
       1     1     1     2   512     0 -4.293315221E+00  1.429381956E+01  1.264620115E+03  1.264708223E+03  3.300000131E-01  0.00000E+00  9.000E+00
       2     1     1     2   513     0  1.495992664E+00 -2.231908019E+00  1.533542551E+01  1.557252655E+01  3.300000131E-01  0.00000E+00  9.000E+00
</event>
<event>
      5  10001  2.40292E+09  9.13454E+00 -1.00000E+00  2.00353E-01
      21    -1     0     0   513   514  0.000000000E+00  0.000000000E+00  6.905035800E+01  6.905035800E+01  0.000000000E+00  0.00000E+00  9.000E+00
      21    -1     0     0   512   511  0.000000000E+00  0.000000000E+00 -4.775346006E+01  4.775346006E+01  0.000000000E+00  0.00000E+00  9.000E+00
      21     1     1     2   512   514  1.393977657E+01 -6.524906887E+00  3.001908393E+01  3.373480666E+01  5.840038640E-07  0.00000E+00  9.000E+00
       2     1     1     2   513     0 -4.811123010E+00  6.203272919E+00  3.629374001E+01  3.713451176E+01  3.300000131E-01  0.00000E+00  9.000E+00
      -2     1     1     2     0   511 -9.128653559E+00  3.216339686E-01 -4.501592599E+01  4.593449964E+01  3.300000131E-01  0.00000E+00  9.000E+00
</event>
<event>
      5  10001  2.40292E+09  1.36117E+01 -1.00000E+00  1.81402E-01
      21    -1     0     0   511   512  0.000000000E+00  0.000000000E+00  9.895411465E+00  9.895411465E+00  0.000000000E+00  0.00000E+00  9.000E+00
      -2    -1     0     0     0   511  0.000000000E+00  0.000000000E+00 -3.264806383E+01  3.264806383E+01  0.000000000E+00  0.00000E+00  9.000E+00
      -2     1     1     2     0   513  2.292579033E-01  4.131825407E+00 -4.059382852E+00  5.806206122E+00  3.300000131E-01  0.00000E+00  9.000E+00
      21     1     1     2   515   512  3.467320601E+00 -9.112438469E+00  5.885140816E+00  1.138831548E+01  1.884864366E-07  0.00000E+00  9.000E+00
      21     1     1     2   513   515 -3.696578504E+00  4.980613062E+00 -2.457841033E+01  2.534895370E+01  0.000000000E+00  0.00000E+00  9.000E+00
</event>
<event>
      5  10001  2.40292E+09  1.63646E+01 -1.00000E+00  1.73848E-01
      21    -1     0     0   514   513  0.000000000E+00  0.000000000E+00  5.888292080E+00  5.888292080E+00  0.000000000E+00  0.00000E+00  9.000E+00
      21    -1     0     0   516   511  0.000000000E+00  0.000000000E+00 -2.542459957E+02  2.542459957E+02  0.000000000E+00  0.00000E+00  9.000E+00
      21     1     1     2   516   517 -1.485268507E+01  7.097787190E+00 -2.333966480E+01  2.856082614E+01  3.371747881E-07  0.00000E+00  9.000E+00
      21     1     1     2   517   513  1.159968695E+01  8.940223904E+00 -1.516081353E+01  2.107915102E+01  3.371747881E-07  0.00000E+00  9.000E+00
      21     1     1     2   514   511  3.252998121E+00 -1.603801109E+01 -2.098572253E+02  2.104943106E+02  2.697398305E-06  0.00000E+00  9.000E+00
</event>
<event>
      5  10001  2.40292E+09  2.38387E+01 -1.00000E+00  1.60275E-01
      21    -1     0     0   512   511  0.000000000E+00  0.000000000E+00  5.231420701E+01  5.231420701E+01  0.000000000E+00  0.00000E+00  9.000E+00
      21    -1     0     0   516   515  0.000000000E+00  0.000000000E+00 -3.331045258E+01  3.331045258E+01  0.000000000E+00  0.00000E+00  9.000E+00
      21     1     1     2   512   515 -2.230137491E+01 -1.455634187E+00  4.278574829E+01  4.827101045E+01  6.743495762E-07  0.00000E+00  9.000E+00
      21     1     1     2   513   511  1.122473626E+01  7.873165349E+00 -4.938168160E+00  1.457281516E+01  1.460009660E-07  0.00000E+00  9.000E+00
      21     1     1     2   516   513  1.107663865E+01 -6.417531163E+00 -1.884382570E+01  2.278083398E+01  7.539457465E-07  0.00000E+00  9.000E+00
</event>
<event>
      5  10001  2.40292E+09  2.39250E+01 -1.00000E+00  1.60155E-01
      21    -1     0     0   516   511  0.000000000E+00  0.000000000E+00  6.773046256E+00  6.773046256E+00  0.000000000E+00  0.00000E+00  9.000E+00
      -4    -1     0     0     0   514  0.000000000E+00  0.000000000E+00 -7.748803007E+01  7.748803007E+01  0.000000000E+00  0.00000E+00  9.000E+00
      -4     1     1     2     0   511 -7.428027118E+00  5.995334597E+00 -6.974392820E+01  7.041012104E+01  1.500000000E+00  0.00000E+00  9.000E+00
      21     1     1     2   516   512  3.525923181E+00 -3.900613402E-01 -4.840506623E+00  6.001232081E+00  5.960464478E-08  0.00000E+00  9.000E+00
      21     1     1     2   512   514  3.902103938E+00 -5.605273256E+00  3.869451005E+00  7.849723212E+00  1.632340424E-07  0.00000E+00  9.000E+00
</event>
<event>
      5  10001  2.40292E+09  2.01922E+00 -1.00000E+00  3.60932E-01
      21    -1     0     0   513   511  0.000000000E+00  0.000000000E+00  8.027076121E-01  8.027076121E-01  0.000000000E+00  0.00000E+00  9.000E+00
       1    -1     0     0   511     0  0.000000000E+00  0.000000000E+00 -1.590874678E+02  1.590874678E+02  0.000000000E+00  0.00000E+00  9.000E+00
      21     1     1     2   513   512 -3.873996028E+00  1.020999939E+01 -8.876911790E+01  8.943829284E+01  1.651812370E-06  0.00000E+00  9.000E+00
       1     1     1     2   515     0  1.582662309E+00 -8.324421448E+00 -5.142878976E+01  5.212322062E+01  3.300000131E-01  0.00000E+00  9.000E+00
      21     1     1     2   512   515  2.291333719E+00 -1.885577946E+00 -1.808685250E+01  1.832866192E+01  3.371747881E-07  0.00000E+00  9.000E+00
</event>
<event>
      5  10001  2.40292E+09  7.62182E+00 -1.00000E+00  2.10391E-01
      21    -1     0     0   516   511  0.000000000E+00  0.000000000E+00  1.069513957E+02  1.069513957E+02  0.000000000E+00  0.00000E+00  9.000E+00
      -4    -1     0     0     0   514  0.000000000E+00  0.000000000E+00 -2.396531776E+00  2.396531776E+00  0.000000000E+00  0.00000E+00  9.000E+00
      -4     1     1     2     0   511  9.330990413E-01  1.149768880E+01  1.491561947E+01  1.891542296E+01  1.500000000E+00  0.00000E+00  9.000E+00
      21     1     1     2   513   514 -2.284814254E-01 -7.632489994E-01  1.509888273E+01  1.511988798E+01  1.685873940E-07  0.00000E+00  9.000E+00
      21     1     1     2   516   513 -7.046176160E-01 -1.073443980E+01  7.454036177E+01  7.531261658E+01  9.536743164E-07  0.00000E+00  9.000E+00
</event>
<event>
      5  10001  2.40292E+09  6.87397E+00 -1.00000E+00  2.16603E-01
      -2    -1     0     0     0   512  0.000000000E+00  0.000000000E+00  2.004562767E+01  2.004562767E+01  0.000000000E+00  0.00000E+00  9.000E+00
      21    -1     0     0   515   513  0.000000000E+00  0.000000000E+00 -1.205240089E+01  1.205240089E+01  0.000000000E+00  0.00000E+00  9.000E+00
      21     1     1     2   511   513  1.241336047E+00 -7.565750798E+00  5.904476209E+00  9.677000548E+00  2.384185791E-07  0.00000E+00  9.000E+00
      21     1     1     2   515   512  2.513440789E+00  1.434491458E+01  1.552099733E+00  1.464591999E+01  2.835139273E-07  0.00000E+00  9.000E+00
      -2     1     1     2     0   511 -3.754776836E+00 -6.779163780E+00  5.366508328E-01  7.775108023E+00  3.300000131E-01  0.00000E+00  9.000E+00
</event>
<event>
      5  10001  2.40292E+09  1.39614E+01 -1.00000E+00  1.80321E-01
       1    -1     0     0   511     0  0.000000000E+00  0.000000000E+00  4.821343578E+02  4.821343578E+02  0.000000000E+00  0.00000E+00  9.000E+00
      21    -1     0     0   516   512  0.000000000E+00  0.000000000E+00 -6.037474199E+01  6.037474199E+01  0.000000000E+00  0.00000E+00  9.000E+00
      21     1     1     2   516   514  7.519848269E+00 -1.156732863E+02  2.685526673E+01  1.189876575E+02  1.305872339E-06  0.00000E+00  9.000E+00
       1     1     1     2   514     0  3.242607501E+00  1.067800051E+02  3.953737074E+02  4.095521474E+02  3.300000131E-01  0.00000E+00  9.000E+00
      21     1     1     2   511   512 -1.076245577E+01  8.893281156E+00 -4.693583409E-01  1.396929494E+01  3.659137832E-07  0.00000E+00  9.000E+00
</event>
<event>
      5  10001  2.40292E+09  1.25276E+01 -1.00000E+00  1.85033E-01
      21    -1     0     0   513   512  0.000000000E+00  0.000000000E+00  6.753335074E+00  6.753335074E+00  0.000000000E+00  0.00000E+00  9.000E+00
      21    -1     0     0   516   515  0.000000000E+00  0.000000000E+00 -3.998629779E+01  3.998629779E+01  0.000000000E+00  0.00000E+00  9.000E+00
      21     1     1     2   513   515  9.773713364E+00  5.610767077E+00 -2.551443206E+01  2.789251555E+01  3.371747881E-07  0.00000E+00  9.000E+00
      21     1     1     2   514   512 -4.859262160E+00  2.114124668E+00  1.841464300E+00  5.610075099E+00  4.214684851E-08  0.00000E+00  9.000E+00
      21     1     1     2   516   514 -4.914451204E+00 -7.724891745E+00 -9.559994952E+00  1.323704221E+01  0.000000000E+00  0.00000E+00  9.000E+00
</event>
<event>
      5  10001  2.40292E+09  8.96486E+00 -1.00000E+00  2.01346E-01
      21    -1     0     0   511   514  0.000000000E+00  0.000000000E+00  1.100097272E+01  1.100097272E+01  0.000000000E+00  0.00000E+00  9.000E+00
      21    -1     0     0   516   517  0.000000000E+00  0.000000000E+00 -3.673446764E+01  3.673446764E+01  0.000000000E+00  0.00000E+00  9.000E+00
      21     1     1     2   511   517  1.036542941E+01 -4.162957546E+00  4.941000737E+00  1.221416517E+01  2.731427965E-07  0.00000E+00  9.000E+00
      21     1     1     2   516   512 -4.542440132E+00  1.593438260E+00 -2.833376520E+01  2.873978180E+01  0.000000000E+00  0.00000E+00  9.000E+00
      21     1     1     2   512   514 -5.822989281E+00  2.569519285E+00 -2.340730463E+00  6.781493392E+00  5.960464478E-08  0.00000E+00  9.000E+00
</event>
<event>
      5  10001  2.40292E+09  6.96332E+00 -1.00000E+00  2.15805E-01
      21    -1     0     0   513   512  0.000000000E+00  0.000000000E+00  7.732859259E+01  7.732859259E+01  0.000000000E+00  0.00000E+00  9.000E+00
      21    -1     0     0   514   513  0.000000000E+00  0.000000000E+00 -2.097866832E+01  2.097866832E+01  0.000000000E+00  0.00000E+00  9.000E+00
      21     1     1     2   515   512  1.478248528E+01 -1.537150227E+00  7.366356944E+01  7.514789528E+01  9.536743164E-07  0.00000E+00  9.000E+00
      -1     1     1     2     0   515 -4.358491972E+00  1.697332875E+00 -3.505451040E+00  5.854440892E+00  3.300000131E-01  0.00000E+00  9.000E+00
       1     1     1     2   514     0 -1.042399331E+01 -1.601826483E-01 -1.380819413E+01  1.730492474E+01  3.300000131E-01  0.00000E+00  9.000E+00
</event>
<event>
      5  10001  2.40292E+09  7.89756E+00 -1.00000E+00  2.08339E-01
      21    -1     0     0   511   514  0.000000000E+00  0.000000000E+00  4.810820260E+00  4.810820260E+00  0.000000000E+00  0.00000E+00  9.000E+00
      21    -1     0     0   512   516  0.000000000E+00  0.000000000E+00 -9.312922276E+01  9.312922276E+01  0.000000000E+00  0.00000E+00  9.000E+00
      21     1     1     2   511   516 -3.413597759E+00 -1.786417741E+01 -5.614804934E+01  5.902020780E+01  0.000000000E+00  0.00000E+00  9.000E+00
      21     1     1     2   513   514  2.700310859E+00  1.214775598E+01 -9.857877772E+00  1.587568607E+01  4.129530925E-07  0.00000E+00  9.000E+00
      21     1     1     2   512   513  7.132869002E-01  5.716421427E+00 -2.231247539E+01  2.304414915E+01  2.384185791E-07  0.00000E+00  9.000E+00
</event>
<event>
      5  10001  2.40292E+09  3.52404E+00 -1.00000E+00  2.77026E-01
      -3    -1     0     0     0   515  0.000000000E+00  0.000000000E+00  7.213220939E+01  7.213220939E+01  0.000000000E+00  0.00000E+00  9.000E+00
      21    -1     0     0   514   511  0.000000000E+00  0.000000000E+00 -3.609608696E+01  3.609608696E+01  0.000000000E+00  0.00000E+00  9.000E+00
      -3     1     1     2     0   512 -2.563395521E+00  1.157126632E+01  6.840315364E+01  6.942410697E+01  5.000000000E-01  0.00000E+00  9.000E+00
      21     1     1     2   512   511  4.704545554E+00 -1.437013848E+01 -1.581154781E+01  2.187781234E+01  5.591411304E-07  0.00000E+00  9.000E+00
      21     1     1     2   514   515 -2.141150033E+00  2.798872157E+00 -1.655548340E+01  1.692637704E+01  2.384185791E-07  0.00000E+00  9.000E+00
</event>
<event>
      5  10001  2.40292E+09  5.87385E+00 -1.00000E+00  2.26835E-01
      -2    -1     0     0     0   513  0.000000000E+00  0.000000000E+00  3.081099030E+01  3.081099030E+01  0.000000000E+00  0.00000E+00  9.000E+00
      -1    -1     0     0     0   511  0.000000000E+00  0.000000000E+00 -2.462660807E+01  2.462660807E+01  0.000000000E+00  0.00000E+00  9.000E+00
      -2     1     1     2     0   511  7.263346334E+00 -6.330363154E+00  2.716049532E+01  2.882067146E+01  3.300000131E-01  0.00000E+00  9.000E+00
      -1     1     1     2     0   512 -3.562617994E+00  3.304205059E+00 -2.127672558E+01  2.182700092E+01  3.300000131E-01  0.00000E+00  9.000E+00
      21     1     1     2   512   513 -3.700728340E+00  3.026158095E+00  3.006124887E-01  4.789925984E+00  8.839227645E-08  0.00000E+00  9.000E+00
</event>
<event>
      5  10001  2.40292E+09  2.72931E+01 -1.00000E+00  1.55912E-01
      21    -1     0     0   514   511  0.000000000E+00  0.000000000E+00  3.475876832E+01  3.475876832E+01  0.000000000E+00  0.00000E+00  9.000E+00
      21    -1     0     0   513   514  0.000000000E+00  0.000000000E+00 -6.679574413E+01  6.679574413E+01  0.000000000E+00  0.00000E+00  9.000E+00
      21     1     1     2   513   515  1.644097254E+01 -2.975188409E+01 -4.791626529E+01  5.874903118E+01  9.536743164E-07  0.00000E+00  9.000E+00
      21     1     1     2   515   516 -1.445846684E+01  6.008073604E+00  3.892250748E+00  1.613362414E+01  4.150983178E-07  0.00000E+00  9.000E+00
      21     1     1     2   516   511 -1.982505702E+00  2.374381049E+01  1.198703873E+01  2.667185713E+01  7.725644944E-07  0.00000E+00  9.000E+00
</event>
<event>
      5  10001  2.40292E+09  1.51358E+01 -1.00000E+00  1.76968E-01
      21    -1     0     0   515   511  0.000000000E+00  0.000000000E+00  3.109462804E+00  3.109462804E+00  0.000000000E+00  0.00000E+00  9.000E+00
       2    -1     0     0   511     0  0.000000000E+00  0.000000000E+00 -9.111874723E+02  9.111874723E+02  0.000000000E+00  0.00000E+00  9.000E+00
      21     1     1     2   513   512 -9.278163322E-01 -2.619341342E+00  1.410230350E+00  3.116174233E+00  4.137588554E-07  0.00000E+00  9.000E+00
       2     1     1     2   512     0  1.241806484E+01  1.079046541E+01 -8.453912309E+02  8.455513495E+02  3.300000131E-01  0.00000E+00  9.000E+00
      21     1     1     2   515   513 -1.149024850E+01 -8.171124072E+00 -6.409700889E+01  6.562941130E+01  1.348699152E-06  0.00000E+00  9.000E+00
</event>
<event>
      5  10001  2.40292E+09  9.99954E+00 -1.00000E+00  1.95701E-01
      21    -1     0     0   514   512  0.000000000E+00  0.000000000E+00  2.807375865E+01  2.807375865E+01  0.000000000E+00  0.00000E+00  9.000E+00
      -2    -1     0     0     0   514  0.000000000E+00  0.000000000E+00 -8.091359047E+01  8.091359047E+01  0.000000000E+00  0.00000E+00  9.000E+00
      21     1     1     2   511   513 -2.243310896E+01  2.861682681E+00 -3.699367841E+01  4.335857295E+01  4.768371582E-07  0.00000E+00  9.000E+00
      21     1     1     2   513   512  1.425542873E+01  2.892584046E+00  2.206030366E+01  2.642425568E+01  5.840038640E-07  0.00000E+00  9.000E+00
      -2     1     1     2     0   511  8.177680228E+00 -5.754266727E+00 -3.790645706E+01  3.920452049E+01  3.300000131E-01  0.00000E+00  9.000E+00
</event>
<event>
      5  10001  2.40292E+09  1.50420E+01 -1.00000E+00  1.77222E-01
      21    -1     0     0   515   511  0.000000000E+00  0.000000000E+00  2.113858426E+02  2.113858426E+02  0.000000000E+00  0.00000E+00  9.000E+00
      21    -1     0     0   516   512  0.000000000E+00  0.000000000E+00 -1.004677869E+01  1.004677869E+01  0.000000000E+00  0.00000E+00  9.000E+00
      21     1     1     2   517   511  5.169477999E+00 -2.234533640E+01  1.034868680E+02  1.059979689E+02  1.348699152E-06  0.00000E+00  9.000E+00
      21     1     1     2   516   517 -9.425215763E+00  7.917869549E+00  9.953996683E+01  1.002982171E+02  1.348699152E-06  0.00000E+00  9.000E+00
      21     1     1     2   515   512  4.255737764E+00  1.442746685E+01 -1.687770922E+00  1.513643532E+01  5.470979139E-07  0.00000E+00  9.000E+00
</event>
<event>
      5  10001  2.40292E+09  7.83927E+00 -1.00000E+00  2.08763E-01
      21    -1     0     0   513   512  0.000000000E+00  0.000000000E+00  3.551202327E+01  3.551202327E+01  0.000000000E+00  0.00000E+00  9.000E+00
      21    -1     0     0   511   514  0.000000000E+00  0.000000000E+00 -2.020777091E+01  2.020777091E+01  0.000000000E+00  0.00000E+00  9.000E+00
      21     1     1     2   513   514 -9.421319875E+00 -4.305460998E+00 -1.764861191E+01  2.046391373E+01  4.768371582E-07  0.00000E+00  9.000E+00
      21     1     1     2   511   516  6.984641862E+00  3.507169698E+00  1.322315453E+01  1.536024990E+01  0.000000000E+00  0.00000E+00  9.000E+00
      21     1     1     2   516   512  2.436678013E+00  7.982913000E-01  1.972970974E+01  1.989563055E+01  4.768371582E-07  0.00000E+00  9.000E+00
</event>
<event>
      5  10001  2.40292E+09  6.05119E+00 -1.00000E+00  2.24822E-01
      21    -1     0     0   515   511  0.000000000E+00  0.000000000E+00  1.928673449E+01  1.928673449E+01  0.000000000E+00  0.00000E+00  9.000E+00
      21    -1     0     0   512   515  0.000000000E+00  0.000000000E+00 -5.090484694E+01  5.090484694E+01  0.000000000E+00  0.00000E+00  9.000E+00
      21     1     1     2   512   517 -1.670568528E+00 -9.810409229E+00 -4.674768443E+01  4.779519775E+01  0.000000000E+00  0.00000E+00  9.000E+00
      21     1     1     2   513   511  3.098944914E+00  4.596526286E+00  1.598876460E+01  1.692253252E+01  5.057621821E-07  0.00000E+00  9.000E+00
      21     1     1     2   517   513 -1.428376386E+00  5.213882943E+00 -8.591926166E-01  5.473851148E+00  6.409231772E-08  0.00000E+00  9.000E+00
</event>
<event>
      5  10001  2.40292E+09  4.04023E+00 -1.00000E+00  2.62343E-01
      21    -1     0     0   511   513  0.000000000E+00  0.000000000E+00  1.745080093E+02  1.745080093E+02  0.000000000E+00  0.00000E+00  9.000E+00
      21    -1     0     0   516   514  0.000000000E+00  0.000000000E+00 -5.150005634E+00  5.150005634E+00  0.000000000E+00  0.00000E+00  9.000E+00
      21     1     1     2   516   512  6.586032615E+00  1.007055672E+01  3.743564504E+00  1.260183374E+01  5.004660971E-07  0.00000E+00  9.000E+00
      21     1     1     2   512   513 -9.807173792E+00 -1.250934077E+01  1.526854586E+02  1.535106300E+02  1.907348633E-06  0.00000E+00  9.000E+00
      21     1     1     2   511   514  3.221141177E+00  2.438784045E+00  1.292898058E+01  1.354555119E+01  1.685873940E-07  0.00000E+00  9.000E+00
</event>
<event>
      5  10001  2.40292E+09  2.41067E+01 -1.00000E+00  1.59905E-01
      21    -1     0     0   515   513  0.000000000E+00  0.000000000E+00  2.420308549E+00  2.420308549E+00  0.000000000E+00  0.00000E+00  9.000E+00
      21    -1     0     0   513   511  0.000000000E+00  0.000000000E+00 -1.352462625E+02  1.352462625E+02  0.000000000E+00  0.00000E+00  9.000E+00
      21     1     1     2   512   511 -1.129747327E+01  6.713213086E+00 -4.482454073E+01  4.671123617E+01  4.768371582E-07  0.00000E+00  9.000E+00
       4     1     1     2   515     0  6.852409240E+00  2.943021086E+00 -1.205890157E+01  1.425776956E+01  1.500000000E+00  0.00000E+00  9.000E+00
      -4     1     1     2     0   512  4.445064032E+00 -9.656234171E+00 -7.594251167E+01  7.669756536E+01  1.500000000E+00  0.00000E+00  9.000E+00
</event>
<event>
      5  10001  2.40292E+09  5.91025E+00 -1.00000E+00  2.26414E-01
      -4    -1     0     0     0   512  0.000000000E+00  0.000000000E+00  1.040287187E+02  1.040287187E+02  0.000000000E+00  0.00000E+00  9.000E+00
      21    -1     0     0   514   515  0.000000000E+00  0.000000000E+00 -1.331927357E+00  1.331927357E+00  0.000000000E+00  0.00000E+00  9.000E+00
      -4     1     1     2     0   515  3.528863930E+00  9.305430491E+00  2.633668879E+01  2.819423866E+01  1.500000000E+00  0.00000E+00  9.000E+00
      21     1     1     2   514   511  3.388219514E-01 -5.008381729E+00  2.640878275E+01  2.688163861E+01  4.768371582E-07  0.00000E+00  9.000E+00
      21     1     1     2   511   512 -3.867685881E+00 -4.297048762E+00  4.995131982E+01  5.028476880E+01  1.168007728E-06  0.00000E+00  9.000E+00
</event>
<event>
      5  10001  2.40292E+09  8.56257E+00 -1.00000E+00  2.03821E-01
      21    -1     0     0   513   515  0.000000000E+00  0.000000000E+00  1.920198404E+01  1.920198404E+01  0.000000000E+00  0.00000E+00  9.000E+00
      21    -1     0     0   512   513  0.000000000E+00  0.000000000E+00 -2.768282880E+02  2.768282880E+02  0.000000000E+00  0.00000E+00  9.000E+00
      21     1     1     2   514   511 -1.023844621E+01 -4.823176266E+00  1.451914276E+01  1.840908245E+01  1.192092896E-06  0.00000E+00  9.000E+00
      21     1     1     2   512   514  3.454560746E+00  1.004778674E+01 -2.678153176E+02  2.680259994E+02  3.814697266E-06  0.00000E+00  9.000E+00
      21     1     1     2   511   515  6.783885466E+00 -5.224610472E+00 -4.330129110E+00  9.595190186E+00  1.976862425E-07  0.00000E+00  9.000E+00
</event>
<event>
      5  10001  2.40292E+09  8.98538E+00 -1.00000E+00  2.01224E-01
      21    -1     0     0   516   512  0.000000000E+00  0.000000000E+00  1.560155163E+01  1.560155163E+01  0.000000000E+00  0.00000E+00  9.000E+00
      -1    -1     0     0     0   515  0.000000000E+00  0.000000000E+00 -6.664979593E+01  6.664979593E+01  0.000000000E+00  0.00000E+00  9.000E+00
      21     1     1     2   516   515 -9.461257111E+00  3.634561545E+00  7.204661973E+00  1.243513482E+01  0.000000000E+00  0.00000E+00  9.000E+00
      21     1     1     2   511   512  4.794519519E+00 -1.131270343E+01 -1.525988699E+00  1.238116787E+01  1.861154437E-07  0.00000E+00  9.000E+00
      -1     1     1     2     0   511  4.666737592E+00  7.678141883E+00 -5.672691757E+01  5.743504488E+01  3.300000131E-01  0.00000E+00  9.000E+00
</event>
<event>
      5  10001  2.40292E+09  1.05197E+01 -1.00000E+00  1.93190E-01
      21    -1     0     0   513   511  0.000000000E+00  0.000000000E+00  8.855529511E+00  8.855529511E+00  0.000000000E+00  0.00000E+00  9.000E+00
      21    -1     0     0   514   513  0.000000000E+00  0.000000000E+00 -4.236743340E+01  4.236743340E+01  0.000000000E+00  0.00000E+00  9.000E+00
      21     1     1     2   514   517 -9.314820555E+00  6.990884924E-01 -3.318625233E+01  3.447581690E+01  4.768371582E-07  0.00000E+00  9.000E+00
      21     1     1     2   512   511  1.373637629E+00 -1.350785092E-01  6.262932439E+00  6.413224562E+00  2.064765462E-07  0.00000E+00  9.000E+00
      21     1     1     2   517   512  7.941182925E+00 -5.640099832E-01 -6.588583991E+00  1.033392145E+01  1.460009660E-07  0.00000E+00  9.000E+00
</event>
<event>
      5  10001  2.40292E+09  4.64191E+00 -1.00000E+00  2.49019E-01
      21    -1     0     0   514   515  0.000000000E+00  0.000000000E+00  1.125183502E+02  1.125183502E+02  0.000000000E+00  0.00000E+00  9.000E+00
      21    -1     0     0   515   513  0.000000000E+00  0.000000000E+00 -2.478821401E+01  2.478821401E+01  0.000000000E+00  0.00000E+00  9.000E+00
      -3     1     1     2     0   511  2.963883105E+00  8.075487130E+00  8.839941825E+01  8.881838347E+01  5.000000000E-01  0.00000E+00  9.000E+00
      21     1     1     2   511   513 -5.717590335E+00 -1.181160247E+01 -2.256339333E+01  2.610194457E+01  8.596304120E-07  0.00000E+00  9.000E+00
       3     1     1     2   514     0  2.753707229E+00  3.736115343E+00  2.189411130E+01  2.238623619E+01  5.000000000E-01  0.00000E+00  9.000E+00
</event>
<event>
      5  10001  2.40292E+09  8.79469E+00 -1.00000E+00  2.02372E-01
      21    -1     0     0   512   511  0.000000000E+00  0.000000000E+00  2.435357236E+01  2.435357236E+01  0.000000000E+00  0.00000E+00  9.000E+00
      21    -1     0     0   515   513  0.000000000E+00  0.000000000E+00 -6.121677464E+01  6.121677464E+01  0.000000000E+00  0.00000E+00  9.000E+00
      21     1     1     2   512   516  1.698927624E+01  8.955437035E+00 -3.205715239E+01  3.736972543E+01  0.000000000E+00  0.00000E+00  9.000E+00
      21     1     1     2   515   511 -8.307112830E+00 -7.553107421E+00  1.941757858E+01  2.242988883E+01  2.384185791E-07  0.00000E+00  9.000E+00
      21     1     1     2   516   513 -8.682163409E+00 -1.402329614E+00 -2.422362847E+01  2.577073274E+01  3.371747881E-07  0.00000E+00  9.000E+00
</event>
<event>
      5  10001  2.40292E+09  6.90665E+00 -1.00000E+00  2.16309E-01
      21    -1     0     0   514   513  0.000000000E+00  0.000000000E+00  1.518316965E+01  1.518316965E+01  0.000000000E+00  0.00000E+00  9.000E+00
      21    -1     0     0   516   517  0.000000000E+00  0.000000000E+00 -3.749555398E+01  3.749555398E+01  0.000000000E+00  0.00000E+00  9.000E+00
      21     1     1     2   514   517 -9.862820171E+00  1.175385050E+00 -3.124815430E+01  3.278877702E+01  5.840038640E-07  0.00000E+00  9.000E+00
       4     1     1     2   516     0  6.819913915E+00 -4.991430022E+00  1.135959062E+01  1.423783335E+01  1.500000000E+00  0.00000E+00  9.000E+00
      -4     1     1     2     0   513  3.042906256E+00  3.816044971E+00 -2.423820653E+00  5.652113257E+00  1.500000000E+00  0.00000E+00  9.000E+00
</event>
<event>
      5  10001  2.40292E+09  5.13605E+00 -1.00000E+00  2.36410E-01
      21    -1     0     0   511   515  0.000000000E+00  0.000000000E+00  5.026369148E+02  5.026369148E+02  0.000000000E+00  0.00000E+00  9.000E+00
      21    -1     0     0   512   511  0.000000000E+00  0.000000000E+00 -6.553237650E-01  6.553237650E-01  0.000000000E+00  0.00000E+00  9.000E+00
      21     1     1     2   512   513  8.655001685E+00  3.270379888E+00  3.987427884E+01  4.093363594E+01  6.743495762E-07  0.00000E+00  9.000E+00
      21     1     1     2   513   514 -9.255427107E+00 -6.272393868E+00  4.157494351E+02  4.158997459E+02  0.000000000E+00  0.00000E+00  9.000E+00
      21     1     1     2   514   515  6.004254218E-01  3.002013980E+00  4.635787717E+01  4.645885679E+01  9.536743164E-07  0.00000E+00  9.000E+00
</event>
<event>
      5  10001  2.40292E+09  6.35099E+00 -1.00000E+00  2.21629E-01
      -4    -1     0     0     0   515  0.000000000E+00  0.000000000E+00  6.943754561E+00  6.943754561E+00  0.000000000E+00  0.00000E+00  9.000E+00
      21    -1     0     0   515   511  0.000000000E+00  0.000000000E+00 -4.214945469E+02  4.214945469E+02  0.000000000E+00  0.00000E+00  9.000E+00
      -4     1     1     2     0   512  2.878761247E+00 -1.556033773E+01 -2.560777318E+00  1.610027816E+01  1.500000000E+00  0.00000E+00  9.000E+00
      21     1     1     2   513   511 -4.374986648E+00  7.228160560E+00 -1.951016913E+02  1.952845533E+02  4.672030912E-06  0.00000E+00  9.000E+00
      21     1     1     2   512   513  1.496225401E+00  8.332177166E+00 -2.168883237E+02  2.170534700E+02  3.814697266E-06  0.00000E+00  9.000E+00
</event>
<event>
      5  10001  2.40292E+09  4.70308E+00 -1.00000E+00  2.47835E-01
      21    -1     0     0   514   513  0.000000000E+00  0.000000000E+00  1.297681488E+02  1.297681488E+02  0.000000000E+00  0.00000E+00  9.000E+00
      21    -1     0     0   511   516  0.000000000E+00  0.000000000E+00 -2.138556440E+02  2.138556440E+02  0.000000000E+00  0.00000E+00  9.000E+00
      21     1     1     2   514   516 -1.095284166E+01  9.588173507E+00  1.284945390E+02  1.293164504E+02  1.907348633E-06  0.00000E+00  9.000E+00
      21     1     1     2   512   513  9.892372866E+00 -1.417012976E+01 -9.052847049E+01  9.216320083E+01  2.336015456E-06  0.00000E+00  9.000E+00
      21     1     1     2   511   512  1.060468798E+00  4.581956250E+00 -1.220535637E+02  1.221441416E+02  1.348699152E-06  0.00000E+00  9.000E+00
</event>
<event>
      5  10001  2.40292E+09  6.99182E+00 -1.00000E+00  2.15554E-01
      21    -1     0     0   515   512  0.000000000E+00  0.000000000E+00  2.253131231E+02  2.253131231E+02  0.000000000E+00  0.00000E+00  9.000E+00
      21    -1     0     0   512   513  0.000000000E+00  0.000000000E+00 -6.722282752E-01  6.722282752E-01  0.000000000E+00  0.00000E+00  9.000E+00
      -1     1     1     2     0   513 -9.719191467E+00 -3.707631788E+00  1.093282269E+02  1.098224900E+02  3.300000131E-01  0.00000E+00  9.000E+00
      21     1     1     2   515   514  5.785868379E+00  6.823896122E+00  6.885902942E+01  6.943779780E+01  0.000000000E+00  0.00000E+00  9.000E+00
       1     1     1     2   514     0  3.933323088E+00 -3.116264334E+00  4.645363858E+01  4.672506363E+01  3.300000131E-01  0.00000E+00  9.000E+00
</event>
<event>
      5  10001  2.40292E+09  9.32096E+00 -1.00000E+00  1.99294E-01
       2    -1     0     0   511     0  0.000000000E+00  0.000000000E+00  2.217334908E+02  2.217334908E+02  0.000000000E+00  0.00000E+00  9.000E+00
       3    -1     0     0   514     0  0.000000000E+00  0.000000000E+00 -4.125674186E+00  4.125674186E+00  0.000000000E+00  0.00000E+00  9.000E+00
      21     1     1     2   514   512  1.579140532E+01 -5.242040173E+00  3.301357499E+01  3.696949554E+01  0.000000000E+00  0.00000E+00  9.000E+00
       3     1     1     2   511     0 -7.251186877E+00  1.511627790E+00  4.771016804E+00  8.824813372E+00  5.000000000E-01  0.00000E+00  9.000E+00
       2     1     1     2   512     0 -8.540218438E+00  3.730412383E+00  1.798232248E+02  1.800648561E+02  3.300000131E-01  0.00000E+00  9.000E+00
</event>
<event>
      5  10001  2.40292E+09  1.30052E+01 -1.00000E+00  1.83377E-01
      21    -1     0     0   513   514  0.000000000E+00  0.000000000E+00  9.270519918E+00  9.270519918E+00  0.000000000E+00  0.00000E+00  9.000E+00
      21    -1     0     0   515   513  0.000000000E+00  0.000000000E+00 -1.241766678E+02  1.241766678E+02  0.000000000E+00  0.00000E+00  9.000E+00
      21     1     1     2   516   514 -1.242638178E+01  1.647511878E+01 -6.528544278E+00  2.164408449E+01  7.444617746E-07  0.00000E+00  9.000E+00
      21     1     1     2   515   511  1.476010723E+01 -1.478556352E+01 -6.382229108E+01  6.715473545E+01  9.536743164E-07  0.00000E+00  9.000E+00
      21     1     1     2   511   516 -2.333725450E+00 -1.689555254E+00 -4.455531250E+01  4.464836776E+01  8.259061849E-07  0.00000E+00  9.000E+00
</event>
<event>
      5  10001  2.40292E+09  4.98608E+00 -1.00000E+00  2.42694E-01
      21    -1     0     0   512   515  0.000000000E+00  0.000000000E+00  1.077091369E+02  1.077091369E+02  0.000000000E+00  0.00000E+00  9.000E+00
      21    -1     0     0   514   516  0.000000000E+00  0.000000000E+00 -6.044285582E+00  6.044285582E+00  0.000000000E+00  0.00000E+00  9.000E+00
      21     1     1     2   512   516 -9.198360175E+00 -3.958430947E+00  9.829643746E+01  9.880520544E+01  1.348699152E-06  0.00000E+00  9.000E+00
      21     1     1     2   513   515  9.226859894E+00 -1.531147715E-01 -5.818361963E-01  9.246454510E+00  3.071049429E-07  0.00000E+00  9.000E+00
      21     1     1     2   514   513 -2.849971907E-02  4.111545719E+00  3.950250052E+00  5.701762526E+00  1.519626234E-07  0.00000E+00  9.000E+00
</event>
<event>
      5  10001  2.40292E+09  3.76879E+00 -1.00000E+00  2.69602E-01
      21    -1     0     0   511   512  0.000000000E+00  0.000000000E+00  3.188141830E+00  3.188141830E+00  0.000000000E+00  0.00000E+00  9.000E+00
      21    -1     0     0   514   517  0.000000000E+00  0.000000000E+00 -3.725822172E+02  3.725822172E+02  0.000000000E+00  0.00000E+00  9.000E+00
      21     1     1     2   511   517  8.556448654E-01  1.075348811E+01 -1.024721705E+02  1.030384169E+02  2.697398305E-06  0.00000E+00  9.000E+00
      21     1     1     2   514   513 -4.214687480E+00 -1.246245772E+01 -2.683716657E+02  2.686939288E+02  3.814697266E-06  0.00000E+00  9.000E+00
      21     1     1     2   513   512  3.359042615E+00  1.708969614E+00  1.449760858E+00  4.038013246E+00  2.987673529E-07  0.00000E+00  9.000E+00
</event>
<event>
      5  10001  2.40292E+09  2.08367E+01 -1.00000E+00  1.64873E-01
      21    -1     0     0   515   514  0.000000000E+00  0.000000000E+00  1.008287432E+02  1.008287432E+02  0.000000000E+00  0.00000E+00  9.000E+00
      21    -1     0     0   516   512  0.000000000E+00  0.000000000E+00 -1.152487690E+01  1.152487690E+01  0.000000000E+00  0.00000E+00  9.000E+00
      21     1     1     2   515   512  3.468690498E+00  1.074355385E+01  8.374682842E+01  8.450436103E+01  9.536743164E-07  0.00000E+00  9.000E+00
      21     1     1     2   511   514  5.411083531E+00 -1.597051161E+01  4.724888502E+00  1.751175712E+01  3.039252468E-07  0.00000E+00  9.000E+00
      21     1     1     2   516   511 -8.879774029E+00  5.226957754E+00  8.321493972E-01  1.033750196E+01  1.264405455E-07  0.00000E+00  9.000E+00
</event>
<event>
      5  10001  2.40292E+09  7.48689E+00 -1.00000E+00  2.11439E-01
      21    -1     0     0   516   512  0.000000000E+00  0.000000000E+00  2.628178100E+01  2.628178100E+01  0.000000000E+00  0.00000E+00  9.000E+00
      -4    -1     0     0     0   513  0.000000000E+00  0.000000000E+00 -1.307845476E+02  1.307845476E+02  0.000000000E+00  0.00000E+00  9.000E+00
      -4     1     1     2     0   511 -6.890092678E-01  1.865848277E+01 -1.206276502E+02  1.220733128E+02  1.500000000E+00  0.00000E+00  9.000E+00
      21     1     1     2   516   513  7.261137483E+00 -2.224198808E+01  1.375639646E+01  2.714163951E+01  6.743495762E-07  0.00000E+00  9.000E+00
      21     1     1     2   511   512 -6.572128215E+00  3.583505313E+00  2.368487054E+00  7.851376346E+00  4.214684851E-08  0.00000E+00  9.000E+00
</event>
<event>
      5  10001  2.40292E+09  5.05589E+00 -1.00000E+00  2.37588E-01
      21    -1     0     0   514   511  0.000000000E+00  0.000000000E+00  1.373124887E+01  1.373124887E+01  0.000000000E+00  0.00000E+00  9.000E+00
      21    -1     0     0   512   514  0.000000000E+00  0.000000000E+00 -1.656449474E+02  1.656449474E+02  0.000000000E+00  0.00000E+00  9.000E+00
      21     1     1     2   512   515 -9.617842006E+00 -9.859526504E-01 -1.577061054E+02  1.580021857E+02  2.697398305E-06  0.00000E+00  9.000E+00
      21     1     1     2   515   513  1.273921817E+01 -4.722335997E-01  9.807020788E+00  1.608379124E+01  1.059555342E-06  0.00000E+00  9.000E+00
      21     1     1     2   513   511 -3.121376159E+00  1.458186250E+00 -4.014613917E+00  5.290219387E+00  1.192092896E-07  0.00000E+00  9.000E+00
</event>
<event>
      5  10001  2.40292E+09  5.05499E+00 -1.00000E+00  2.37602E-01
      -4    -1     0     0     0   511  0.000000000E+00  0.000000000E+00  4.143139437E+01  4.143139437E+01  0.000000000E+00  0.00000E+00  9.000E+00
      21    -1     0     0   511   515  0.000000000E+00  0.000000000E+00 -2.905967808E+01  2.905967808E+01  0.000000000E+00  0.00000E+00  9.000E+00
      -4     1     1     2     0   512 -8.920852542E+00  7.041302219E-01  3.751692932E+01  3.859854136E+01  1.500000000E+00  0.00000E+00  9.000E+00
      21     1     1     2   512   514  1.302962421E+01 -3.644436907E+00 -2.232904882E+01  2.610822569E+01  5.331201500E-07  0.00000E+00  9.000E+00
      21     1     1     2   514   515 -4.108771671E+00  2.940306685E+00 -2.816164211E+00  5.784305396E+00  4.214684851E-08  0.00000E+00  9.000E+00
</event>
<event>
      5  10001  2.40292E+09  7.26595E+00 -1.00000E+00  2.13220E-01
      21    -1     0     0   513   512  0.000000000E+00  0.000000000E+00  2.817971471E+01  2.817971471E+01  0.000000000E+00  0.00000E+00  9.000E+00
      21    -1     0     0   511   516  0.000000000E+00  0.000000000E+00 -2.508869046E+01  2.508869046E+01  0.000000000E+00  0.00000E+00  9.000E+00
      21     1     1     2   513   516 -1.494374832E+01 -5.045426771E+00 -1.937515282E+01  2.498336430E+01  4.129530925E-07  0.00000E+00  9.000E+00
       1     1     1     2   511     0  5.245441015E+00  5.232355418E+00  1.093846703E+01  1.321556490E+01  3.300000131E-01  0.00000E+00  9.000E+00
      -1     1     1     2     0   512  9.698307302E+00 -1.869286472E-01  1.152771005E+01  1.506947596E+01  3.300000131E-01  0.00000E+00  9.000E+00
</event>
<event>
      5  10001  2.40292E+09  4.44442E+00 -1.00000E+00  2.53036E-01
      21    -1     0     0   514   511  0.000000000E+00  0.000000000E+00  1.606786233E+01  1.606786233E+01  0.000000000E+00  0.00000E+00  9.000E+00
      21    -1     0     0   512   514  0.000000000E+00  0.000000000E+00 -1.860269189E+01  1.860269189E+01  0.000000000E+00  0.00000E+00  9.000E+00
      21     1     1     2   512   515 -8.617664807E+00  9.215851516E+00 -1.260421962E+01  1.783430453E+01  0.000000000E+00  0.00000E+00  9.000E+00
      21     1     1     2   515   513  3.054135001E+00 -6.730618038E+00  5.217927713E+00  9.047415619E+00  1.332800375E-07  0.00000E+00  9.000E+00
      21     1     1     2   513   511  5.563529806E+00 -2.485233478E+00  4.851462347E+00  7.788834075E+00  5.960464478E-08  0.00000E+00  9.000E+00
</event>
<event>
      5  10001  2.40292E+09  6.10986E+00 -1.00000E+00  2.24177E-01
      21    -1     0     0   514   515  0.000000000E+00  0.000000000E+00  3.084414189E+02  3.084414189E+02  0.000000000E+00  0.00000E+00  9.000E+00
      21    -1     0     0   511   516  0.000000000E+00  0.000000000E+00 -1.816906186E+00  1.816906186E+00  0.000000000E+00  0.00000E+00  9.000E+00
      21     1     1     2   511   512 -1.112482325E+01  7.299088521E-01  1.991905272E+01  2.282680706E+01  5.840038640E-07  0.00000E+00  9.000E+00
      21     1     1     2   512   515  1.334057702E+01  4.964017045E+00  2.113319574E+02  2.118107851E+02  4.672030912E-06  0.00000E+00  9.000E+00
      21     1     1     2   514   516 -2.215753771E+00 -5.693925897E+00  7.537350258E+01  7.562073293E+01  1.348699152E-06  0.00000E+00  9.000E+00
</event>
<event>
      5  10001  2.40292E+09  9.53196E+00 -1.00000E+00  1.98135E-01
      -3    -1     0     0     0   513  0.000000000E+00  0.000000000E+00  1.917084404E+02  1.917084404E+02  0.000000000E+00  0.00000E+00  9.000E+00
      21    -1     0     0   511   515  0.000000000E+00  0.000000000E+00 -2.277580174E+01  2.277580174E+01  0.000000000E+00  0.00000E+00  9.000E+00
      -3     1     1     2     0   515 -8.284254127E+00  1.161040229E+01  1.083443388E+02  1.092802638E+02  5.000000000E-01  0.00000E+00  9.000E+00
      21     1     1     2   514   513 -5.896310075E-01 -1.509006037E+01  8.114852286E+01  8.254174912E+01  9.536743164E-07  0.00000E+00  9.000E+00
      21     1     1     2   511   514  8.873885135E+00  3.479658071E+00 -2.056022306E+01  2.266222915E+01  2.384185791E-07  0.00000E+00  9.000E+00
</event>
<event>
      5  10001  2.40292E+09  4.00247E+00 -1.00000E+00  2.63299E-01
       2    -1     0     0   512     0  0.000000000E+00  0.000000000E+00  1.942152326E+02  1.942152326E+02  0.000000000E+00  0.00000E+00  9.000E+00
      -1    -1     0     0     0   512  0.000000000E+00  0.000000000E+00 -8.735748103E-01  8.735748103E-01  0.000000000E+00  0.00000E+00  9.000E+00
      -1     1     1     2     0   511  1.111589250E+01  1.896746018E+00  1.035304035E+02  1.041432382E+02  3.300000131E-01  0.00000E+00  9.000E+00
       2     1     1     2   513     0 -1.138676590E+01 -3.805978558E+00  8.307574612E+01  8.393945678E+01  3.300000131E-01  0.00000E+00  9.000E+00
      21     1     1     2   511   513  2.708733991E-01  1.909232539E+00  6.735508154E+00  7.006112430E+00  1.460009660E-07  0.00000E+00  9.000E+00
</event>
<event>
      5  10001  2.40292E+09  5.10611E+00 -1.00000E+00  2.36847E-01
      21    -1     0     0   514   512  0.000000000E+00  0.000000000E+00  1.849614897E+03  1.849614897E+03  0.000000000E+00  0.00000E+00  9.000E+00
      21    -1     0     0   511   515  0.000000000E+00  0.000000000E+00 -4.717528092E-01  4.717528092E-01  0.000000000E+00  0.00000E+00  9.000E+00
      21     1     1     2   514   515  9.882624722E+00  3.315820444E+00  1.208223361E+02  1.212711748E+02  0.000000000E+00  0.00000E+00  9.000E+00
      21     1     1     2   511   513 -1.483816080E+01 -2.084976032E+00  2.307608169E+02  2.312467789E+02  4.672030912E-06  0.00000E+00  9.000E+00
      21     1     1     2   513   512  4.955536074E+00 -1.230844413E+00  1.497559991E+03  1.497568696E+03  0.000000000E+00  0.00000E+00  9.000E+00
</event>
<event>
      5  10001  2.40292E+09  8.31177E+00 -1.00000E+00  2.05458E-01
      21    -1     0     0   516   511  0.000000000E+00  0.000000000E+00  1.250321003E+02  1.250321003E+02  0.000000000E+00  0.00000E+00  9.000E+00
      21    -1     0     0   517   512  0.000000000E+00  0.000000000E+00 -4.113180498E+00  4.113180498E+00  0.000000000E+00  0.00000E+00  9.000E+00
      21     1     1     2   516   512 -1.290477026E+01 -8.900163776E+00  8.267880313E+01  8.415183003E+01  1.348699152E-06  0.00000E+00  9.000E+00
      21     1     1     2   514   511  1.685310813E+01  9.996990129E+00  3.223109912E+01  3.772016458E+01  8.259061849E-07  0.00000E+00  9.000E+00
      21     1     1     2   517   514 -3.948337874E+00 -1.096826353E+00  6.009017538E+00  7.273286175E+00  0.000000000E+00  0.00000E+00  9.000E+00
</event>
<event>
      5  10001  2.40292E+09  8.28569E+00 -1.00000E+00  2.05633E-01
      -4    -1     0     0     0   513  0.000000000E+00  0.000000000E+00  1.849405850E+02  1.849405850E+02  0.000000000E+00  0.00000E+00  9.000E+00
      21    -1     0     0   512   515  0.000000000E+00  0.000000000E+00 -6.218850416E+00  6.218850416E+00  0.000000000E+00  0.00000E+00  9.000E+00
      -4     1     1     2     0   511  6.265458712E+00  1.992868018E+00  1.584991717E+02  1.586425697E+02  1.500000000E+00  0.00000E+00  9.000E+00
      21     1     1     2   511   515 -1.406865724E+01  7.793815808E-01  4.577097048E+00  1.481500488E+01  1.788139343E-07  0.00000E+00  9.000E+00
      21     1     1     2   512   513  7.803198532E+00 -2.772249599E+00  1.564546582E+01  1.770186081E+01  2.920019320E-07  0.00000E+00  9.000E+00
</event>
<event>
      5  10001  2.40292E+09  6.76667E+00 -1.00000E+00  2.17583E-01
      21    -1     0     0   514   511  0.000000000E+00  0.000000000E+00  8.169511286E+01  8.169511286E+01  0.000000000E+00  0.00000E+00  9.000E+00
      21    -1     0     0   512   514  0.000000000E+00  0.000000000E+00 -7.541091651E+01  7.541091651E+01  0.000000000E+00  0.00000E+00  9.000E+00
      21     1     1     2   512   513  1.076914169E+01  2.314839972E+00 -7.281983141E+01  7.364822295E+01  0.000000000E+00  0.00000E+00  9.000E+00
      21     1     1     2   513   515 -5.686105108E+00  8.665026896E-02  7.736424948E+01  7.757297466E+01  1.907348633E-06  0.00000E+00  9.000E+00
      21     1     1     2   515   511 -5.083036586E+00 -2.401490241E+00  1.739778285E+00  5.884831756E+00  9.657056180E-08  0.00000E+00  9.000E+00
</event>
<event>
      5  10001  2.40292E+09  9.68005E+00 -1.00000E+00  1.97345E-01
      21    -1     0     0   516   513  0.000000000E+00  0.000000000E+00  1.098175084E+02  1.098175084E+02  0.000000000E+00  0.00000E+00  9.000E+00
      21    -1     0     0   512   511  0.000000000E+00  0.000000000E+00 -1.003402260E+02  1.003402260E+02  0.000000000E+00  0.00000E+00  9.000E+00
      21     1     1     2   516   511 -2.602944761E+00 -1.058236311E+01 -9.621368608E+01  9.682889610E+01  0.000000000E+00  0.00000E+00  9.000E+00
      21     1     1     2   514   513 -2.964783021E+00  8.313829131E+00  1.068432858E+02  1.072072638E+02  2.697398305E-06  0.00000E+00  9.000E+00
      21     1     1     2   512   514  5.567727782E+00  2.268533977E+00 -1.152317337E+00  6.121574496E+00  1.775678290E-07  0.00000E+00  9.000E+00
</event>
<event>
      5  10001  2.40292E+09  1.23414E+01 -1.00000E+00  1.85704E-01
      21    -1     0     0   515   511  0.000000000E+00  0.000000000E+00  1.471182703E+00  1.471182703E+00  0.000000000E+00  0.00000E+00  9.000E+00
      21    -1     0     0   512   517  0.000000000E+00  0.000000000E+00 -9.992157611E+01  9.992157611E+01  0.000000000E+00  0.00000E+00  9.000E+00
      21     1     1     2   515   517 -7.666774040E+00 -1.915382371E+00 -2.758688758E+01  2.869641929E+01  4.768371582E-07  0.00000E+00  9.000E+00
      21     1     1     2   513   511  6.137639846E+00 -2.379318454E+00 -6.467939604E+01  6.501350668E+01  0.000000000E+00  0.00000E+00  9.000E+00
      21     1     1     2   512   513  1.529134194E+00  4.294700825E+00 -6.184109790E+00  7.682832840E+00  1.192092896E-07  0.00000E+00  9.000E+00
</event>
<event>
      5  10001  2.40292E+09  1.16929E+01 -1.00000E+00  1.88166E-01
      21    -1     0     0   514   513  0.000000000E+00  0.000000000E+00  1.053529983E+02  1.053529983E+02  0.000000000E+00  0.00000E+00  9.000E+00
      21    -1     0     0   512   516  0.000000000E+00  0.000000000E+00 -3.740109568E+00  3.740109568E+00  0.000000000E+00  0.00000E+00  9.000E+00
      21     1     1     2   514   516  3.635128722E+00  1.507789751E+01  7.602059912E+01  7.758665249E+01  1.651812370E-06  0.00000E+00  9.000E+00
      21     1     1     2   511   513 -1.875652295E+00 -8.549718303E+00  2.236045506E+01  2.401261554E+01  3.371747881E-07  0.00000E+00  9.000E+00
      21     1     1     2   512   511 -1.759476427E+00 -6.528179207E+00  3.231834565E+00  7.493839851E+00  3.424026159E-07  0.00000E+00  9.000E+00
</event>
<event>
      5  10001  2.40292E+09  9.61055E+00 -1.00000E+00  1.97713E-01
      21    -1     0     0   515   513  0.000000000E+00  0.000000000E+00  6.052164376E+01  6.052164376E+01  0.000000000E+00  0.00000E+00  9.000E+00
      21    -1     0     0   514   515  0.000000000E+00  0.000000000E+00 -2.032159822E+01  2.032159822E+01  0.000000000E+00  0.00000E+00  9.000E+00
      21     1     1     2   511   513 -1.403051973E+01 -4.501452617E+00  5.333800981E+01  5.533590019E+01  6.743495762E-07  0.00000E+00  9.000E+00
      21     1     1     2   512   511  6.333847265E+00 -1.253882490E+00 -1.443156738E+01  1.581012269E+01  3.371747881E-07  0.00000E+00  9.000E+00
      21     1     1     2   514   512  7.696672464E+00  5.755335107E+00  1.293603113E+00  9.697219098E+00  1.246720592E-07  0.00000E+00  9.000E+00
</event>
<event>
      5  10001  2.40292E+09  2.12631E+01 -1.00000E+00  1.64163E-01
      21    -1     0     0   516   512  0.000000000E+00  0.000000000E+00  9.098036557E+00  9.098036557E+00  0.000000000E+00  0.00000E+00  9.000E+00
      21    -1     0     0   513   517  0.000000000E+00  0.000000000E+00 -1.447678958E+01  1.447678958E+01  0.000000000E+00  0.00000E+00  9.000E+00
      21     1     1     2   516   517  4.300604394E+00 -2.734616311E+00  6.755044633E-01  5.140975666E+00  1.134838627E-07  0.00000E+00  9.000E+00
      21     1     1     2   511   512  6.576614988E-02 -6.111191129E+00  1.149609718E+00  6.218728544E+00  5.161913656E-08  0.00000E+00  9.000E+00
      21     1     1     2   513   511 -4.366370544E+00  8.845807439E+00 -7.203867203E+00  1.221512193E+01  1.884864366E-07  0.00000E+00  9.000E+00
</event>
<event>
      5  10001  2.40292E+09  7.51930E+00 -1.00000E+00  2.11184E-01
      21    -1     0     0   514   511  0.000000000E+00  0.000000000E+00  8.028246709E+01  8.028246709E+01  0.000000000E+00  0.00000E+00  9.000E+00
      21    -1     0     0   513   512  0.000000000E+00  0.000000000E+00 -3.023655093E+01  3.023655093E+01  0.000000000E+00  0.00000E+00  9.000E+00
      21     1     1     2   514   515  1.358824563E+01  8.656525214E+00  1.260454844E+01  2.045606242E+01  5.057621821E-07  0.00000E+00  9.000E+00
      21     1     1     2   513   511 -6.076115327E+00 -8.328140864E+00  6.278584908E+01  6.362656641E+01  9.536743164E-07  0.00000E+00  9.000E+00
      21     1     1     2   515   512 -7.512130305E+00 -3.283843500E-01 -2.534448137E+01  2.643638920E+01  3.371747881E-07  0.00000E+00  9.000E+00
</event>
<event>
      5  10001  2.40292E+09  5.99179E+00 -1.00000E+00  2.25486E-01
      21    -1     0     0   516   512  0.000000000E+00  0.000000000E+00  2.430278721E+01  2.430278721E+01  0.000000000E+00  0.00000E+00  9.000E+00
      21    -1     0     0   515   517  0.000000000E+00  0.000000000E+00 -1.344660649E+01  1.344660649E+01  0.000000000E+00  0.00000E+00  9.000E+00
      21     1     1     2   516   517 -1.835936046E-02 -1.797228221E+01  5.168533054E+00  1.870072188E+01  4.616955931E-07  0.00000E+00  9.000E+00
      21     1     1     2   515   511 -8.121081142E-01  2.962186853E+00  1.632058452E+00  3.478172700E+00  6.322027277E-08  0.00000E+00  9.000E+00
      21     1     1     2   511   512  8.304674747E-01  1.501009536E+01  4.055589212E+00  1.557049912E+01  2.528810911E-07  0.00000E+00  9.000E+00
</event>
<event>
      5  10001  2.40292E+09  4.44130E+00 -1.00000E+00  2.53102E-01
      21    -1     0     0   511   512  0.000000000E+00  0.000000000E+00  1.847023161E+02  1.847023161E+02  0.000000000E+00  0.00000E+00  9.000E+00
      -1    -1     0     0     0   513  0.000000000E+00  0.000000000E+00 -2.569373232E+00  2.569373232E+00  0.000000000E+00  0.00000E+00  9.000E+00
      -1     1     1     2     0   514  1.152142405E+01 -9.218386277E+00  5.407690125E+01  5.605481252E+01  3.300000131E-01  0.00000E+00  9.000E+00
      21     1     1     2   511   513 -1.417625492E+01  1.592617551E+01  9.091630223E+01  9.338299246E+01  1.348699152E-06  0.00000E+00  9.000E+00
      21     1     1     2   514   512  2.654830872E+00 -6.707789229E+00  3.713973938E+01  3.783388434E+01  4.768371582E-07  0.00000E+00  9.000E+00
</event>
<event>
      5  10001  2.40292E+09  1.17337E+01 -1.00000E+00  1.88005E-01
      21    -1     0     0   513   512  0.000000000E+00  0.000000000E+00  2.252126805E+01  2.252126805E+01  0.000000000E+00  0.00000E+00  9.000E+00
      -1    -1     0     0     0   515  0.000000000E+00  0.000000000E+00 -5.189165982E+01  5.189165982E+01  0.000000000E+00  0.00000E+00  9.000E+00
      -1     1     1     2     0   511 -8.775843353E-01 -5.168693328E+00 -4.726585715E+01  4.755686803E+01  3.300000131E-01  0.00000E+00  9.000E+00
      21     1     1     2   513   515 -2.068180547E+00  1.076687971E+01  1.732741240E+01  2.050468946E+01  2.384185791E-07  0.00000E+00  9.000E+00
      21     1     1     2   511   512  2.945764882E+00 -5.598186383E+00  5.680529763E-01  6.351370380E+00  1.268788156E-07  0.00000E+00  9.000E+00
</event>
<event>
      5  10001  2.40292E+09  5.72719E+00 -1.00000E+00  2.28576E-01
      21    -1     0     0   513   515  0.000000000E+00  0.000000000E+00  5.072373587E+01  5.072373587E+01  0.000000000E+00  0.00000E+00  9.000E+00
      21    -1     0     0   512   514  0.000000000E+00  0.000000000E+00 -2.040047352E+01  2.040047352E+01  0.000000000E+00  0.00000E+00  9.000E+00
      21     1     1     2   516   515  5.947476766E+00 -9.199460667E+00 -1.163398103E+01  1.597973939E+01  2.384185791E-07  0.00000E+00  9.000E+00
      21     1     1     2   512   516 -1.059721340E+01  5.855710654E+00 -6.778699392E-01  1.212640865E+01  2.860479626E-07  0.00000E+00  9.000E+00
      21     1     1     2   513   514  4.649736638E+00  3.343750014E+00  4.263511332E+01  4.301806135E+01  4.768371582E-07  0.00000E+00  9.000E+00
</event>
<event>
      5  10001  2.40292E+09  1.49845E+01 -1.00000E+00  1.77378E-01
      21    -1     0     0   512   515  0.000000000E+00  0.000000000E+00  3.358487598E+01  3.358487598E+01  0.000000000E+00  0.00000E+00  9.000E+00
       3    -1     0     0   515     0  0.000000000E+00  0.000000000E+00 -4.305681824E+01  4.305681824E+01  0.000000000E+00  0.00000E+00  9.000E+00
      21     1     1     2   512   516 -1.696000046E+01  1.115904120E+01  8.907666049E+00  2.217007737E+01  3.371747881E-07  0.00000E+00  9.000E+00
       3     1     1     2   511     0  2.147268608E+01 -8.503029888E+00 -3.223626131E+01  3.965859690E+01  5.000000000E-01  0.00000E+00  9.000E+00
      21     1     1     2   516   511 -4.512685624E+00 -2.656011311E+00  1.385665300E+01  1.481301995E+01  2.384185791E-07  0.00000E+00  9.000E+00
</event>
<event>
      5  10001  2.40292E+09  5.47710E+00 -1.00000E+00  2.31720E-01
       2    -1     0     0   514     0  0.000000000E+00  0.000000000E+00  3.136643623E+02  3.136643623E+02  0.000000000E+00  0.00000E+00  9.000E+00
      21    -1     0     0   513   511  0.000000000E+00  0.000000000E+00 -3.954967406E+00  3.954967406E+00  0.000000000E+00  0.00000E+00  9.000E+00
      21     1     1     2   514   511 -2.284224672E-01 -1.024067562E+01  2.994116732E+00  1.067184843E+01  2.021291847E-07  0.00000E+00  9.000E+00
       2     1     1     2   512     0  3.289848133E-01  2.799807202E+00  1.744091371E+02  1.744322309E+02  3.300000131E-01  0.00000E+00  9.000E+00
      21     1     1     2   513   512 -1.005623461E-01  7.440868415E+00  1.323061411E+02  1.325152505E+02  1.907348633E-06  0.00000E+00  9.000E+00
</event>
<event>
      5  10001  2.40292E+09  5.91003E+00 -1.00000E+00  2.26416E-01
      21    -1     0     0   513   511  0.000000000E+00  0.000000000E+00  1.942672736E+00  1.942672736E+00  0.000000000E+00  0.00000E+00  9.000E+00
       2    -1     0     0   515     0  0.000000000E+00  0.000000000E+00 -3.011311599E+02  3.011311599E+02  0.000000000E+00  0.00000E+00  9.000E+00
      21     1     1     2   515   512  1.090943295E+01 -1.119247036E+01 -1.735337873E+02  1.742362260E+02  2.697398305E-06  0.00000E+00  9.000E+00
       2     1     1     2   513     0 -1.418350559E+01  6.272715813E+00 -1.187082283E+02  1.197174639E+02  3.300000131E-01  0.00000E+00  9.000E+00
      21     1     1     2   512   511  3.274072641E+00  4.919754544E+00 -6.946471603E+00  9.120142771E+00  1.685873940E-07  0.00000E+00  9.000E+00
</event>
<event>
      5  10001  2.40292E+09  9.60481E+00 -1.00000E+00  1.97744E-01
      21    -1     0     0   512   515  0.000000000E+00  0.000000000E+00  5.227386385E+02  5.227386385E+02  0.000000000E+00  0.00000E+00  9.000E+00
      21    -1     0     0   514   513  0.000000000E+00  0.000000000E+00 -5.073488193E+00  5.073488193E+00  0.000000000E+00  0.00000E+00  9.000E+00
      21     1     1     2   512   513  1.435604551E+01 -9.956994777E+00  1.190084266E+01  2.113924889E+01  7.152557373E-07  0.00000E+00  9.000E+00
       1     1     1     2   514     0 -1.299564742E+01  4.494912547E-01  1.062861554E+02  1.070791512E+02  3.300000131E-01  0.00000E+00  9.000E+00
      -1     1     1     2     0   515 -1.360398098E+00  9.507503523E+00  3.994781523E+02  3.995937266E+02  3.300000131E-01  0.00000E+00  9.000E+00
</event>
<event>
      5  10001  2.40292E+09  8.50552E+00 -1.00000E+00  2.04187E-01
      21    -1     0     0   514   515  0.000000000E+00  0.000000000E+00  6.814273429E+00  6.814273429E+00  0.000000000E+00  0.00000E+00  9.000E+00
       2    -1     0     0   515     0  0.000000000E+00  0.000000000E+00 -5.575004001E+02  5.575004001E+02  0.000000000E+00  0.00000E+00  9.000E+00
      21     1     1     2   514   511 -8.999155399E+00 -4.623822350E+00  2.454523029E+00  1.041101409E+01  2.250025998E-07  0.00000E+00  9.000E+00
       2     1     1     2   512     0  4.859011877E+00  7.619268795E-01 -5.318567977E+02  5.318796411E+02  3.300000131E-01  0.00000E+00  9.000E+00
      21     1     1     2   511   512  4.140143521E+00  3.861895470E+00 -2.128385203E+01  2.202401830E+01  4.768371582E-07  0.00000E+00  9.000E+00
</event>
<event>
      5  10001  2.40292E+09  2.30368E+01 -1.00000E+00  1.61419E-01
      21    -1     0     0   513   516  0.000000000E+00  0.000000000E+00  4.188979785E+01  4.188979785E+01  0.000000000E+00  0.00000E+00  9.000E+00
      21    -1     0     0   515   513  0.000000000E+00  0.000000000E+00 -6.143358989E+00  6.143358989E+00  0.000000000E+00  0.00000E+00  9.000E+00
      21     1     1     2   512   516 -1.603017189E+00 -4.738488441E+00  1.074900665E+01  1.185597237E+01  1.192092896E-07  0.00000E+00  9.000E+00
      21     1     1     2   514   512  5.563944558E-01  2.469215129E+00 -5.249153617E+00  5.827539090E+00  1.976862425E-07  0.00000E+00  9.000E+00
      21     1     1     2   515   514  1.046622733E+00  2.269273311E+00  3.024658583E+01  3.034964538E+01  5.840038640E-07  0.00000E+00  9.000E+00
</event>
<event>
      5  10001  2.40292E+09  1.67298E+01 -1.00000E+00  1.72986E-01
      -1    -1     0     0     0   511  0.000000000E+00  0.000000000E+00  1.479678485E-01  1.479678485E-01  0.000000000E+00  0.00000E+00  9.000E+00
      21    -1     0     0   512   513  0.000000000E+00  0.000000000E+00 -9.118859241E+02  9.118859241E+02  0.000000000E+00  0.00000E+00  9.000E+00
      -1     1     1     2     0   513 -3.529666585E+00  3.338917850E+00 -2.985148175E+02  2.985545378E+02  3.300000131E-01  0.00000E+00  9.000E+00
      -4     1     1     2     0   511 -1.632944873E+00 -8.161895084E-01 -1.218983268E+01  1.241671032E+01  1.500000000E+00  0.00000E+00  9.000E+00
       4     1     1     2   512     0  5.162611458E+00 -2.522728341E+00 -6.010333061E+02  6.010626438E+02  1.500000000E+00  0.00000E+00  9.000E+00
</event>
<event>
      5  10001  2.40292E+09  1.10614E+01 -1.00000E+00  1.90770E-01
      21    -1     0     0   514   513  0.000000000E+00  0.000000000E+00  2.936726082E+00  2.936726082E+00  0.000000000E+00  0.00000E+00  9.000E+00
      21    -1     0     0   512   515  0.000000000E+00  0.000000000E+00 -6.241883676E+01  6.241883676E+01  0.000000000E+00  0.00000E+00  9.000E+00
      21     1     1     2   514   515  5.058295869E+00 -8.566986902E+00 -1.713882274E+01  1.981713568E+01  3.371747881E-07  0.00000E+00  9.000E+00
       5     1     1     2   512     0 -6.155177556E+00  2.289841202E+00 -1.510758637E+01  1.715834349E+01  4.800000191E+00  0.00000E+00  9.000E+00
      -5     1     1     2     0   513  1.096881687E+00  6.277145700E+00 -2.723570157E+01  2.838008368E+01  4.800000191E+00  0.00000E+00  9.000E+00
</event>
<event>
      5  10001  2.40292E+09  1.40502E+01 -1.00000E+00  1.80053E-01
      21    -1     0     0   511   512  0.000000000E+00  0.000000000E+00  2.157019612E+01  2.157019612E+01  0.000000000E+00  0.00000E+00  9.000E+00
      21    -1     0     0   516   513  0.000000000E+00  0.000000000E+00 -6.212544108E+01  6.212544108E+01  0.000000000E+00  0.00000E+00  9.000E+00
      21     1     1     2   511   513 -1.180278879E+01 -7.475764286E+00  1.720042425E+01  2.215959091E+01  3.371747881E-07  0.00000E+00  9.000E+00
      21     1     1     2   516   514  7.633629270E+00  1.191551161E+01 -3.071653132E+01  3.381947677E+01  3.371747881E-07  0.00000E+00  9.000E+00
      21     1     1     2   514   512  4.169159520E+00 -4.439747322E+00 -2.703913789E+01  2.771656951E+01  0.000000000E+00  0.00000E+00  9.000E+00
</event>
<event>
      5  10001  2.40292E+09  5.60311E+00 -1.00000E+00  2.30107E-01
      21    -1     0     0   515   514  0.000000000E+00  0.000000000E+00  8.799047985E+00  8.799047985E+00  0.000000000E+00  0.00000E+00  9.000E+00
      21    -1     0     0   512   515  0.000000000E+00  0.000000000E+00 -1.958830490E+01  1.958830490E+01  0.000000000E+00  0.00000E+00  9.000E+00
      21     1     1     2   516   514 -7.680043171E-01 -9.650150558E+00  3.524326207E+00  1.030223819E+01  2.827296549E-07  0.00000E+00  9.000E+00
      21     1     1     2   512   511 -8.176794308E-01  3.074107880E+00 -8.803102809E+00  9.360200745E+00  0.000000000E+00  0.00000E+00  9.000E+00
      21     1     1     2   511   516  1.585683748E+00  6.576042678E+00 -5.510480314E+00  8.724913956E+00  1.032382731E-07  0.00000E+00  9.000E+00
</event>
<event>
      5  10001  2.40292E+09  1.40224E+01 -1.00000E+00  1.80137E-01
      21    -1     0     0   513   514  0.000000000E+00  0.000000000E+00  7.156334883E+01  7.156334883E+01  0.000000000E+00  0.00000E+00  9.000E+00
      21    -1     0     0   517   513  0.000000000E+00  0.000000000E+00 -4.524341490E+01  4.524341490E+01  0.000000000E+00  0.00000E+00  9.000E+00
      21     1     1     2   512   511 -2.707961228E+01 -1.557986656E+01  7.361905321E+00  3.209727859E+01  2.665600750E-07  0.00000E+00  9.000E+00
      21     1     1     2   517   512  2.252048166E+01  2.319364876E+00 -2.782409293E+01  3.587104257E+01  4.768371582E-07  0.00000E+00  9.000E+00
      21     1     1     2   511   514  4.559130612E+00  1.326050168E+01  4.678212154E+01  4.883844257E+01  6.743495762E-07  0.00000E+00  9.000E+00
</event>
<event>
      5  10001  2.40292E+09  2.21866E+00 -1.00000E+00  3.43084E-01
       2    -1     0     0   512     0  0.000000000E+00  0.000000000E+00  4.256393893E+02  4.256393893E+02  0.000000000E+00  0.00000E+00  9.000E+00
      -4    -1     0     0     0   512  0.000000000E+00  0.000000000E+00 -7.738115696E-01  7.738115696E-01  0.000000000E+00  0.00000E+00  9.000E+00
      21     1     1     2   515   513  5.924892850E+00  1.164820552E-01  2.283792816E+01  2.359425536E+01  4.768371582E-07  0.00000E+00  9.000E+00
       2     1     1     2   513     0 -1.245856014E+01 -5.879265184E-01  3.631849488E+02  3.633991983E+02  3.300000131E-01  0.00000E+00  9.000E+00
      -4     1     1     2     0   515  6.533667294E+00  4.714444632E-01  3.884270075E+01  3.941974720E+01  1.500000000E+00  0.00000E+00  9.000E+00
</event>
<event>
      5  10001  2.40292E+09  6.67624E+00 -1.00000E+00  2.18429E-01
      -1    -1     0     0     0   511  0.000000000E+00  0.000000000E+00  4.294094946E+02  4.294094946E+02  0.000000000E+00  0.00000E+00  9.000E+00
      21    -1     0     0   514   513  0.000000000E+00  0.000000000E+00 -1.501640185E+00  1.501640185E+00  0.000000000E+00  0.00000E+00  9.000E+00
      -1     1     1     2     0   512 -9.444379504E-01 -1.106231465E+01  3.482923046E+02  3.484693747E+02  3.300000131E-01  0.00000E+00  9.000E+00
      21     1     1     2   514   511  7.501380811E+00  1.231706149E+01  6.046108996E+01  6.215725313E+01  1.168007728E-06  0.00000E+00  9.000E+00
      21     1     1     2   512   513 -6.556942861E+00 -1.254746846E+00  1.915445979E+01  2.028450688E+01  7.152557373E-07  0.00000E+00  9.000E+00
</event>
<event>
      5  10001  2.40292E+09  3.06922E+00 -1.00000E+00  2.93757E-01
       4    -1     0     0   512     0  0.000000000E+00  0.000000000E+00  1.163713278E+00  1.163713278E+00  0.000000000E+00  0.00000E+00  9.000E+00
       1    -1     0     0   515     0  0.000000000E+00  0.000000000E+00 -3.415017877E+02  3.415017877E+02  0.000000000E+00  0.00000E+00  9.000E+00
      21     1     1     2   512   513  4.624742816E+00  9.509251200E+00 -4.670321013E+01  4.788532072E+01  1.168007728E-06  0.00000E+00  9.000E+00
       4     1     1     2   515     0 -5.396043591E+00 -1.247343619E+01 -8.269033863E+01  8.381316125E+01  1.500000000E+00  0.00000E+00  9.000E+00
       1     1     1     2   513     0  7.713007744E-01  2.964184993E+00 -2.109445257E+02  2.109670190E+02  3.300000131E-01  0.00000E+00  9.000E+00
</event>
<event>
      5  10001  2.40292E+09  6.23871E+00 -1.00000E+00  2.22796E-01
      21    -1     0     0   511   513  0.000000000E+00  0.000000000E+00  1.359612185E+01  1.359612185E+01  0.000000000E+00  0.00000E+00  9.000E+00
      21    -1     0     0   514   511  0.000000000E+00  0.000000000E+00 -1.418918760E+01  1.418918760E+01  0.000000000E+00  0.00000E+00  9.000E+00
      21     1     1     2   514   516 -4.182538637E+00  8.172232503E+00 -6.119135785E+00  1.103280727E+01  1.884864366E-07  0.00000E+00  9.000E+00
      -5     1     1     2     0   513  4.479804107E+00 -4.034985074E+00  6.805021536E+00  1.028095663E+01  4.800000191E+00  0.00000E+00  9.000E+00
       5     1     1     2   516     0 -2.972654704E-01 -4.137247429E+00 -1.278951501E+00  6.471545551E+00  4.800000191E+00  0.00000E+00  9.000E+00
</event>
<event>
      5  10001  2.40292E+09  4.21062E+00 -1.00000E+00  2.58223E-01
      21    -1     0     0   512   516  0.000000000E+00  0.000000000E+00  1.457490584E+01  1.457490584E+01  0.000000000E+00  0.00000E+00  9.000E+00
      21    -1     0     0   514   515  0.000000000E+00  0.000000000E+00 -2.237991587E+01  2.237991587E+01  0.000000000E+00  0.00000E+00  9.000E+00
      21     1     1     2   512   515  1.082130350E+01  3.885722895E+00  1.007936013E+01  1.529028948E+01  1.685873940E-07  0.00000E+00  9.000E+00
       2     1     1     2   514     0 -6.598371262E+00 -2.759814256E+00 -7.379846036E+00  1.028232005E+01  3.300000131E-01  0.00000E+00  9.000E+00
      -2     1     1     2     0   516 -4.222932239E+00 -1.125908639E+00 -1.050452412E+01  1.138221217E+01  3.300000131E-01  0.00000E+00  9.000E+00
</event>
<event>
      5  10001  2.40292E+09  2.38208E+01 -1.00000E+00  1.60300E-01
      21    -1     0     0   513   514  0.000000000E+00  0.000000000E+00  6.769240230E+01  6.769240230E+01  0.000000000E+00  0.00000E+00  9.000E+00
       1    -1     0     0   514     0  0.000000000E+00  0.000000000E+00 -1.680574851E+02  1.680574851E+02  0.000000000E+00  0.00000E+00  9.000E+00
      21     1     1     2   513   511 -1.094227458E-01 -1.448493174E+01  6.640741490E+01  6.796888976E+01  9.536743164E-07  0.00000E+00  9.000E+00
       1     1     1     2   512     0  3.762282141E+00  4.211352300E-01 -3.040874229E+01  3.064527091E+01  3.300000131E-01  0.00000E+00  9.000E+00
      21     1     1     2   511   512 -3.652859395E+00  1.406379651E+01 -1.363637554E+02  1.371357267E+02  2.697398305E-06  0.00000E+00  9.000E+00
</event>
<event>
      5  10001  2.40292E+09  9.20071E+00 -1.00000E+00  1.99973E-01
      21    -1     0     0   515   512  0.000000000E+00  0.000000000E+00  2.174592202E+01  2.174592202E+01  0.000000000E+00  0.00000E+00  9.000E+00
      21    -1     0     0   511   516  0.000000000E+00  0.000000000E+00 -8.495025492E+00  8.495025492E+00  0.000000000E+00  0.00000E+00  9.000E+00
      21     1     1     2   515   516  4.265475257E+00 -7.469919849E+00  9.923359839E+00  1.313267118E+01  1.192092896E-07  0.00000E+00  9.000E+00
      21     1     1     2   513   512 -8.446106375E+00  5.811235785E+00 -1.667300276E+00  1.038686981E+01  1.999200562E-07  0.00000E+00  9.000E+00
      21     1     1     2   511   513  4.180631118E+00  1.658684064E+00  4.994836965E+00  6.721406525E+00  1.192092896E-07  0.00000E+00  9.000E+00
</event>
<event>
      5  10001  2.40292E+09  4.91696E+00 -1.00000E+00  2.43902E-01
      21    -1     0     0   514   513  0.000000000E+00  0.000000000E+00  4.361222534E+00  4.361222534E+00  0.000000000E+00  0.00000E+00  9.000E+00
       3    -1     0     0   511     0  0.000000000E+00  0.000000000E+00 -1.188674184E+02  1.188674184E+02  0.000000000E+00  0.00000E+00  9.000E+00
      21     1     1     2   511   517 -9.925885497E+00  7.319118656E+00 -2.831643329E+01  3.088548356E+01  0.000000000E+00  0.00000E+00  9.000E+00
      21     1     1     2   517   513  5.037596494E+00 -7.841497020E+00 -4.231088527E+00  1.023565162E+01  5.960464478E-08  0.00000E+00  9.000E+00
       3     1     1     2   514     0  4.888289002E+00  5.223783632E-01 -8.195867402E+01  8.210750572E+01  5.000000000E-01  0.00000E+00  9.000E+00
</event>
<event>
      5  10001  2.40292E+09  8.71892E+00 -1.00000E+00  2.02838E-01
      21    -1     0     0   511   515  0.000000000E+00  0.000000000E+00  2.377331564E+01  2.377331564E+01  0.000000000E+00  0.00000E+00  9.000E+00
      -1    -1     0     0     0   512  0.000000000E+00  0.000000000E+00 -2.205066487E+02  2.205066487E+02  0.000000000E+00  0.00000E+00  9.000E+00
      -1     1     1     2     0   513 -1.695114848E+01  5.975581257E+00 -1.642371715E+02  1.652180571E+02  3.300000131E-01  0.00000E+00  9.000E+00
      21     1     1     2   511   512  1.895043638E+01 -1.446211770E+01 -5.227102226E+01  5.745025375E+01  9.536743164E-07  0.00000E+00  9.000E+00
      21     1     1     2   513   515 -1.999287905E+00  8.486536439E+00  1.977486066E+01  2.161165350E+01  4.129530925E-07  0.00000E+00  9.000E+00
</event>
<event>
      5  10001  2.40292E+09  4.64935E+00 -1.00000E+00  2.48873E-01
      21    -1     0     0   514   516  0.000000000E+00  0.000000000E+00  1.601190188E+02  1.601190188E+02  0.000000000E+00  0.00000E+00  9.000E+00
      21    -1     0     0   513   515  0.000000000E+00  0.000000000E+00 -1.796887109E+00  1.796887109E+00  0.000000000E+00  0.00000E+00  9.000E+00
      21     1     1     2   514   515  9.668772024E+00  3.104450477E+00  1.482209560E+01  1.796711672E+01  4.768371582E-07  0.00000E+00  9.000E+00
      21     1     1     2   513   511 -7.356639877E+00 -1.589689980E+00  7.135944501E+01  7.175526222E+01  0.000000000E+00  0.00000E+00  9.000E+00
      21     1     1     2   511   516 -2.312132148E+00 -1.514760497E+00  7.214059104E+01  7.219352693E+01  1.651812370E-06  0.00000E+00  9.000E+00
</event>
<event>
      5  10001  2.40292E+09  3.86906E+00 -1.00000E+00  2.66812E-01
      21    -1     0     0   512   514  0.000000000E+00  0.000000000E+00  6.320497263E+02  6.320497263E+02  0.000000000E+00  0.00000E+00  9.000E+00
      21    -1     0     0   516   512  0.000000000E+00  0.000000000E+00 -1.281001732E+01  1.281001732E+01  0.000000000E+00  0.00000E+00  9.000E+00
      21     1     1     2   516   517  6.236748641E+00 -1.119753479E+01 -8.679234261E+00  1.547937099E+01  1.685873940E-07  0.00000E+00  9.000E+00
      21     1     1     2   517   513 -8.038574376E+00  7.773641162E+00  4.243605439E+01  4.388469992E+01  4.768371582E-07  0.00000E+00  9.000E+00
      21     1     1     2   513   514  1.801825735E+00  3.423893627E+00  5.854828888E+02  5.854956727E+02  1.078959322E-05  0.00000E+00  9.000E+00
</event>
<event>
      5  10001  2.40292E+09  9.42761E+00 -1.00000E+00  1.98703E-01
      21    -1     0     0   511   513  0.000000000E+00  0.000000000E+00  3.874128598E-01  3.874128598E-01  0.000000000E+00  0.00000E+00  9.000E+00
       1    -1     0     0   514     0  0.000000000E+00  0.000000000E+00 -5.005842059E+02  5.005842059E+02  0.000000000E+00  0.00000E+00  9.000E+00
      21     1     1     2   514   513 -1.028805850E+01 -1.448993685E+00 -3.140338623E+02  3.142056817E+02  0.000000000E+00  0.00000E+00  9.000E+00
      21     1     1     2   511   512  3.882331408E+00  3.265167321E+00 -2.756080202E+01  2.802376889E+01  1.066240300E-06  0.00000E+00  9.000E+00
       1     1     1     2   512     0  6.405727097E+00 -1.816173636E+00 -1.586021286E+02  1.587421681E+02  3.300000131E-01  0.00000E+00  9.000E+00
</event>
<event>
      5  10001  2.40292E+09  6.17562E+00 -1.00000E+00  2.23466E-01
      21    -1     0     0   515   513  0.000000000E+00  0.000000000E+00  1.123009628E+01  1.123009628E+01  0.000000000E+00  0.00000E+00  9.000E+00
      21    -1     0     0   516   515  0.000000000E+00  0.000000000E+00 -3.371145609E+01  3.371145609E+01  0.000000000E+00  0.00000E+00  9.000E+00
      21     1     1     2   516   514 -9.760617556E+00 -1.649264612E+00 -2.670259020E+01  2.847837868E+01  0.000000000E+00  0.00000E+00  9.000E+00
      21     1     1     2   514   511  5.897466642E+00  1.526823160E+00  8.653260398E+00  1.058254304E+01  4.915124924E-07  0.00000E+00  9.000E+00
      21     1     1     2   511   513  3.863150914E+00  1.224414527E-01 -4.432030006E+00  5.880630653E+00  8.429369702E-08  0.00000E+00  9.000E+00
</event>
<event>
      5  10001  2.40292E+09  5.64485E+01 -1.00000E+00  1.36107E-01
      21    -1     0     0   512   514  0.000000000E+00  0.000000000E+00  5.056120339E+00  5.056120339E+00  0.000000000E+00  0.00000E+00  9.000E+00
      21    -1     0     0   516   513  0.000000000E+00  0.000000000E+00 -1.610336841E+02  1.610336841E+02  0.000000000E+00  0.00000E+00  9.000E+00
      21     1     1     2   512   513  4.908466724E+00  7.017585238E-01 -1.488395392E+00  5.176951946E+00  2.259872986E-07  0.00000E+00  9.000E+00
      21     1     1     2   516   515  1.643941898E+00  2.378188300E+00  2.460446304E+00  3.796329882E+00  2.546311541E-07  0.00000E+00  9.000E+00
      21     1     1     2   515   514 -6.552408623E+00 -3.079946823E+00 -1.569496147E+02  1.571165227E+02  1.907348633E-06  0.00000E+00  9.000E+00
</event>
<event>
      5  10001  2.40292E+09  1.30103E+01 -1.00000E+00  1.83360E-01
       2    -1     0     0   513     0  0.000000000E+00  0.000000000E+00  2.996201577E+02  2.996201577E+02  0.000000000E+00  0.00000E+00  9.000E+00
      21    -1     0     0   511   515  0.000000000E+00  0.000000000E+00 -6.363701993E+00  6.363701993E+00  0.000000000E+00  0.00000E+00  9.000E+00
      21     1     1     2   513   515 -5.562224310E+00 -9.248351591E+00  2.911958753E+02  2.913957930E+02  3.814697266E-06  0.00000E+00  9.000E+00
      21     1     1     2   511   512 -2.492402820E+00  4.333541408E+00  6.249492871E-01  5.038076474E+00  3.300195126E-07  0.00000E+00  9.000E+00
       2     1     1     2   512     0  8.054627130E+00  4.914810183E+00  1.435631092E+00  9.549990261E+00  3.300000131E-01  0.00000E+00  9.000E+00
</event>
<event>
      5  10001  2.40292E+09  9.61169E+00 -1.00000E+00  1.97707E-01
       2    -1     0     0   513     0  0.000000000E+00  0.000000000E+00  1.643606062E+02  1.643606062E+02  0.000000000E+00  0.00000E+00  9.000E+00
      21    -1     0     0   514   513  0.000000000E+00  0.000000000E+00 -3.730053652E+00  3.730053652E+00  0.000000000E+00  0.00000E+00  9.000E+00
      21     1     1     2   514   512 -3.413602268E+00  1.063053638E+01  8.027866716E+00  1.375164093E+01  4.915124924E-07  0.00000E+00  9.000E+00
       2     1     1     2   511     0  7.199769006E+00 -8.792322707E+00  1.464142956E+02  1.468550186E+02  3.300000131E-01  0.00000E+00  9.000E+00
      21     1     1     2   512   511 -3.786166738E+00 -1.838213672E+00  6.188390173E+00  7.484000334E+00  1.460009660E-07  0.00000E+00  9.000E+00
</event>
<event>
      5  10001  2.40292E+09  1.05087E+01 -1.00000E+00  1.93242E-01
      21    -1     0     0   515   511  0.000000000E+00  0.000000000E+00  1.855736951E+01  1.855736951E+01  0.000000000E+00  0.00000E+00  9.000E+00
       2    -1     0     0   512     0  0.000000000E+00  0.000000000E+00 -7.147674593E+00  7.147674593E+00  0.000000000E+00  0.00000E+00  9.000E+00
      21     1     1     2   512   511 -9.883322098E+00 -2.164347219E+00  4.151740695E+00  1.093624275E+01  2.308477966E-07  0.00000E+00  9.000E+00
       2     1     1     2   513     0  3.057514063E+00  5.714047637E-01 -1.567412852E+00  3.498653842E+00  3.300000131E-01  0.00000E+00  9.000E+00
      21     1     1     2   515   513  6.825808035E+00  1.592942456E+00  8.825367072E+00  1.127014751E+01  1.192092896E-07  0.00000E+00  9.000E+00
</event>
<event>
      5  10001  2.40292E+09  5.82331E+00 -1.00000E+00  2.27427E-01
      21    -1     0     0   514   512  0.000000000E+00  0.000000000E+00  7.733703444E+00  7.733703444E+00  0.000000000E+00  0.00000E+00  9.000E+00
      21    -1     0     0   511   517  0.000000000E+00  0.000000000E+00 -2.752952972E+02  2.752952972E+02  0.000000000E+00  0.00000E+00  9.000E+00
      21     1     1     2   514   516  1.028430699E+00 -1.261442427E+01  2.081162698E+00  1.282624682E+01  7.468440584E-07  0.00000E+00  9.000E+00
      21     1     1     2   511   512  4.460171341E+00  1.066862513E+01 -1.801923385E+02  1.805629850E+02  3.814697266E-06  0.00000E+00  9.000E+00
      21     1     1     2   516   517 -5.488602040E+00  1.945799135E+00 -8.945041798E+01  8.963976888E+01  0.000000000E+00  0.00000E+00  9.000E+00
</event>
<event>
      5  10001  2.40292E+09  1.01764E+01 -1.00000E+00  1.94825E-01
      21    -1     0     0   513   512  0.000000000E+00  0.000000000E+00  1.662978889E+01  1.662978889E+01  0.000000000E+00  0.00000E+00  9.000E+00
      21    -1     0     0   516   515  0.000000000E+00  0.000000000E+00 -5.058904998E+01  5.058904998E+01  0.000000000E+00  0.00000E+00  9.000E+00
      21     1     1     2   513   515  1.490706423E+01  1.365174281E+01 -2.774778741E+01  3.432972985E+01  3.371747881E-07  0.00000E+00  9.000E+00
      21     1     1     2   516   511 -1.053006660E+01 -4.464739660E+00 -1.539696247E+01  1.918026737E+01  1.685873940E-07  0.00000E+00  9.000E+00
      21     1     1     2   511   512 -4.376997631E+00 -9.187003146E+00  9.185488790E+00  1.370884165E+01  2.384185791E-07  0.00000E+00  9.000E+00
</event>
<event>
      5  10001  2.40292E+09  4.16987E+00 -1.00000E+00  2.59181E-01
      21    -1     0     0   513   515  0.000000000E+00  0.000000000E+00  6.229048748E+01  6.229048748E+01  0.000000000E+00  0.00000E+00  9.000E+00
      21    -1     0     0   512   514  0.000000000E+00  0.000000000E+00 -6.804948842E+02  6.804948842E+02  0.000000000E+00  0.00000E+00  9.000E+00
      21     1     1     2   512   517  1.141376798E+01  4.359886520E+00 -6.298194341E+02  6.299379352E+02  1.321449896E-05  0.00000E+00  9.000E+00
      21     1     1     2   517   515 -1.511266853E+01 -2.434799940E+00 -4.938605065E+01  5.170399404E+01  1.507891493E-06  0.00000E+00  9.000E+00
      21     1     1     2   513   514  3.698900547E+00 -1.925086580E+00  6.100108795E+01  6.114344245E+01  2.697398305E-06  0.00000E+00  9.000E+00
</event>
<event>
      5  10001  2.40292E+09  1.09183E+01 -1.00000E+00  1.91392E-01
      21    -1     0     0   514   512  0.000000000E+00  0.000000000E+00  3.867500656E+02  3.867500656E+02  0.000000000E+00  0.00000E+00  9.000E+00
      21    -1     0     0   511   514  0.000000000E+00  0.000000000E+00 -3.455088286E-01  3.455088286E-01  0.000000000E+00  0.00000E+00  9.000E+00
      -3     1     1     2     0   512 -8.720158389E-01 -1.016378346E+01  2.756228069E+02  2.758119733E+02  5.000000000E-01  0.00000E+00  9.000E+00
      21     1     1     2   511   515  5.744000799E-01  2.695986252E-01  7.972038576E+00  7.997250648E+00  8.429369702E-08  0.00000E+00  9.000E+00
       3     1     1     2   515     0  2.976157590E-01  9.894184839E+00  1.028097113E+02  1.032863505E+02  5.000000000E-01  0.00000E+00  9.000E+00
</event>
<event>
      5  10001  2.40292E+09  1.69704E+01 -1.00000E+00  1.72434E-01
      21    -1     0     0   513   511  0.000000000E+00  0.000000000E+00  1.502571452E+02  1.502571452E+02  0.000000000E+00  0.00000E+00  9.000E+00
       2    -1     0     0   512     0  0.000000000E+00  0.000000000E+00 -8.523461674E+00  8.523461674E+00  0.000000000E+00  0.00000E+00  9.000E+00
      21     1     1     2   514   511 -3.710822789E+00 -5.730747299E+00 -1.788900786E+00  7.057750095E+00  3.082776199E-07  0.00000E+00  9.000E+00
       2     1     1     2   513     0 -7.052773531E+00  1.690530706E+01  1.295631836E+02  1.308520480E+02  3.300000131E-01  0.00000E+00  9.000E+00
      21     1     1     2   512   514  1.076359632E+01 -1.117455976E+01  1.395940077E+01  2.087080884E+01  0.000000000E+00  0.00000E+00  9.000E+00
</event>
<event>
      5  10001  2.40292E+09  5.04514E+00 -1.00000E+00  2.37749E-01
      21    -1     0     0   515   511  0.000000000E+00  0.000000000E+00  1.047521711E+02  1.047521711E+02  0.000000000E+00  0.00000E+00  9.000E+00
      21    -1     0     0   512   515  0.000000000E+00  0.000000000E+00 -6.296619096E+00  6.296619096E+00  0.000000000E+00  0.00000E+00  9.000E+00
      21     1     1     2   512   514  1.376535226E+01  1.342186056E+01  1.319391916E+01  2.331760636E+01  4.768371582E-07  0.00000E+00  9.000E+00
      21     1     1     2   513   511 -1.003176238E+01 -6.781903697E+00  6.425377834E+01  6.538484920E+01  9.536743164E-07  0.00000E+00  9.000E+00
      21     1     1     2   514   513 -3.733589882E+00 -6.639956867E+00  2.100785454E+01  2.234633467E+01  0.000000000E+00  0.00000E+00  9.000E+00
</event>
<event>
      5  10001  2.40292E+09  7.69668E+00 -1.00000E+00  2.09822E-01
      21    -1     0     0   516   511  0.000000000E+00  0.000000000E+00  3.599566317E+01  3.599566317E+01  0.000000000E+00  0.00000E+00  9.000E+00
      21    -1     0     0   511   513  0.000000000E+00  0.000000000E+00 -3.468800772E+00  3.468800772E+00  0.000000000E+00  0.00000E+00  9.000E+00
      -3     1     1     2     0   512 -6.929178368E-01  5.019171528E+00  4.104709137E-01  5.107906061E+00  5.000000000E-01  0.00000E+00  9.000E+00
       3     1     1     2   516     0  8.888715637E-01 -8.356492910E+00  1.833230602E+01  2.017286570E+01  5.000000000E-01  0.00000E+00  9.000E+00
      21     1     1     2   512   513 -1.959537269E-01  3.337321382E+00  1.378408547E+01  1.418369219E+01  1.685873940E-07  0.00000E+00  9.000E+00
</event>
<event>
      5  10001  2.40292E+09  2.75463E+01 -1.00000E+00  1.55623E-01
      21    -1     0     0   514   515  0.000000000E+00  0.000000000E+00  1.042338330E+02  1.042338330E+02  0.000000000E+00  0.00000E+00  9.000E+00
      21    -1     0     0   511   514  0.000000000E+00  0.000000000E+00 -4.271513605E+00  4.271513605E+00  0.000000000E+00  0.00000E+00  9.000E+00
      21     1     1     2   513   515  9.035215682E+00 -6.914638020E+00  5.517080788E+01  5.633174402E+01  0.000000000E+00  0.00000E+00  9.000E+00
      21     1     1     2   516   513 -1.051649797E+01  9.537863803E-01  4.480387784E+01  4.603144477E+01  0.000000000E+00  0.00000E+00  9.000E+00
      21     1     1     2   511   516  1.481282285E+00  5.960851640E+00 -1.236635193E-02  6.142157797E+00  3.235892398E-07  0.00000E+00  9.000E+00
</event>
<event>
      5  10001  2.40292E+09  8.71665E+00 -1.00000E+00  2.02852E-01
      21    -1     0     0   513   515  0.000000000E+00  0.000000000E+00  2.243662275E+01  2.243662275E+01  0.000000000E+00  0.00000E+00  9.000E+00
      21    -1     0     0   511   517  0.000000000E+00  0.000000000E+00 -2.822806510E+01  2.822806510E+01  0.000000000E+00  0.00000E+00  9.000E+00
      21     1     1     2   512   517  1.567054339E+01  3.567212612E+00  1.294857541E+01  2.063871462E+01  3.371747881E-07  0.00000E+00  9.000E+00
      21     1     1     2   511   515 -7.291837734E+00 -1.163623357E+00 -1.990623753E+01  2.123165584E+01  2.384185791E-07  0.00000E+00  9.000E+00
      21     1     1     2   513   512 -8.378705659E+00 -2.403589255E+00  1.166219768E+00  8.794317391E+00  1.775678290E-07  0.00000E+00  9.000E+00
</event>
<event>
      5  10001  2.40292E+09  8.56421E+00 -1.00000E+00  2.03811E-01
       2    -1     0     0   514     0  0.000000000E+00  0.000000000E+00  4.947930874E+02  4.947930874E+02  0.000000000E+00  0.00000E+00  9.000E+00
      21    -1     0     0   516   514  0.000000000E+00  0.000000000E+00 -1.459470403E+01  1.459470403E+01  0.000000000E+00  0.00000E+00  9.000E+00
      21     1     1     2   511   512  1.338938975E+01  1.406286955E-01  4.920301450E+01  5.099247170E+01  9.536743164E-07  0.00000E+00  9.000E+00
      21     1     1     2   516   511 -6.372354990E+00 -5.050447180E+00 -1.244845005E+01  1.486868634E+01  4.129530925E-07  0.00000E+00  9.000E+00
       2     1     1     2   512     0 -7.017034761E+00  4.909818485E+00  4.434438190E+02  4.435266334E+02  3.300000131E-01  0.00000E+00  9.000E+00
</event>
<event>
      5  10001  2.40292E+09  1.00497E+01 -1.00000E+00  1.95450E-01
      21    -1     0     0   512   511  0.000000000E+00  0.000000000E+00  8.736316806E-01  8.736316806E-01  0.000000000E+00  0.00000E+00  9.000E+00
       2    -1     0     0   511     0  0.000000000E+00  0.000000000E+00 -8.906613804E+02  8.906613804E+02  0.000000000E+00  0.00000E+00  9.000E+00
      21     1     1     2   514   513  2.741214178E+00  5.111652342E+00 -1.208533696E+01  1.340517118E+01  1.192092896E-06  0.00000E+00  9.000E+00
       2     1     1     2   513     0 -1.116255548E+01 -6.517807918E+00 -7.632099866E+02  7.633195117E+02  3.300000131E-01  0.00000E+00  9.000E+00
      21     1     1     2   512   514  8.421341305E+00  1.406155577E+00 -1.144924252E+02  1.148103292E+02  1.348699152E-06  0.00000E+00  9.000E+00
</event>
<event>
      5  10001  2.40292E+09  1.12808E+01 -1.00000E+00  1.89840E-01
      21    -1     0     0   515   511  0.000000000E+00  0.000000000E+00  7.785255334E+01  7.785255334E+01  0.000000000E+00  0.00000E+00  9.000E+00
      -5    -1     0     0     0   514  0.000000000E+00  0.000000000E+00 -4.490128589E+00  4.490128589E+00  0.000000000E+00  0.00000E+00  9.000E+00
      -5     1     1     2     0   513 -2.849989371E-01 -5.091074520E+00 -6.306511090E-01  7.031215173E+00  4.800000191E+00  0.00000E+00  9.000E+00
      21     1     1     2   515   514  5.810599555E+00  5.297904284E+00  5.393495717E+01  5.450514161E+01  6.743495762E-07  0.00000E+00  9.000E+00
      21     1     1     2   513   511 -5.525600618E+00 -2.068297646E-01  2.005811870E+01  2.080632515E+01  2.384185791E-07  0.00000E+00  9.000E+00
</event>
<event>
      5  10001  2.40292E+09  1.99110E+01 -1.00000E+00  1.66487E-01
      21    -1     0     0   512   514  0.000000000E+00  0.000000000E+00  2.681293718E+01  2.681293718E+01  0.000000000E+00  0.00000E+00  9.000E+00
      21    -1     0     0   511   512  0.000000000E+00  0.000000000E+00 -7.113462195E+01  7.113462195E+01  0.000000000E+00  0.00000E+00  9.000E+00
      21     1     1     2   511   516  6.712384842E+00 -1.435829280E+01 -4.888402601E+01  5.138934405E+01  0.000000000E+00  0.00000E+00  9.000E+00
      21     1     1     2   516   513  1.314532960E+01  1.581365715E+01  1.363920397E+01  2.467588555E+01  3.769728732E-07  0.00000E+00  9.000E+00
      21     1     1     2   513   514 -1.985771444E+01 -1.455364345E+00 -9.076862733E+00  2.188232952E+01  4.460403188E-07  0.00000E+00  9.000E+00
</event>
<event>
      5  10001  2.40292E+09  2.45247E+01 -1.00000E+00  1.59340E-01
      21    -1     0     0   515   511  0.000000000E+00  0.000000000E+00  2.043469951E+02  2.043469951E+02  0.000000000E+00  0.00000E+00  9.000E+00
      21    -1     0     0   513   515  0.000000000E+00  0.000000000E+00 -9.078214313E-01  9.078214313E-01  0.000000000E+00  0.00000E+00  9.000E+00
      -4     1     1     2     0   511 -1.060181330E-01  2.620009798E+00  2.437727472E+01  2.456373779E+01  1.500000000E+00  0.00000E+00  9.000E+00
      21     1     1     2   513   512  3.609760912E-01  2.619549561E-01 -7.376461615E-01  8.620011584E-01  7.300048300E-08  0.00000E+00  9.000E+00
       4     1     1     2   512     0 -2.549579582E-01 -2.881964754E+00  1.797995451E+02  1.798290776E+02  1.500000000E+00  0.00000E+00  9.000E+00
</event>
<event>
      5  10001  2.40292E+09  2.14966E+01 -1.00000E+00  1.63784E-01
      21    -1     0     0   514   513  0.000000000E+00  0.000000000E+00  5.004309318E+01  5.004309318E+01  0.000000000E+00  0.00000E+00  9.000E+00
      21    -1     0     0   511   516  0.000000000E+00  0.000000000E+00 -5.039161334E+00  5.039161334E+00  0.000000000E+00  0.00000E+00  9.000E+00
      21     1     1     2   514   516 -4.313029268E+00 -2.260068782E+00  1.746460745E+01  1.813071002E+01  3.371747881E-07  0.00000E+00  9.000E+00
      21     1     1     2   511   515  3.161025730E+00 -5.423149383E+00 -1.856865972E+00  6.546035757E+00  2.384185791E-07  0.00000E+00  9.000E+00
      21     1     1     2   515   513  1.152003539E+00  7.683218165E+00  2.939619037E+01  3.040550874E+01  3.371747881E-07  0.00000E+00  9.000E+00
</event>
<event>
      5  10001  2.40292E+09  8.85265E+00 -1.00000E+00  2.02019E-01
      21    -1     0     0   512   511  0.000000000E+00  0.000000000E+00  3.151760333E+02  3.151760333E+02  0.000000000E+00  0.00000E+00  9.000E+00
      21    -1     0     0   513   512  0.000000000E+00  0.000000000E+00 -6.622791178E+00  6.622791178E+00  0.000000000E+00  0.00000E+00  9.000E+00
      21     1     1     2   513   517  3.726260369E+00 -9.648966088E+00 -2.231464917E+00  1.058144596E+01  6.143906155E-07  0.00000E+00  9.000E+00
      21     1     1     2   514   511 -8.411437184E+00  7.405222454E+00  2.093173219E+02  2.096171053E+02  4.672030912E-06  0.00000E+00  9.000E+00
      21     1     1     2   517   514  4.685176815E+00  2.243743634E+00  1.014673851E+02  1.016002732E+02  2.336015456E-06  0.00000E+00  9.000E+00
</event>
<event>
      5  10001  2.40292E+09  2.86861E+00 -1.00000E+00  3.02752E-01
      21    -1     0     0   515   514  0.000000000E+00  0.000000000E+00  1.438636465E+01  1.438636465E+01  0.000000000E+00  0.00000E+00  9.000E+00
      21    -1     0     0   516   515  0.000000000E+00  0.000000000E+00 -2.082194344E+01  2.082194344E+01  0.000000000E+00  0.00000E+00  9.000E+00
      21     1     1     2   516   513 -2.828480130E+00  1.092977931E+01 -1.640809611E+01  1.991697752E+01  0.000000000E+00  0.00000E+00  9.000E+00
      21     1     1     2   511   514  2.365250628E+00 -5.416973805E+00  3.926179674E+00  7.095977915E+00  1.460009660E-07  0.00000E+00  9.000E+00
      21     1     1     2   513   511  4.632295021E-01 -5.512805510E+00  6.046337643E+00  8.195352650E+00  1.192092896E-07  0.00000E+00  9.000E+00
</event>
<event>
      5  10001  2.40292E+09  1.97781E+01 -1.00000E+00  1.66728E-01
      21    -1     0     0   511   514  0.000000000E+00  0.000000000E+00  4.156816387E+02  4.156816387E+02  0.000000000E+00  0.00000E+00  9.000E+00
      -4    -1     0     0     0   511  0.000000000E+00  0.000000000E+00 -4.152700775E+00  4.152700775E+00  0.000000000E+00  0.00000E+00  9.000E+00
      -1     1     1     2     0   514 -3.963866759E+00 -1.785208212E+01  3.136977494E+02  3.142304822E+02  3.300000131E-01  0.00000E+00  9.000E+00
       1     1     1     2   512     0  1.688851868E+01  2.893943921E+00  6.526645701E+01  6.747900625E+01  3.300000131E-01  0.00000E+00  9.000E+00
      -4     1     1     2     0   512 -1.292465192E+01  1.495813820E+01  3.256473156E+01  3.812485104E+01  1.500000000E+00  0.00000E+00  9.000E+00
</event>
<event>
      5  10001  2.40292E+09  3.82961E+00 -1.00000E+00  2.67894E-01
      21    -1     0     0   513   512  0.000000000E+00  0.000000000E+00  1.479215602E+02  1.479215602E+02  0.000000000E+00  0.00000E+00  9.000E+00
      21    -1     0     0   511   515  0.000000000E+00  0.000000000E+00 -1.317499686E+02  1.317499686E+02  0.000000000E+00  0.00000E+00  9.000E+00
      21     1     1     2   513   515  1.220641561E+01  1.219483941E+01  1.382787014E+01  2.211155089E+01  8.596304120E-07  0.00000E+00  9.000E+00
      21     1     1     2   514   512 -1.062661960E+01 -8.706268572E+00  1.295598894E+02  1.302861815E+02  0.000000000E+00  0.00000E+00  9.000E+00
      21     1     1     2   511   514 -1.579796013E+00 -3.488570833E+00 -1.272161679E+02  1.272737964E+02  2.336015456E-06  0.00000E+00  9.000E+00
</event>
<event>
      5  10001  2.40292E+09  6.42717E+00 -1.00000E+00  2.20856E-01
      21    -1     0     0   516   514  0.000000000E+00  0.000000000E+00  6.941038488E+00  6.941038488E+00  0.000000000E+00  0.00000E+00  9.000E+00
      21    -1     0     0   512   517  0.000000000E+00  0.000000000E+00 -6.385386098E+01  6.385386098E+01  0.000000000E+00  0.00000E+00  9.000E+00
      21     1     1     2   516   517  1.050607884E+01 -1.421569753E+01 -3.785533223E+01  4.177906087E+01  4.768371582E-07  0.00000E+00  9.000E+00
      21     1     1     2   511   514 -1.245358521E+01  8.090692857E+00 -9.977705856E+00  1.789149825E+01  3.153981341E-07  0.00000E+00  9.000E+00
      21     1     1     2   512   511  1.947506371E+00  6.125004677E+00 -9.079784397E+00  1.112434034E+01  0.000000000E+00  0.00000E+00  9.000E+00
</event>
<event>
      5  10001  2.40292E+09  1.03173E+01 -1.00000E+00  1.94144E-01
      21    -1     0     0   513   511  0.000000000E+00  0.000000000E+00  4.198801561E+01  4.198801561E+01  0.000000000E+00  0.00000E+00  9.000E+00
      21    -1     0     0   512   515  0.000000000E+00  0.000000000E+00 -1.222231826E+02  1.222231826E+02  0.000000000E+00  0.00000E+00  9.000E+00
      21     1     1     2   513   515 -7.565245953E+00  6.312750802E+00  3.887792287E+01  4.010706491E+01  0.000000000E+00  0.00000E+00  9.000E+00
      21     1     1     2   514   511  1.412029846E+01 -5.883544400E+00 -1.156895009E+02  1.166964418E+02  0.000000000E+00  0.00000E+00  9.000E+00
      21     1     1     2   512   514 -6.555052503E+00 -4.292064015E-01 -3.423589013E+00  7.407691488E+00  1.397852826E-07  0.00000E+00  9.000E+00
</event>
<event>
      5  10001  2.40292E+09  9.52435E+00 -1.00000E+00  1.98176E-01
      21    -1     0     0   516   514  0.000000000E+00  0.000000000E+00  2.204424698E+01  2.204424698E+01  0.000000000E+00  0.00000E+00  9.000E+00
      21    -1     0     0   512   517  0.000000000E+00  0.000000000E+00 -9.310186500E+00  9.310186500E+00  0.000000000E+00  0.00000E+00  9.000E+00
      21     1     1     2   516   517 -1.410117596E+00  1.024576676E+01 -4.131166232E+00  1.113690722E+01  1.685873940E-07  0.00000E+00  9.000E+00
      21     1     1     2   512   511 -8.695767661E-01 -2.108451325E+00  1.656816487E+00  2.819001883E+00  4.712160915E-08  0.00000E+00  9.000E+00
      21     1     1     2   511   514  2.279694362E+00 -8.137315432E+00  1.520841023E+01  1.739852438E+01  0.000000000E+00  0.00000E+00  9.000E+00
</event>
<event>
      5  10001  2.40292E+09  4.32379E+00 -1.00000E+00  2.55650E-01
      21    -1     0     0   513   516  0.000000000E+00  0.000000000E+00  1.677869384E+02  1.677869384E+02  0.000000000E+00  0.00000E+00  9.000E+00
      21    -1     0     0   515   514  0.000000000E+00  0.000000000E+00 -2.121347975E+02  2.121347975E+02  0.000000000E+00  0.00000E+00  9.000E+00
      21     1     1     2   513   514  5.637114644E+00 -9.284234863E+00 -1.821787807E+02  1.825022800E+02  3.814697266E-06  0.00000E+00  9.000E+00
      21     1     1     2   515   512 -9.081437139E+00  6.670471037E+00 -2.869983186E+01  3.083258071E+01  5.840038640E-07  0.00000E+00  9.000E+00
      21     1     1     2   512   516  3.444322495E+00  2.613763826E+00  1.665307535E+02  1.665868751E+02  1.907348633E-06  0.00000E+00  9.000E+00
</event>
<event>
      5  10001  2.40292E+09  6.01520E+00 -1.00000E+00  2.25223E-01
      -4    -1     0     0     0   511  0.000000000E+00  0.000000000E+00  1.401713689E+01  1.401713689E+01  0.000000000E+00  0.00000E+00  9.000E+00
      -3    -1     0     0     0   512  0.000000000E+00  0.000000000E+00 -3.763965794E+01  3.763965794E+01  0.000000000E+00  0.00000E+00  9.000E+00
      -4     1     1     2     0   512 -6.863142155E+00 -1.152789613E+01  7.568523116E+00  1.547668089E+01  1.500000000E+00  0.00000E+00  9.000E+00
      -3     1     1     2     0   513  5.805621180E+00  7.199153369E+00 -3.023615151E+01  3.162290159E+01  5.000000000E-01  0.00000E+00  9.000E+00
      21     1     1     2   513   511  1.057520974E+00  4.328742756E+00 -9.548926538E-01  4.557212354E+00  6.746787681E-08  0.00000E+00  9.000E+00
</event>
<event>
      5  10001  2.40292E+09  3.07544E+00 -1.00000E+00  2.93497E-01
      -4    -1     0     0     0   511  0.000000000E+00  0.000000000E+00  8.773698474E+01  8.773698474E+01  0.000000000E+00  0.00000E+00  9.000E+00
      -2    -1     0     0     0   512  0.000000000E+00  0.000000000E+00 -2.314362116E+00  2.314362116E+00  0.000000000E+00  0.00000E+00  9.000E+00
      -4     1     1     2     0   513 -4.379268386E+00 -8.326239152E+00  3.929952646E+01  4.043769318E+01  1.500000000E+00  0.00000E+00  9.000E+00
      -2     1     1     2     0   511  2.813610083E+00  1.095851084E+01  4.491841320E+01  4.632254425E+01  3.300000131E-01  0.00000E+00  9.000E+00
      21     1     1     2   513   512  1.565658303E+00 -2.632271691E+00  1.204682967E+00  3.291109422E+00  8.688795410E-08  0.00000E+00  9.000E+00
</event>
<event>
      5  10001  2.40292E+09  4.99300E+00 -1.00000E+00  2.42575E-01
      21    -1     0     0   514   511  0.000000000E+00  0.000000000E+00  3.998532482E-01  3.998532482E-01  0.000000000E+00  0.00000E+00  9.000E+00
      21    -1     0     0   513   515  0.000000000E+00  0.000000000E+00 -5.627592103E+02  5.627592103E+02  0.000000000E+00  0.00000E+00  9.000E+00
      21     1     1     2   514   515 -8.987863810E+00  1.935325133E+00 -1.437537994E+02  1.440474992E+02  4.264961200E-06  0.00000E+00  9.000E+00
      21     1     1     2   513   512  1.274055376E+01  1.358215977E+00 -3.753777954E+02  3.755964001E+02  0.000000000E+00  0.00000E+00  9.000E+00
      21     1     1     2   512   511 -3.752689948E+00 -3.293541110E+00 -4.322776225E+01  4.351516430E+01  9.536743164E-07  0.00000E+00  9.000E+00
</event>
<event>
      5  10001  2.40292E+09  5.78007E+00 -1.00000E+00  2.27940E-01
      21    -1     0     0   512   511  0.000000000E+00  0.000000000E+00  2.037216377E+00  2.037216377E+00  0.000000000E+00  0.00000E+00  9.000E+00
      -2    -1     0     0     0   516  0.000000000E+00  0.000000000E+00 -9.306153824E+01  9.306153824E+01  0.000000000E+00  0.00000E+00  9.000E+00
      21     1     1     2   513   511  8.906357028E-01  4.327293708E+00 -1.944201871E+01  1.993767274E+01  4.129530925E-07  0.00000E+00  9.000E+00
      21     1     1     2   512   516  2.515271668E+00 -1.189614038E+01 -2.449607268E+01  2.734780291E+01  3.371747881E-07  0.00000E+00  9.000E+00
      -2     1     1     2     0   513 -3.405907371E+00  7.568846671E+00 -4.708623048E+01  4.781327897E+01  3.300000131E-01  0.00000E+00  9.000E+00
</event>
<event>
      5  10001  2.40292E+09  9.17892E+00 -1.00000E+00  2.00098E-01
       1    -1     0     0   513     0  0.000000000E+00  0.000000000E+00  8.125814272E+01  8.125814272E+01  0.000000000E+00  0.00000E+00  9.000E+00
      21    -1     0     0   511   513  0.000000000E+00  0.000000000E+00 -5.483866497E+01  5.483866497E+01  0.000000000E+00  0.00000E+00  9.000E+00
      21     1     1     2   512   514 -8.162653720E+00 -4.982609217E+00 -1.032238957E+01  1.407149732E+01  6.419616708E-07  0.00000E+00  9.000E+00
       1     1     1     2   514     0  1.625442278E+01  6.496104193E-01  7.804067060E+01  7.971877709E+01  3.300000131E-01  0.00000E+00  9.000E+00
      21     1     1     2   511   512 -8.091769065E+00  4.332998798E+00 -4.129880328E+01  4.230653327E+01  6.743495762E-07  0.00000E+00  9.000E+00
</event>
<event>
      5  10001  2.40292E+09  6.33293E+00 -1.00000E+00  2.21814E-01
      21    -1     0     0   515   514  0.000000000E+00  0.000000000E+00  8.658413413E+01  8.658413413E+01  0.000000000E+00  0.00000E+00  9.000E+00
       4    -1     0     0   511     0  0.000000000E+00  0.000000000E+00 -7.598572363E+01  7.598572363E+01  0.000000000E+00  0.00000E+00  9.000E+00
      21     1     1     2   515   512 -8.666757740E+00  1.091961108E+01 -8.090700229E+00  1.611862358E+01  5.591411304E-07  0.00000E+00  9.000E+00
      21     1     1     2   511   514  5.660750607E+00 -5.346298063E+00  8.222003213E+01  8.258789672E+01  1.907348633E-06  0.00000E+00  9.000E+00
       4     1     1     2   512     0  3.006007132E+00 -5.573313018E+00 -6.353092141E+01  6.386333746E+01  1.500000000E+00  0.00000E+00  9.000E+00
</event>
<event>
      5  10001  2.40292E+09  1.70121E+01 -1.00000E+00  1.72339E-01
       2    -1     0     0   511     0  0.000000000E+00  0.000000000E+00  2.246537959E-01  2.246537959E-01  0.000000000E+00  0.00000E+00  9.000E+00
      21    -1     0     0   513   516  0.000000000E+00  0.000000000E+00 -5.476060874E+02  5.476060874E+02  0.000000000E+00  0.00000E+00  9.000E+00
      21     1     1     2   511   516  2.259275468E+00  3.050688151E+00 -5.930226551E+01  5.942364612E+01  0.000000000E+00  0.00000E+00  9.000E+00
      21     1     1     2   513   514  2.649968523E+00 -1.147327233E+00 -4.445521985E+02  4.445615772E+02  5.394796609E-06  0.00000E+00  9.000E+00
       2     1     1     2   514     0 -4.909243991E+00 -1.903360918E+00 -4.352696959E+01  4.384551792E+01  3.300000131E-01  0.00000E+00  9.000E+00
</event>
<event>
      5  10001  2.40292E+09  2.79821E+00 -1.00000E+00  3.06207E-01
      -3    -1     0     0     0   512  0.000000000E+00  0.000000000E+00  3.876948020E+02  3.876948020E+02  0.000000000E+00  0.00000E+00  9.000E+00
      21    -1     0     0   511   513  0.000000000E+00  0.000000000E+00 -2.527062899E+01  2.527062899E+01  0.000000000E+00  0.00000E+00  9.000E+00
      -3     1     1     2     0   514  6.208812604E+00  1.101388275E+01  3.780807458E+02  3.782924204E+02  5.000000000E-01  0.00000E+00  9.000E+00
      21     1     1     2   511   512 -3.457928344E+00 -1.152626019E+01  5.571733918E+00  1.326107693E+01  1.181616044E-06  0.00000E+00  9.000E+00
      21     1     1     2   514   513 -2.750884260E+00  5.123774391E-01 -2.122830675E+01  2.141193364E+01  8.596304120E-07  0.00000E+00  9.000E+00
</event>
<event>
      5  10001  2.40292E+09  8.76070E+00 -1.00000E+00  2.02580E-01
      21    -1     0     0   515   511  0.000000000E+00  0.000000000E+00  4.322050807E+02  4.322050807E+02  0.000000000E+00  0.00000E+00  9.000E+00
      21    -1     0     0   514   516  0.000000000E+00  0.000000000E+00 -2.550490894E+01  2.550490894E+01  0.000000000E+00  0.00000E+00  9.000E+00
      21     1     1     2   515   516 -4.014171222E+00 -1.141799883E+01 -2.373071353E+01  2.663890074E+01  3.371747881E-07  0.00000E+00  9.000E+00
      21     1     1     2   512   511  7.301543433E+00  3.646296172E+00  3.658770945E+02  3.659681083E+02  0.000000000E+00  0.00000E+00  9.000E+00
      21     1     1     2   514   512 -3.287372211E+00  7.771702653E+00  6.455379082E+01  6.510298063E+01  9.536743164E-07  0.00000E+00  9.000E+00
</event>
<event>
      5  10001  2.40292E+09  7.01147E+00 -1.00000E+00  2.15382E-01
      21    -1     0     0   512   511  0.000000000E+00  0.000000000E+00  1.859171140E+02  1.859171140E+02  0.000000000E+00  0.00000E+00  9.000E+00
      21    -1     0     0   515   512  0.000000000E+00  0.000000000E+00 -8.607504047E+00  8.607504047E+00  0.000000000E+00  0.00000E+00  9.000E+00
      -1     1     1     2     0   511  8.699532702E+00  2.792127511E+00  1.123125483E+02  1.126840506E+02  3.300000131E-01  0.00000E+00  9.000E+00
       1     1     1     2   513     0 -1.542759451E+01 -4.763890035E+00  7.087491151E+01  7.269159031E+01  3.300000131E-01  0.00000E+00  9.000E+00
      21     1     1     2   515   513  6.728061805E+00  1.971762524E+00 -5.877849899E+00  9.148977131E+00  3.371747881E-07  0.00000E+00  9.000E+00
</event>
<event>
      5  10001  2.40292E+09  4.33917E+00 -1.00000E+00  2.55309E-01
      21    -1     0     0   513   512  0.000000000E+00  0.000000000E+00  2.781879055E+01  2.781879055E+01  0.000000000E+00  0.00000E+00  9.000E+00
       2    -1     0     0   511     0  0.000000000E+00  0.000000000E+00 -1.003684180E+02  1.003684180E+02  0.000000000E+00  0.00000E+00  9.000E+00
      21     1     1     2   513   514  6.579300271E+00 -1.063499611E+01  1.636971483E+01  2.059994898E+01  6.743495762E-07  0.00000E+00  9.000E+00
       2     1     1     2   514     0 -2.309198322E+00  1.140585266E+01 -9.738285043E+01  9.807626792E+01  3.300000131E-01  0.00000E+00  9.000E+00
      21     1     1     2   511   512 -4.270101949E+00 -7.708565480E-01  8.463508192E+00  9.510991609E+00  2.384185791E-07  0.00000E+00  9.000E+00
</event>
<event>
      5  10001  2.40292E+09  4.58673E+00 -1.00000E+00  2.50110E-01
      21    -1     0     0   515   514  0.000000000E+00  0.000000000E+00  4.771291820E+02  4.771291820E+02  0.000000000E+00  0.00000E+00  9.000E+00
      21    -1     0     0   512   513  0.000000000E+00  0.000000000E+00 -9.370136516E+00  9.370136516E+00  0.000000000E+00  0.00000E+00  9.000E+00
      -5     1     1     2     0   513  8.814409786E+00 -2.853257257E+00 -4.593374319E+00  1.140061342E+01  4.800000191E+00  0.00000E+00  9.000E+00
       5     1     1     2   515     0 -1.147998732E+01 -8.343098679E-01  2.719602528E+01  2.991905705E+01  4.800000191E+00  0.00000E+00  9.000E+00
      21     1     1     2   512   514  2.665577530E+00  3.687567125E+00  4.451563946E+02  4.451796481E+02  5.394796609E-06  0.00000E+00  9.000E+00
</event>
<event>
      5  10001  2.40292E+09  2.43123E+00 -1.00000E+00  3.27463E-01
      21    -1     0     0   511   513  0.000000000E+00  0.000000000E+00  2.472782198E+02  2.472782198E+02  0.000000000E+00  0.00000E+00  9.000E+00
      21    -1     0     0   515   511  0.000000000E+00  0.000000000E+00 -4.386959640E+00  4.386959640E+00  0.000000000E+00  0.00000E+00  9.000E+00
      21     1     1     2   512   514  1.026976469E+01 -1.285289776E+00  6.189859070E+00  1.205961823E+01  3.674277069E-07  0.00000E+00  9.000E+00
      21     1     1     2   514   513 -1.015765771E+01 -1.143351838E+00  2.369420664E+02  2.371624509E+02  2.697398305E-06  0.00000E+00  9.000E+00
      21     1     1     2   515   512 -1.121069741E-01  2.428641614E+00 -2.406653823E-01  2.443110290E+00  1.235258179E-07  0.00000E+00  9.000E+00
</event>
<event>
      5  10001  2.40292E+09  7.53526E+00 -1.00000E+00  2.11060E-01
      -2    -1     0     0     0   512  0.000000000E+00  0.000000000E+00  4.054492902E+00  4.054492902E+00  0.000000000E+00  0.00000E+00  9.000E+00
      -3    -1     0     0     0   511  0.000000000E+00  0.000000000E+00 -7.885892772E+02  7.885892772E+02  0.000000000E+00  0.00000E+00  9.000E+00
      -3     1     1     2     0   512  1.084646874E+01  1.941505183E+01 -7.557235617E+02  7.560508857E+02  5.000000000E-01  0.00000E+00  9.000E+00
      21     1     1     2   513   511 -3.591358131E+00 -3.412210150E+00 -7.170613005E+00  8.715430122E+00  2.665600750E-07  0.00000E+00  9.000E+00
      -2     1     1     2     0   513 -7.255110607E+00 -1.600284167E+01 -2.164060962E+01  2.787745427E+01  3.300000131E-01  0.00000E+00  9.000E+00
</event>
<event>
      5  10001  2.40292E+09  4.90408E+00 -1.00000E+00  2.44130E-01
       2    -1     0     0   511     0  0.000000000E+00  0.000000000E+00  3.524907984E+02  3.524907984E+02  0.000000000E+00  0.00000E+00  9.000E+00
      21    -1     0     0   513   511  0.000000000E+00  0.000000000E+00 -5.663153484E-01  5.663153484E-01  0.000000000E+00  0.00000E+00  9.000E+00
      21     1     1     2   513   514 -4.030003439E+00  9.868803210E+00  6.455421577E+01  6.542844166E+01  9.536743164E-07  0.00000E+00  9.000E+00
       2     1     1     2   512     0 -2.950976054E-01 -6.820938054E+00  1.762816091E+02  1.764140779E+02  3.300000131E-01  0.00000E+00  9.000E+00
      21     1     1     2   514   512  4.325101045E+00 -3.047865156E+00  1.110886582E+02  1.112145942E+02  0.000000000E+00  0.00000E+00  9.000E+00
</event>
<event>
      5  10001  2.40292E+09  4.25225E+00 -1.00000E+00  2.57262E-01
      -2    -1     0     0     0   512  0.000000000E+00  0.000000000E+00  2.292781434E+01  2.292781434E+01  0.000000000E+00  0.00000E+00  9.000E+00
      -3    -1     0     0     0   511  0.000000000E+00  0.000000000E+00 -1.793832042E+01  1.793832042E+01  0.000000000E+00  0.00000E+00  9.000E+00
      -3     1     1     2     0   512 -9.022778991E+00  4.455186628E+00 -1.474796926E+01  1.786090216E+01  5.000000000E-01  0.00000E+00  9.000E+00
      21     1     1     2   513   511  4.330277346E+00 -1.560832508E+00  1.512327214E+01  1.580825291E+01  2.384185791E-07  0.00000E+00  9.000E+00
      -2     1     1     2     0   513  4.692501645E+00 -2.894354120E+00  4.614191050E+00  7.196979680E+00  3.300000131E-01  0.00000E+00  9.000E+00
</event>
<event>
      5  10001  2.40292E+09  4.38123E+00 -1.00000E+00  2.54389E-01
      21    -1     0     0   514   513  0.000000000E+00  0.000000000E+00  5.339616226E+00  5.339616226E+00  0.000000000E+00  0.00000E+00  9.000E+00
      -3    -1     0     0     0   515  0.000000000E+00  0.000000000E+00 -1.446109933E+02  1.446109933E+02  0.000000000E+00  0.00000E+00  9.000E+00
      21     1     1     2   514   515 -1.042156321E+01 -1.092477301E+01 -1.258145144E+01  1.965330927E+01  2.384185791E-07  0.00000E+00  9.000E+00
      21     1     1     2   512   513  1.054592288E+01  6.545784836E+00 -2.014977456E+01  2.366595030E+01  5.840038640E-07  0.00000E+00  9.000E+00
      -3     1     1     2     0   512 -1.243596791E-01  4.378988177E+00 -1.065401511E+02  1.066313499E+02  5.000000000E-01  0.00000E+00  9.000E+00
</event>
<event>
      5  10001  2.40292E+09  2.28616E+00 -1.00000E+00  3.37794E-01
       2    -1     0     0   511     0  0.000000000E+00  0.000000000E+00  5.008944933E+02  5.008944933E+02  0.000000000E+00  0.00000E+00  9.000E+00
      -2    -1     0     0     0   511  0.000000000E+00  0.000000000E+00 -1.230818739E+00  1.230818739E+00  0.000000000E+00  0.00000E+00  9.000E+00
      -2     1     1     2     0   514  9.014401587E+00 -1.052970763E+01  4.558631091E+01  4.764824049E+01  3.300000131E-01  0.00000E+00  9.000E+00
       2     1     1     2   513     0 -1.125898374E+01  1.059203462E+01  4.338550190E+02  4.341304439E+02  3.300000131E-01  0.00000E+00  9.000E+00
      21     1     1     2   514   513  2.244582148E+00 -6.232699579E-02  2.022234466E+01  2.034662766E+01  2.384185791E-07  0.00000E+00  9.000E+00
</event>
<event>
      5  10001  2.40292E+09  1.14540E+01 -1.00000E+00  1.89126E-01
      21    -1     0     0   512   513  0.000000000E+00  0.000000000E+00  8.814089021E+01  8.814089021E+01  0.000000000E+00  0.00000E+00  9.000E+00
      21    -1     0     0   515   512  0.000000000E+00  0.000000000E+00 -2.479801490E+00  2.479801490E+00  0.000000000E+00  0.00000E+00  9.000E+00
      21     1     1     2   515   516 -8.064472278E+00 -4.514329103E+00  8.938043970E+00  1.285704128E+01  1.192092896E-07  0.00000E+00  9.000E+00
      21     1     1     2   511   513  1.582123828E+00  5.268143902E+00  2.314655300E+01  2.379116163E+01  0.000000000E+00  0.00000E+00  9.000E+00
      21     1     1     2   516   511  6.482348450E+00 -7.538147989E-01  5.357649176E+01  5.397248880E+01  6.743495762E-07  0.00000E+00  9.000E+00
</event>
<event>
      5  10001  2.40292E+09  5.82070E+00 -1.00000E+00  2.27458E-01
      21    -1     0     0   514   511  0.000000000E+00  0.000000000E+00  9.285653785E+00  9.285653785E+00  0.000000000E+00  0.00000E+00  9.000E+00
       3    -1     0     0   513     0  0.000000000E+00  0.000000000E+00 -5.220143948E+01  5.220143948E+01  0.000000000E+00  0.00000E+00  9.000E+00
      21     1     1     2   513   511 -9.259308256E+00 -1.859419106E+01 -1.720906537E+01  2.697462996E+01  3.371747881E-07  0.00000E+00  9.000E+00
       3     1     1     2   512     0  9.561234008E+00  1.338635404E+01 -2.384589515E+01  2.897392597E+01  5.000000000E-01  0.00000E+00  9.000E+00
      21     1     1     2   514   512 -3.019257519E-01  5.207837017E+00 -1.860825175E+00  5.538537342E+00  2.980232239E-08  0.00000E+00  9.000E+00
</event>
<event>
      5  10001  2.40292E+09  1.84039E+01 -1.00000E+00  1.69362E-01
       2    -1     0     0   515     0  0.000000000E+00  0.000000000E+00  4.608146153E+02  4.608146153E+02  0.000000000E+00  0.00000E+00  9.000E+00
      21    -1     0     0   514   512  0.000000000E+00  0.000000000E+00 -6.641509760E-01  6.641509760E-01  0.000000000E+00  0.00000E+00  9.000E+00
      21     1     1     2   515   512 -1.366898011E+01  3.319711482E+00  2.183128761E+02  2.187655671E+02  2.697398305E-06  0.00000E+00  9.000E+00
       2     1     1     2   511     0  4.028489256E+00 -4.911642624E+00  1.796578035E+02  1.797703763E+02  3.300000131E-01  0.00000E+00  9.000E+00
      21     1     1     2   514   511  9.640490850E+00  1.591931141E+00  6.217978475E+01  6.294282278E+01  6.743495762E-07  0.00000E+00  9.000E+00
</event>
<event>
      5  10001  2.40292E+09  5.45930E+00 -1.00000E+00  2.31953E-01
      21    -1     0     0   513   516  0.000000000E+00  0.000000000E+00  1.398454231E+00  1.398454231E+00  0.000000000E+00  0.00000E+00  9.000E+00
      21    -1     0     0   514   513  0.000000000E+00  0.000000000E+00 -1.085255842E+02  1.085255842E+02  0.000000000E+00  0.00000E+00  9.000E+00
      21     1     1     2   511   516  5.217648106E-02 -1.018630993E+01 -2.299489957E+01  2.515012999E+01  4.768371582E-07  0.00000E+00  9.000E+00
      21     1     1     2   512   511  1.005076447E-01  8.587922134E-01 -1.359565790E+01  1.362312518E+01  0.000000000E+00  0.00000E+00  9.000E+00
      21     1     1     2   514   512 -1.526841257E-01  9.327517715E+00 -7.053657252E+01  7.115078329E+01  1.348699152E-06  0.00000E+00  9.000E+00
</event>
<event>
      5  10001  2.40292E+09  1.15519E+01 -1.00000E+00  1.88729E-01
      21    -1     0     0   511   512  0.000000000E+00  0.000000000E+00  6.049644994E+02  6.049644994E+02  0.000000000E+00  0.00000E+00  9.000E+00
       2    -1     0     0   515     0  0.000000000E+00  0.000000000E+00 -4.855554266E+01  4.855554266E+01  0.000000000E+00  0.00000E+00  9.000E+00
      21     1     1     2   515   512 -2.347785548E-01 -6.858728661E+00  5.788308722E+01  5.828849857E+01  1.168007728E-06  0.00000E+00  9.000E+00
       2     1     1     2   514     0  1.134731888E+01  1.001420316E+01 -4.710539576E+01  4.947800643E+01  3.300000131E-01  0.00000E+00  9.000E+00
      21     1     1     2   511   514 -1.111254033E+01 -3.155474502E+00  5.456312653E+02  5.457535370E+02  1.078959322E-05  0.00000E+00  9.000E+00
</event>
<event>
      5  10001  2.40292E+09  9.41703E+00 -1.00000E+00  1.98761E-01
      21    -1     0     0   513   514  0.000000000E+00  0.000000000E+00  2.339112216E+02  2.339112216E+02  0.000000000E+00  0.00000E+00  9.000E+00
      21    -1     0     0   512   516  0.000000000E+00  0.000000000E+00 -1.334723153E+02  1.334723153E+02  0.000000000E+00  0.00000E+00  9.000E+00
      21     1     1     2   513   516 -1.005345053E+01 -2.993613128E-01 -1.331442297E+02  1.335235837E+02  0.000000000E+00  0.00000E+00  9.000E+00
      21     1     1     2   515   514  4.127111549E+00 -1.433093061E+00  5.626882051E+01  5.643816942E+01  6.743495762E-07  0.00000E+00  9.000E+00
      21     1     1     2   512   515  5.926338981E+00  1.732454374E+00  1.773143155E+02  1.774217838E+02  2.697398305E-06  0.00000E+00  9.000E+00
</event>
<event>
      5  10001  2.40292E+09  6.10261E+00 -1.00000E+00  2.24256E-01
       2    -1     0     0   511     0  0.000000000E+00  0.000000000E+00  2.186110674E+02  2.186110674E+02  0.000000000E+00  0.00000E+00  9.000E+00
      -1    -1     0     0     0   511  0.000000000E+00  0.000000000E+00 -6.484735189E+00  6.484735189E+00  0.000000000E+00  0.00000E+00  9.000E+00
      21     1     1     2   513   512 -1.280785705E+01  4.959664749E+00  3.223623111E+00  1.410784260E+01  4.842304232E-07  0.00000E+00  9.000E+00
       2     1     1     2   512     0  9.071413156E+00 -5.440517872E+00  2.058662600E+02  2.061380986E+02  3.300000131E-01  0.00000E+00  9.000E+00
      -1     1     1     2     0   513  3.736443897E+00  4.808531236E-01  3.036449079E+00  4.849861415E+00  3.300000131E-01  0.00000E+00  9.000E+00
</event>
<event>
      5  10001  2.40292E+09  8.39959E+00 -1.00000E+00  2.04877E-01
      21    -1     0     0   514   515  0.000000000E+00  0.000000000E+00  3.528883436E+02  3.528883436E+02  0.000000000E+00  0.00000E+00  9.000E+00
      -2    -1     0     0     0   513  0.000000000E+00  0.000000000E+00 -2.908332402E+00  2.908332402E+00  0.000000000E+00  0.00000E+00  9.000E+00
      -2     1     1     2     0   515  3.036388250E+01  6.486192276E+00  1.499041251E+02  1.530862230E+02  3.300000131E-01  0.00000E+00  9.000E+00
      21     1     1     2   511   513 -1.897555560E+01  6.332273277E-01  1.071638212E+02  1.088327031E+02  1.348699152E-06  0.00000E+00  9.000E+00
      21     1     1     2   514   511 -1.138832690E+01 -7.119419603E+00  9.291206496E+01  9.387774997E+01  0.000000000E+00  0.00000E+00  9.000E+00
</event>
<event>
      5  10001  2.40292E+09  7.04413E+00 -1.00000E+00  2.15098E-01
      21    -1     0     0   512   511  0.000000000E+00  0.000000000E+00  5.322990265E+02  5.322990265E+02  0.000000000E+00  0.00000E+00  9.000E+00
      21    -1     0     0   515   516  0.000000000E+00  0.000000000E+00 -6.946158821E-01  6.946158821E-01  0.000000000E+00  0.00000E+00  9.000E+00
      21     1     1     2   512   516  9.602282235E+00  5.192330861E+00  4.982856651E+01  5.101029469E+01  6.743495762E-07  0.00000E+00  9.000E+00
      21     1     1     2   513   511 -5.127089114E+00 -7.491594858E+00  2.940895753E+02  2.942296541E+02  0.000000000E+00  0.00000E+00  9.000E+00
      21     1     1     2   515   513 -4.475193121E+00  2.299263996E+00  1.876862688E+02  1.877536936E+02  2.697398305E-06  0.00000E+00  9.000E+00
</event>
<event>
      5  10001  2.40292E+09  1.38345E+01 -1.00000E+00  1.80709E-01
       2    -1     0     0   515     0  0.000000000E+00  0.000000000E+00  1.385238587E+03  1.385238587E+03  0.000000000E+00  0.00000E+00  9.000E+00
      21    -1     0     0   514   513  0.000000000E+00  0.000000000E+00 -9.113440026E-01  9.113440026E-01  0.000000000E+00  0.00000E+00  9.000E+00
      21     1     1     2   515   513 -2.531401843E+00 -1.565812925E+01  7.792135292E+01  7.951931996E+01  9.536743164E-07  0.00000E+00  9.000E+00
      21     1     1     2   514   511  1.035770639E+01  1.096778407E+01  8.370602874E+02  8.371962130E+02  1.868812365E-05  0.00000E+00  9.000E+00
       2     1     1     2   511     0 -7.826304547E+00  4.690345173E+00  4.693456031E+02  4.694343984E+02  3.300000131E-01  0.00000E+00  9.000E+00
</event>
<event>
      5  10001  2.40292E+09  2.62559E+00 -1.00000E+00  3.15459E-01
      21    -1     0     0   513   516  0.000000000E+00  0.000000000E+00  9.999910908E+01  9.999910908E+01  0.000000000E+00  0.00000E+00  9.000E+00
      -2    -1     0     0     0   512  0.000000000E+00  0.000000000E+00 -6.768698977E+02  6.768698977E+02  0.000000000E+00  0.00000E+00  9.000E+00
      -2     1     1     2     0   511 -1.217132323E+01  9.354553742E+00 -6.705848227E+02  6.707605848E+02  3.300000131E-01  0.00000E+00  9.000E+00
      21     1     1     2   511   516  1.427977598E+01 -1.091921172E+01  6.900323265E+00  1.925501617E+01  9.195356739E-07  0.00000E+00  9.000E+00
      21     1     1     2   513   512 -2.108452744E+00  1.564657975E+00  8.681371078E+01  8.685340584E+01  3.015782986E-06  0.00000E+00  9.000E+00
</event>
<event>
      5  10001  2.40292E+09  2.28271E+01 -1.00000E+00  1.61727E-01
       1    -1     0     0   512     0  0.000000000E+00  0.000000000E+00  5.247660532E+01  5.247660532E+01  0.000000000E+00  0.00000E+00  9.000E+00
      21    -1     0     0   511   512  0.000000000E+00  0.000000000E+00 -8.463208495E+00  8.463208495E+00  0.000000000E+00  0.00000E+00  9.000E+00
      21     1     1     2   511   513  6.437531965E+00  6.456035313E+00  1.866634818E+00  9.306263230E+00  3.332000937E-07  0.00000E+00  9.000E+00
       1     1     1     2   514     0 -6.452860341E+00 -4.746205914E-01  4.467312951E+01  4.514047044E+01  3.300000131E-01  0.00000E+00  9.000E+00
      21     1     1     2   513   514  1.532837591E-02 -5.981414721E+00 -2.526367502E+00  6.493080146E+00  1.074538015E-07  0.00000E+00  9.000E+00
</event>
<event>
      5  10001  2.40292E+09  1.41105E+01 -1.00000E+00  1.79873E-01
      21    -1     0     0   515   513  0.000000000E+00  0.000000000E+00  2.145839463E+01  2.145839463E+01  0.000000000E+00  0.00000E+00  9.000E+00
      21    -1     0     0   516   515  0.000000000E+00  0.000000000E+00 -2.362256887E+01  2.362256887E+01  0.000000000E+00  0.00000E+00  9.000E+00
      21     1     1     2   516   511 -6.120196515E+00 -8.214783882E+00 -1.868920731E+01  2.131257726E+01  2.384185791E-07  0.00000E+00  9.000E+00
      21     1     1     2   511   512  6.725905496E+00 -1.612926409E+00  9.130938051E+00  1.145484029E+01  2.064765462E-07  0.00000E+00  9.000E+00
      21     1     1     2   512   513 -6.057089808E-01  9.827710291E+00  7.394095007E+00  1.231354595E+01  8.429369702E-08  0.00000E+00  9.000E+00
</event>
<event>
      5  10001  2.40292E+09  8.60244E+00 -1.00000E+00  2.03568E-01
      21    -1     0     0   514   511  0.000000000E+00  0.000000000E+00  4.354918886E+02  4.354918886E+02  0.000000000E+00  0.00000E+00  9.000E+00
      21    -1     0     0   516   513  0.000000000E+00  0.000000000E+00 -4.868208587E+00  4.868208587E+00  0.000000000E+00  0.00000E+00  9.000E+00
      21     1     1     2   514   513  2.701619643E+01 -1.073523763E+01  3.570770084E+02  3.582584404E+02  3.814697266E-06  0.00000E+00  9.000E+00
      -1     1     1     2     0   511 -2.234060872E+01  1.515167922E+01  4.217005107E+01  5.007093257E+01  3.300000131E-01  0.00000E+00  9.000E+00
       1     1     1     2   516     0 -4.675587708E+00 -4.416441595E+00  3.137662057E+01  3.203072424E+01  3.300000131E-01  0.00000E+00  9.000E+00
</event>
<event>
      5  10001  2.40292E+09  8.07853E+00 -1.00000E+00  2.07052E-01
      21    -1     0     0   512   513  0.000000000E+00  0.000000000E+00  1.664318675E+02  1.664318675E+02  0.000000000E+00  0.00000E+00  9.000E+00
      21    -1     0     0   516   515  0.000000000E+00  0.000000000E+00 -4.348598454E+01  4.348598454E+01  0.000000000E+00  0.00000E+00  9.000E+00
      21     1     1     2   512   515 -3.598301642E+00  1.155516043E+01  1.649975208E+02  1.654407791E+02  1.907348633E-06  0.00000E+00  9.000E+00
      21     1     1     2   516   511  4.519850599E+00 -8.529254236E+00 -2.008851869E+01  2.228734642E+01  1.283923342E-06  0.00000E+00  9.000E+00
      21     1     1     2   511   513 -9.215489570E-01 -3.025906199E+00 -2.196311917E+01  2.218972655E+01  6.743495762E-07  0.00000E+00  9.000E+00
</event>
<event>
      5  10001  2.40292E+09  1.68880E+01 -1.00000E+00  1.72622E-01
      21    -1     0     0   512   511  0.000000000E+00  0.000000000E+00  1.443626068E+02  1.443626068E+02  0.000000000E+00  0.00000E+00  9.000E+00
      21    -1     0     0   513   514  0.000000000E+00  0.000000000E+00 -1.460193108E+02  1.460193108E+02  0.000000000E+00  0.00000E+00  9.000E+00
      21     1     1     2   516   511  1.059456793E+01 -2.395695122E+01 -1.548843191E+01  3.043142955E+01  6.743495762E-07  0.00000E+00  9.000E+00
      21     1     1     2   513   516 -1.517210370E+01  7.701193330E+00 -1.219456209E+02  1.231269084E+02  1.348699152E-06  0.00000E+00  9.000E+00
      21     1     1     2   512   514  4.577535763E+00  1.625575789E+01  1.357773489E+02  1.368235797E+02  0.000000000E+00  0.00000E+00  9.000E+00
</event>
<event>
      5  10001  2.40292E+09  1.84966E+01 -1.00000E+00  1.69176E-01
      21    -1     0     0   513   511  0.000000000E+00  0.000000000E+00  1.464770716E+02  1.464770716E+02  0.000000000E+00  0.00000E+00  9.000E+00
      21    -1     0     0   517   515  0.000000000E+00  0.000000000E+00 -9.298626372E+01  9.298626372E+01  0.000000000E+00  0.00000E+00  9.000E+00
      21     1     1     2   517   514  7.537015148E+00  1.371560444E+01 -7.572683190E+01  7.732708110E+01  1.348699152E-06  0.00000E+00  9.000E+00
      21     1     1     2   514   511 -2.342266771E+01 -2.319040961E+01  1.403524469E+00  3.299070083E+01  1.421480181E-07  0.00000E+00  9.000E+00
      21     1     1     2   513   515  1.588565256E+01  9.474805172E+00  1.278141153E+02  1.291455534E+02  2.336015456E-06  0.00000E+00  9.000E+00
</event>
<event>
      5  10001  2.40292E+09  8.60885E+00 -1.00000E+00  2.03528E-01
      21    -1     0     0   512   514  0.000000000E+00  0.000000000E+00  5.352926195E+00  5.352926195E+00  0.000000000E+00  0.00000E+00  9.000E+00
      21    -1     0     0   516   512  0.000000000E+00  0.000000000E+00 -1.087222837E+02  1.087222837E+02  0.000000000E+00  0.00000E+00  9.000E+00
      21     1     1     2   516   515 -8.726434108E+00 -7.020537487E+00 -1.001101616E+02  1.007347162E+02  1.348699152E-06  0.00000E+00  9.000E+00
      21     1     1     2   511   514  2.045713452E-01  3.209051637E+00  5.419144978E-01  3.260909868E+00  2.136121867E-07  0.00000E+00  9.000E+00
      21     1     1     2   515   511  8.521862763E+00  3.811485850E+00 -3.801110415E+00  1.007958381E+01  1.519626234E-07  0.00000E+00  9.000E+00
</event>
<event>
      5  10001  2.40292E+09  1.63778E+01 -1.00000E+00  1.73816E-01
      21    -1     0     0   513   511  0.000000000E+00  0.000000000E+00  2.644035180E+01  2.644035180E+01  0.000000000E+00  0.00000E+00  9.000E+00
      21    -1     0     0   515   517  0.000000000E+00  0.000000000E+00 -7.617326253E+01  7.617326253E+01  0.000000000E+00  0.00000E+00  9.000E+00
      21     1     1     2   513   517 -4.715877019E+00 -1.456288259E+01 -7.211519808E+01  7.372190203E+01  0.000000000E+00  0.00000E+00  9.000E+00
      21     1     1     2   512   511  3.876003214E+00  6.975949492E+00  3.873788347E+00  8.870936162E+00  1.976862425E-07  0.00000E+00  9.000E+00
      21     1     1     2   515   512  8.398738051E-01  7.586933100E+00  1.850849900E+01  2.002077613E+01  5.331201500E-07  0.00000E+00  9.000E+00
</event>
<event>
      5  10001  2.40292E+09  8.21045E+00 -1.00000E+00  2.06142E-01
      21    -1     0     0   514   511  0.000000000E+00  0.000000000E+00  1.525088398E+01  1.525088398E+01  0.000000000E+00  0.00000E+00  9.000E+00
      21    -1     0     0   515   514  0.000000000E+00  0.000000000E+00 -3.871668232E+01  3.871668232E+01  0.000000000E+00  0.00000E+00  9.000E+00
      21     1     1     2   512   511  3.496479736E+00 -9.743531351E+00  1.132359044E+01  1.534227735E+01  2.384185791E-07  0.00000E+00  9.000E+00
      21     1     1     2   515   513 -6.044129250E+00  1.169110715E+01 -2.402870190E+01  2.739693413E+01  7.539457465E-07  0.00000E+00  9.000E+00
      21     1     1     2   513   512  2.547649514E+00 -1.947575804E+00 -1.076068688E+01  1.122835481E+01  0.000000000E+00  0.00000E+00  9.000E+00
</event>
<event>
      5  10001  2.40292E+09  3.29916E+00 -1.00000E+00  2.84751E-01
       2    -1     0     0   513     0  0.000000000E+00  0.000000000E+00  5.055314019E+02  5.055314019E+02  0.000000000E+00  0.00000E+00  9.000E+00
       1    -1     0     0   511     0  0.000000000E+00  0.000000000E+00 -7.797971217E-01  7.797971217E-01  0.000000000E+00  0.00000E+00  9.000E+00
       1     1     1     2   514     0  2.094823400E+00 -7.429814714E+00  2.053988805E+01  2.194507537E+01  3.300000131E-01  0.00000E+00  9.000E+00
       2     1     1     2   511     0 -2.173180065E+00  9.440846593E+00  4.421988621E+02  4.423050925E+02  3.300000131E-01  0.00000E+00  9.000E+00
      21     1     1     2   513   514  7.835666556E-02 -2.011031879E+00  4.201285463E+01  4.206103117E+01  4.768371582E-07  0.00000E+00  9.000E+00
</event>
<event>
      5  10001  2.40292E+09  3.47940E+00 -1.00000E+00  2.78484E-01
      21    -1     0     0   512   511  0.000000000E+00  0.000000000E+00  1.340134420E+02  1.340134420E+02  0.000000000E+00  0.00000E+00  9.000E+00
      21    -1     0     0   516   514  0.000000000E+00  0.000000000E+00 -1.718285750E+00  1.718285750E+00  0.000000000E+00  0.00000E+00  9.000E+00
      21     1     1     2   512   514  7.852281000E+00  8.709027457E+00  8.460777996E+01  8.541652010E+01  1.651812370E-06  0.00000E+00  9.000E+00
      21     1     1     2   515   511 -9.178942983E+00 -5.492479216E+00  4.384762175E+01  4.513351588E+01  6.743495762E-07  0.00000E+00  9.000E+00
      21     1     1     2   516   515  1.326661983E+00 -3.216548241E+00  3.839754499E+00  5.181691733E+00  8.429369702E-08  0.00000E+00  9.000E+00
</event>
<event>
      5  10001  2.40292E+09  3.91011E+00 -1.00000E+00  2.65707E-01
      -1    -1     0     0     0   513  0.000000000E+00  0.000000000E+00  7.188208923E+01  7.188208923E+01  0.000000000E+00  0.00000E+00  9.000E+00
      21    -1     0     0   513   512  0.000000000E+00  0.000000000E+00 -3.113797507E+00  3.113797507E+00  0.000000000E+00  0.00000E+00  9.000E+00
      -1     1     1     2     0   511 -1.066693901E+01 -7.082964578E+00  4.596665236E+01  4.771785834E+01  3.300000131E-01  0.00000E+00  9.000E+00
      21     1     1     2   511   514  8.904750001E+00  5.188315396E+00  1.052068708E+01  1.472745890E+01  3.371747881E-07  0.00000E+00  9.000E+00
      21     1     1     2   514   512  1.762189006E+00  1.894649182E+00  1.228095229E+01  1.255056950E+01  1.685873940E-07  0.00000E+00  9.000E+00
</event>
<event>
      5  10001  2.40292E+09  1.30472E+01 -1.00000E+00  1.83236E-01
      21    -1     0     0   514   513  0.000000000E+00  0.000000000E+00  3.074947039E+01  3.074947039E+01  0.000000000E+00  0.00000E+00  9.000E+00
       3    -1     0     0   511     0  0.000000000E+00  0.000000000E+00 -3.393581877E+00  3.393581877E+00  0.000000000E+00  0.00000E+00  9.000E+00
      21     1     1     2   511   513 -3.608153080E+00  5.510153028E+00  8.831070685E+00  1.101673112E+01  2.384185791E-07  0.00000E+00  9.000E+00
       3     1     1     2   515     0  2.314670496E+00 -1.202904217E+00 -1.186093795E+00  2.908865166E+00  5.000000000E-01  0.00000E+00  9.000E+00
      21     1     1     2   514   515  1.293482584E+00 -4.307248811E+00  1.971091162E+01  2.021745599E+01  3.371747881E-07  0.00000E+00  9.000E+00
</event>
<event>
      5  10001  2.40292E+09  1.53115E+01 -1.00000E+00  1.76500E-01
      21    -1     0     0   512   511  0.000000000E+00  0.000000000E+00  5.300782912E+01  5.300782912E+01  0.000000000E+00  0.00000E+00  9.000E+00
      21    -1     0     0   516   512  0.000000000E+00  0.000000000E+00 -1.404070417E+01  1.404070417E+01  0.000000000E+00  0.00000E+00  9.000E+00
      21     1     1     2   515   511  1.410659268E+01 -6.907054510E+00  4.317721944E+01  4.594535491E+01  0.000000000E+00  0.00000E+00  9.000E+00
      21     1     1     2   516   513 -3.695281242E-01  4.717658969E+00 -5.354338918E+00  7.145754154E+00  1.884864366E-07  0.00000E+00  9.000E+00
      21     1     1     2   513   515 -1.373706456E+01  2.189395541E+00  1.144244424E+00  1.395742422E+01  2.064765462E-07  0.00000E+00  9.000E+00
</event>
<event>
      5  10001  2.40292E+09  7.51530E+00 -1.00000E+00  2.11216E-01
      21    -1     0     0   514   516  0.000000000E+00  0.000000000E+00  1.672767809E+02  1.672767809E+02  0.000000000E+00  0.00000E+00  9.000E+00
       2    -1     0     0   511     0  0.000000000E+00  0.000000000E+00 -3.961888158E+01  3.961888158E+01  0.000000000E+00  0.00000E+00  9.000E+00
      21     1     1     2   514   515  8.949576145E-01 -1.052084815E+01  1.507985508E+02  1.511677615E+02  3.303624740E-06  0.00000E+00  9.000E+00
      21     1     1     2   511   516  6.617398949E+00  1.031189081E+01  1.355338370E+01  1.827072168E+01  3.769728732E-07  0.00000E+00  9.000E+00
       2     1     1     2   515     0 -7.512356563E+00  2.089573339E-01 -3.669403517E+01  3.745717930E+01  3.300000131E-01  0.00000E+00  9.000E+00
</event>
<event>
      5  10001  2.40292E+09  8.19077E+00 -1.00000E+00  2.06276E-01
      21    -1     0     0   512   511  0.000000000E+00  0.000000000E+00  2.388851237E+01  2.388851237E+01  0.000000000E+00  0.00000E+00  9.000E+00
      21    -1     0     0   515   513  0.000000000E+00  0.000000000E+00 -7.594130770E+00  7.594130770E+00  0.000000000E+00  0.00000E+00  9.000E+00
      21     1     1     2   512   513  3.343335646E+00 -1.000868628E+01  1.514703213E+01  1.846034335E+01  2.920019320E-07  0.00000E+00  9.000E+00
      21     1     1     2   515   514  3.574023538E-01  6.639933455E+00  3.475298124E+00  7.502942742E+00  1.519626234E-07  0.00000E+00  9.000E+00
      21     1     1     2   514   511 -3.700738000E+00  3.368752823E+00 -2.327948651E+00  5.519357050E+00  4.214684851E-08  0.00000E+00  9.000E+00
</event>
<event>
      5  10001  2.40292E+09  1.11345E+01 -1.00000E+00  1.90457E-01
      21    -1     0     0   516   513  0.000000000E+00  0.000000000E+00  6.839132440E+02  6.839132440E+02  0.000000000E+00  0.00000E+00  9.000E+00
      21    -1     0     0   517   511  0.000000000E+00  0.000000000E+00 -9.341997555E-01  9.341997555E-01  0.000000000E+00  0.00000E+00  9.000E+00
      21     1     1     2   516   511 -1.061997969E+01 -9.388885138E+00  7.450982175E+01  7.584621725E+01  9.536743164E-07  0.00000E+00  9.000E+00
      21     1     1     2   517   512  6.382959164E+00  9.657649123E+00  5.871118179E+02  5.872259352E+02  7.629394531E-06  0.00000E+00  9.000E+00
      21     1     1     2   512   513  4.237020531E+00 -2.687639849E-01  2.135740466E+01  2.177529129E+01  3.371747881E-07  0.00000E+00  9.000E+00
</event>
<event>
      5  10001  2.40292E+09  5.55299E+00 -1.00000E+00  2.30741E-01
       1    -1     0     0   511     0  0.000000000E+00  0.000000000E+00  7.826288789E+01  7.826288789E+01  0.000000000E+00  0.00000E+00  9.000E+00
      21    -1     0     0   515   514  0.000000000E+00  0.000000000E+00 -1.716065555E+01  1.716065555E+01  0.000000000E+00  0.00000E+00  9.000E+00
      21     1     1     2   511   514 -8.350791999E+00  5.857356784E+00  2.585666502E+01  2.779588965E+01  3.371747881E-07  0.00000E+00  9.000E+00
       1     1     1     2   512     0  1.320622091E+01 -3.163149397E+00  5.002659910E+01  5.183801021E+01  3.300000131E-01  0.00000E+00  9.000E+00
      21     1     1     2   515   512 -4.855428914E+00 -2.694207388E+00 -1.478103179E+01  1.578964357E+01  0.000000000E+00  0.00000E+00  9.000E+00
</event>
<event>
      5  10001  2.40292E+09  1.36904E+01 -1.00000E+00  1.81155E-01
      21    -1     0     0   513   512  0.000000000E+00  0.000000000E+00  1.517126999E+00  1.517126999E+00  0.000000000E+00  0.00000E+00  9.000E+00
       1    -1     0     0   515     0  0.000000000E+00  0.000000000E+00 -2.175869491E+02  2.175869491E+02  0.000000000E+00  0.00000E+00  9.000E+00
      21     1     1     2   515   512 -3.495547518E+00 -1.025013326E+01 -2.869509324E+01  3.067071014E+01  0.000000000E+00  0.00000E+00  9.000E+00
       1     1     1     2   511     0 -6.493107089E-01  3.255242773E+00 -1.555713323E+02  1.556070903E+02  3.300000131E-01  0.00000E+00  9.000E+00
      21     1     1     2   513   511  4.144858226E+00  6.994890490E+00 -3.180339658E+01  3.282627570E+01  6.743495762E-07  0.00000E+00  9.000E+00
</event>
<event>
      5  10001  2.40292E+09  1.71169E+01 -1.00000E+00  1.72103E-01
      21    -1     0     0   514   511  0.000000000E+00  0.000000000E+00  6.955608167E-01  6.955608167E-01  0.000000000E+00  0.00000E+00  9.000E+00
      21    -1     0     0   512   516  0.000000000E+00  0.000000000E+00 -6.420503850E+02  6.420503850E+02  0.000000000E+00  0.00000E+00  9.000E+00
      21     1     1     2   514   516 -7.543437442E+00 -5.006301260E+00 -4.487128975E+01  4.577552998E+01  1.066240300E-06  0.00000E+00  9.000E+00
      21     1     1     2   512   515  6.147206600E+00 -4.426392628E+00 -4.905762959E+02  4.906347758E+02  5.394796609E-06  0.00000E+00  9.000E+00
      21     1     1     2   515   511  1.396230843E+00  9.432693888E+00 -1.059072386E+02  1.063356401E+02  0.000000000E+00  0.00000E+00  9.000E+00
</event>
<event>
      5  10001  2.40292E+09  2.97755E+00 -1.00000E+00  2.97721E-01
      21    -1     0     0   513   514  0.000000000E+00  0.000000000E+00  1.128829660E+01  1.128829660E+01  0.000000000E+00  0.00000E+00  9.000E+00
      21    -1     0     0   517   511  0.000000000E+00  0.000000000E+00 -1.807324852E+02  1.807324852E+02  0.000000000E+00  0.00000E+00  9.000E+00
      21     1     1     2   513   511 -1.105516750E+01 -4.930946398E+00 -3.789828308E+01  3.978455506E+01  1.261592536E-06  0.00000E+00  9.000E+00
      21     1     1     2   517   512  1.287116603E+01  2.571298658E+00 -1.413663167E+02  1.419743427E+02  1.907348633E-06  0.00000E+00  9.000E+00
      21     1     1     2   512   514 -1.815998534E+00  2.359647740E+00  9.820411179E+00  1.026188403E+01  2.384185791E-07  0.00000E+00  9.000E+00
</event>
<event>
      5  10001  2.40292E+09  7.05698E+00 -1.00000E+00  2.14986E-01
      21    -1     0     0   515   511  0.000000000E+00  0.000000000E+00  1.450357927E+01  1.450357927E+01  0.000000000E+00  0.00000E+00  9.000E+00
      21    -1     0     0   514   515  0.000000000E+00  0.000000000E+00 -1.622188588E+01  1.622188588E+01  0.000000000E+00  0.00000E+00  9.000E+00
      21     1     1     2   514   516  1.004605663E-01 -1.391104648E+01 -6.319342740E+00  1.527944368E+01  1.685873940E-07  0.00000E+00  9.000E+00
      21     1     1     2   516   513  1.334613990E+00  4.919999054E+00 -2.986070379E-01  5.106540057E+00  8.760374797E-08  0.00000E+00  9.000E+00
      21     1     1     2   513   511 -1.435074557E+00  8.991047425E+00  4.899643167E+00  1.033948142E+01  2.064765462E-07  0.00000E+00  9.000E+00
</event>
<event>
      5  10001  2.40292E+09  7.67494E+00 -1.00000E+00  2.09987E-01
      21    -1     0     0   512   516  0.000000000E+00  0.000000000E+00  1.016673559E+02  1.016673559E+02  0.000000000E+00  0.00000E+00  9.000E+00
      21    -1     0     0   514   511  0.000000000E+00  0.000000000E+00 -1.345558163E+01  1.345558163E+01  0.000000000E+00  0.00000E+00  9.000E+00
      21     1     1     2   512   511  5.741338547E+00 -1.361504052E+01  9.460765716E+01  9.575458782E+01  1.348699152E-06  0.00000E+00  9.000E+00
      21     1     1     2   515   516  1.106822049E+00  9.412753003E+00 -6.211146702E+00  1.133151876E+01  6.194296387E-07  0.00000E+00  9.000E+00
      21     1     1     2   514   515 -6.848160596E+00  4.202287519E+00 -1.847362017E-01  8.036830930E+00  1.369265910E-07  0.00000E+00  9.000E+00
</event>
<event>
      5  10001  2.40292E+09  2.11102E+01 -1.00000E+00  1.64416E-01
       1    -1     0     0   511     0  0.000000000E+00  0.000000000E+00  6.968881461E+02  6.968881461E+02  0.000000000E+00  0.00000E+00  9.000E+00
      21    -1     0     0   513   515  0.000000000E+00  0.000000000E+00 -4.788616767E+00  4.788616767E+00  0.000000000E+00  0.00000E+00  9.000E+00
      21     1     1     2   511   515 -7.385786170E+00 -4.614043605E+01  1.781102480E+02  1.841378563E+02  1.907348633E-06  0.00000E+00  9.000E+00
       1     1     1     2   512     0  4.336252424E+00  3.680930986E+01  4.927343742E+02  4.941265029E+02  3.300000131E-01  0.00000E+00  9.000E+00
      21     1     1     2   513   512  3.049533746E+00  9.331126190E+00  2.125490711E+01  2.341240373E+01  2.384185791E-07  0.00000E+00  9.000E+00
</event>
<event>
      5  10001  2.40292E+09  9.93938E+00 -1.00000E+00  1.96004E-01
      21    -1     0     0   514   512  0.000000000E+00  0.000000000E+00  1.114607201E+02  1.114607201E+02  0.000000000E+00  0.00000E+00  9.000E+00
      21    -1     0     0   513   511  0.000000000E+00  0.000000000E+00 -3.289745204E+00  3.289745204E+00  0.000000000E+00  0.00000E+00  9.000E+00
      21     1     1     2   514   516 -1.431974954E+01 -1.381680620E+00  3.874809643E+01  4.133254462E+01  6.743495762E-07  0.00000E+00  9.000E+00
      21     1     1     2   513   512  6.541025672E+00 -4.805629532E+00  5.667450792E+01  5.725276360E+01  9.536743164E-07  0.00000E+00  9.000E+00
      21     1     1     2   516   511  7.778723865E+00  6.187310152E+00  1.274837056E+01  1.616515709E+01  1.685873940E-07  0.00000E+00  9.000E+00
</event>
<event>
      5  10001  2.40292E+09  1.44565E+01 -1.00000E+00  1.78858E-01
      21    -1     0     0   515   512  0.000000000E+00  0.000000000E+00  1.669727475E+01  1.669727475E+01  0.000000000E+00  0.00000E+00  9.000E+00
      -3    -1     0     0     0   511  0.000000000E+00  0.000000000E+00 -1.433267623E+01  1.433267623E+01  0.000000000E+00  0.00000E+00  9.000E+00
      -3     1     1     2     0   513  3.844009599E+00 -2.079302255E+00  1.769969604E+00  4.741592566E+00  5.000000000E-01  0.00000E+00  9.000E+00
      21     1     1     2   515   511 -1.130835584E+01  2.610898830E+00  9.253965594E+00  1.484357045E+01  3.953724850E-07  0.00000E+00  9.000E+00
      21     1     1     2   513   512  7.464346243E+00 -5.315965743E-01 -8.659336681E+00  1.144478796E+01  2.064765462E-07  0.00000E+00  9.000E+00
</event>
<event>
      5  10001  2.40292E+09  9.58913E+00 -1.00000E+00  1.97828E-01
      21    -1     0     0   514   511  0.000000000E+00  0.000000000E+00  5.106220397E+01  5.106220397E+01  0.000000000E+00  0.00000E+00  9.000E+00
      21    -1     0     0   512   515  0.000000000E+00  0.000000000E+00 -2.217068313E+01  2.217068313E+01  0.000000000E+00  0.00000E+00  9.000E+00
      21     1     1     2   516   511 -1.704388782E+01 -8.043233469E+00  2.429056567E+01  3.074441896E+01  3.371747881E-07  0.00000E+00  9.000E+00
      21     1     1     2   512   516  7.530551153E+00  9.246501445E+00  2.061924282E+01  2.381932334E+01  4.129530925E-07  0.00000E+00  9.000E+00
      21     1     1     2   514   515  9.513336664E+00 -1.203267976E+00 -1.601828766E+01  1.866914480E+01  2.384185791E-07  0.00000E+00  9.000E+00
</event>
<event>
      5  10001  2.40292E+09  1.39119E+01 -1.00000E+00  1.80472E-01
      21    -1     0     0   513   512  0.000000000E+00  0.000000000E+00  1.076740035E+01  1.076740035E+01  0.000000000E+00  0.00000E+00  9.000E+00
      21    -1     0     0   511   517  0.000000000E+00  0.000000000E+00 -3.326874082E+01  3.326874082E+01  0.000000000E+00  0.00000E+00  9.000E+00
      21     1     1     2   513   517  3.692788614E+00  1.121528086E+01  2.365059097E+00  1.204212261E+01  3.424026159E-07  0.00000E+00  9.000E+00
      21     1     1     2   511   516 -9.731461770E+00 -7.875320649E+00 -1.173125507E+01  1.715646726E+01  0.000000000E+00  0.00000E+00  9.000E+00
      21     1     1     2   516   512  6.038673156E+00 -3.339960208E+00 -1.313514450E+01  1.483755130E+01  1.685873940E-07  0.00000E+00  9.000E+00
</event>
<event>
      5  10001  2.40292E+09  5.92877E+00 -1.00000E+00  2.26201E-01
      21    -1     0     0   514   513  0.000000000E+00  0.000000000E+00  8.633022309E+00  8.633022309E+00  0.000000000E+00  0.00000E+00  9.000E+00
      21    -1     0     0   512   514  0.000000000E+00  0.000000000E+00 -7.635141624E+02  7.635141624E+02  0.000000000E+00  0.00000E+00  9.000E+00
      21     1     1     2   511   515  2.648039243E+00 -8.239677725E+00 -7.711111657E+00  1.159161955E+01  1.215700987E-06  0.00000E+00  9.000E+00
      21     1     1     2   512   511 -7.058007993E-01  1.384128257E+01 -7.524733531E+02  7.526009742E+02  1.078959322E-05  0.00000E+00  9.000E+00
      21     1     1     2   515   513 -1.942238444E+00 -5.601604848E+00  5.303324574E+00  7.954591038E+00  4.172325134E-07  0.00000E+00  9.000E+00
</event>
<event>
      5  10001  2.40292E+09  6.89286E+00 -1.00000E+00  2.16433E-01
      21    -1     0     0   516   512  0.000000000E+00  0.000000000E+00  2.462772506E+01  2.462772506E+01  0.000000000E+00  0.00000E+00  9.000E+00
      21    -1     0     0   515   513  0.000000000E+00  0.000000000E+00 -4.329156910E+00  4.329156910E+00  0.000000000E+00  0.00000E+00  9.000E+00
      21     1     1     2   516   513 -8.470726660E+00 -5.545120191E+00  8.295865047E+00  1.308903911E+01  1.685873940E-07  0.00000E+00  9.000E+00
      21     1     1     2   515   511  3.058428946E-01  9.683650400E-01  1.297771998E+00  1.647872230E+00  2.580956828E-08  0.00000E+00  9.000E+00
      21     1     1     2   511   512  8.164883765E+00  4.576755151E+00  1.070493111E+01  1.421997063E+01  2.064765462E-07  0.00000E+00  9.000E+00
</event>
<event>
      5  10001  2.40292E+09  3.12824E+00 -1.00000E+00  2.91324E-01
      21    -1     0     0   514   513  0.000000000E+00  0.000000000E+00  3.807828035E+01  3.807828035E+01  0.000000000E+00  0.00000E+00  9.000E+00
      21    -1     0     0   512   514  0.000000000E+00  0.000000000E+00 -5.440518452E+01  5.440518452E+01  0.000000000E+00  0.00000E+00  9.000E+00
      21     1     1     2   512   517  4.063247547E+00  9.563809810E+00 -5.299633361E+01  5.400544246E+01  6.743495762E-07  0.00000E+00  9.000E+00
      21     1     1     2   515   513 -1.960138827E+00 -9.138865932E+00  2.695645840E+01  2.853088965E+01  5.840038640E-07  0.00000E+00  9.000E+00
      21     1     1     2   517   515 -2.103108720E+00 -4.249438782E-01  9.712971051E+00  9.947132764E+00  1.192092896E-07  0.00000E+00  9.000E+00
</event>
<event>
      5  10001  2.40292E+09  1.17875E+01 -1.00000E+00  1.87794E-01
      21    -1     0     0   511   515  0.000000000E+00  0.000000000E+00  2.090492235E+01  2.090492235E+01  0.000000000E+00  0.00000E+00  9.000E+00
      21    -1     0     0   512   516  0.000000000E+00  0.000000000E+00 -1.975654782E+01  1.975654782E+01  0.000000000E+00  0.00000E+00  9.000E+00
      21     1     1     2   511   516 -9.403079481E+00 -2.113438447E+00  1.341004296E+01  1.651404790E+01  1.685873940E-07  0.00000E+00  9.000E+00
      21     1     1     2   512   513  4.597752117E+00 -1.544036685E+00 -1.621816508E+01  1.692785434E+01  2.384185791E-07  0.00000E+00  9.000E+00
      21     1     1     2   513   515  4.805327364E+00  3.657475132E+00  3.956496656E+00  7.219567937E+00  8.429369702E-08  0.00000E+00  9.000E+00
</event>
<event>
      5  10001  2.40292E+09  7.19543E+00 -1.00000E+00  2.13807E-01
      21    -1     0     0   514   513  0.000000000E+00  0.000000000E+00  1.043742639E+02  1.043742639E+02  0.000000000E+00  0.00000E+00  9.000E+00
      21    -1     0     0   511   514  0.000000000E+00  0.000000000E+00 -2.196719820E+02  2.196719820E+02  0.000000000E+00  0.00000E+00  9.000E+00
      21     1     1     2   512   513  1.152557540E+01 -6.467774984E+00  1.034951839E+02  1.043356319E+02  1.348699152E-06  0.00000E+00  9.000E+00
      21     1     1     2   515   512 -4.330368669E+00  6.410753104E+00 -1.849269535E+02  1.850887030E+02  4.672030912E-06  0.00000E+00  9.000E+00
      21     1     1     2   511   515 -7.195206727E+00  5.702187960E-02 -3.386594852E+01  3.462191098E+01  8.259061849E-07  0.00000E+00  9.000E+00
</event>
<event>
      5  10001  2.40292E+09  1.48298E+01 -1.00000E+00  1.77804E-01
       2    -1     0     0   511     0  0.000000000E+00  0.000000000E+00  4.246974004E-01  4.246974004E-01  0.000000000E+00  0.00000E+00  9.000E+00
      21    -1     0     0   516   514  0.000000000E+00  0.000000000E+00 -9.815101011E+02  9.815101011E+02  0.000000000E+00  0.00000E+00  9.000E+00
      21     1     1     2   511   514 -3.949954008E+00  7.590647535E+00 -7.494360172E+02  7.494848657E+02  1.525878906E-05  0.00000E+00  9.000E+00
       2     1     1     2   512     0  6.612264298E+00  1.973483859E+00 -4.408643518E+01  4.462442543E+01  3.300000131E-01  0.00000E+00  9.000E+00
      21     1     1     2   516   512 -2.662310290E+00 -9.564131394E+00 -1.875629514E+02  1.878255074E+02  0.000000000E+00  0.00000E+00  9.000E+00
</event>
<event>
      5  10001  2.40292E+09  4.77230E+00 -1.00000E+00  2.46528E-01
      21    -1     0     0   513   512  0.000000000E+00  0.000000000E+00  1.490557116E+00  1.490557116E+00  0.000000000E+00  0.00000E+00  9.000E+00
      21    -1     0     0   512   511  0.000000000E+00  0.000000000E+00 -9.294569239E+01  9.294569239E+01  0.000000000E+00  0.00000E+00  9.000E+00
      -5     1     1     2     0   514 -4.939294571E+00  5.208973946E+00 -3.395698373E+01  3.503779083E+01  4.800000191E+00  0.00000E+00  9.000E+00
       5     1     1     2   513     0  3.956546376E+00 -8.713648300E+00 -4.895885550E+01  5.011578054E+01  4.800000191E+00  0.00000E+00  9.000E+00
      21     1     1     2   514   511  9.827481954E-01  3.504674354E+00 -8.539296045E+00  9.282678131E+00  1.192092896E-07  0.00000E+00  9.000E+00
</event>
<event>
      5  10001  2.40292E+09  1.40601E+01 -1.00000E+00  1.80024E-01
       2    -1     0     0   514     0  0.000000000E+00  0.000000000E+00  6.475756054E+02  6.475756054E+02  0.000000000E+00  0.00000E+00  9.000E+00
       1    -1     0     0   512     0  0.000000000E+00  0.000000000E+00 -5.023670894E-01  5.023670894E-01  0.000000000E+00  0.00000E+00  9.000E+00
      21     1     1     2   514   513  9.111882745E+00  4.587719083E+00  1.561472648E+02  1.564801645E+02  2.697398305E-06  0.00000E+00  9.000E+00
       2     1     1     2   512     0 -5.319056180E+00 -1.428973042E+01  3.008156471E+02  3.012020106E+02  3.300000131E-01  0.00000E+00  9.000E+00
       1     1     1     2   513     0 -3.792826565E+00  9.702011336E+00  1.901103264E+02  1.903957974E+02  3.300000131E-01  0.00000E+00  9.000E+00
</event>
<event>
      5  10001  2.40292E+09  5.34407E+00 -1.00000E+00  2.33491E-01
       2    -1     0     0   514     0  0.000000000E+00  0.000000000E+00  5.446535495E+00  5.446535495E+00  0.000000000E+00  0.00000E+00  9.000E+00
      21    -1     0     0   513   514  0.000000000E+00  0.000000000E+00 -3.666060890E+01  3.666060890E+01  0.000000000E+00  0.00000E+00  9.000E+00
      21     1     1     2   513   512 -5.376753792E+00  1.153100655E-01 -2.148307461E+01  2.214599901E+01  4.129530925E-07  0.00000E+00  9.000E+00
       2     1     1     2   511     0  1.023400225E+01  2.797647346E+00 -2.737686065E+00  1.096200062E+01  3.300000131E-01  0.00000E+00  9.000E+00
      21     1     1     2   512   511 -4.857248455E+00 -2.912957411E+00 -6.993312738E+00  8.999144764E+00  1.192092896E-07  0.00000E+00  9.000E+00
</event>
<event>
      5  10001  2.40292E+09  4.40649E+00 -1.00000E+00  2.53844E-01
      21    -1     0     0   515   511  0.000000000E+00  0.000000000E+00  1.471892965E+01  1.471892965E+01  0.000000000E+00  0.00000E+00  9.000E+00
      21    -1     0     0   513   516  0.000000000E+00  0.000000000E+00 -1.238041225E+01  1.238041225E+01  0.000000000E+00  0.00000E+00  9.000E+00
      21     1     1     2   515   516  2.932878760E+00 -7.899825321E+00 -1.639331697E+00  8.584662273E+00  7.884953353E-08  0.00000E+00  9.000E+00
      21     1     1     2   512   511 -5.765425279E+00  1.127529429E+01  5.562902208E+00  1.383178480E+01  0.000000000E+00  0.00000E+00  9.000E+00
      21     1     1     2   513   512  2.832546519E+00 -3.375468965E+00 -1.585053120E+00  4.682894822E+00  2.107342426E-08  0.00000E+00  9.000E+00
</event>
<event>
      5  10001  2.40292E+09  2.95629E+00 -1.00000E+00  2.98675E-01
      21    -1     0     0   512   511  0.000000000E+00  0.000000000E+00  9.092897262E-01  9.092897262E-01  0.000000000E+00  0.00000E+00  9.000E+00
       2    -1     0     0   511     0  0.000000000E+00  0.000000000E+00 -2.589261238E+02  2.589261238E+02  0.000000000E+00  0.00000E+00  9.000E+00
      21     1     1     2   514   513 -7.921377801E+00 -5.466239356E-01 -2.501823451E+01  2.624803006E+01  8.920806376E-07  0.00000E+00  9.000E+00
       2     1     1     2   513     0  1.030018859E+01 -1.986509053E+00 -2.150228852E+02  2.152788661E+02  3.300000131E-01  0.00000E+00  9.000E+00
      21     1     1     2   512   514 -2.378810792E+00  2.533132989E+00 -1.797571439E+01  1.830851745E+01  4.768371582E-07  0.00000E+00  9.000E+00
</event>
<event>
      5  10001  2.40292E+09  9.97768E+00 -1.00000E+00  1.95811E-01
      21    -1     0     0   514   511  0.000000000E+00  0.000000000E+00  9.713053906E+00  9.713053906E+00  0.000000000E+00  0.00000E+00  9.000E+00
      21    -1     0     0   515   512  0.000000000E+00  0.000000000E+00 -5.802393098E+01  5.802393098E+01  0.000000000E+00  0.00000E+00  9.000E+00
      -3     1     1     2     0   512 -8.390704693E+00 -1.534625303E+00 -3.235173555E+01  3.346107878E+01  5.000000000E-01  0.00000E+00  9.000E+00
       3     1     1     2   514     0  1.696875100E+01 -3.555133223E+00 -1.695128631E+01  2.425229041E+01  5.000000000E-01  0.00000E+00  9.000E+00
      21     1     1     2   515   511 -8.578046311E+00  5.089758526E+00  9.921447778E-01  1.002361570E+01  2.698715072E-07  0.00000E+00  9.000E+00
</event>
<event>
      5  10001  2.40292E+09  4.67126E+00 -1.00000E+00  2.48447E-01
      21    -1     0     0   513   512  0.000000000E+00  0.000000000E+00  8.650779378E+01  8.650779378E+01  0.000000000E+00  0.00000E+00  9.000E+00
       4    -1     0     0   514     0  0.000000000E+00  0.000000000E+00 -1.081309794E+01  1.081309794E+01  0.000000000E+00  0.00000E+00  9.000E+00
      21     1     1     2   514   511  7.258800913E+00  7.881440907E+00  1.822689230E+01  2.114301077E+01  0.000000000E+00  0.00000E+00  9.000E+00
       4     1     1     2   513     0 -4.245071903E+00 -1.144642617E+01 -5.187286872E+00  1.334912928E+01  1.500000000E+00  0.00000E+00  9.000E+00
      21     1     1     2   511   512 -3.013729011E+00  3.564985264E+00  6.265509042E+01  6.282875168E+01  6.743495762E-07  0.00000E+00  9.000E+00
</event>
<event>
      5  10001  2.40292E+09  2.01788E+01 -1.00000E+00  1.66009E-01
      -1    -1     0     0     0   512  0.000000000E+00  0.000000000E+00  8.197052655E+00  8.197052655E+00  0.000000000E+00  0.00000E+00  9.000E+00
       2    -1     0     0   512     0  0.000000000E+00  0.000000000E+00 -2.195207925E+01  2.195207925E+01  0.000000000E+00  0.00000E+00  9.000E+00
      21     1     1     2   513   514  2.568536886E+00 -1.005143554E-01  1.612894679E+00  3.034619271E+00  8.940696716E-08  0.00000E+00  9.000E+00
       2     1     1     2   514     0 -6.079467052E+00 -6.709230487E+00  9.250427893E-01  9.107046587E+00  3.300000131E-01  0.00000E+00  9.000E+00
      -1     1     1     2     0   513  3.510930166E+00  6.809744842E+00 -1.629296406E+01  1.800746605E+01  3.300000131E-01  0.00000E+00  9.000E+00
</event>
<event>
      5  10001  2.40292E+09  4.16584E+00 -1.00000E+00  2.59276E-01
      21    -1     0     0   513   512  0.000000000E+00  0.000000000E+00  3.471188750E+01  3.471188750E+01  0.000000000E+00  0.00000E+00  9.000E+00
      21    -1     0     0   514   513  0.000000000E+00  0.000000000E+00 -1.117199633E+01  1.117199633E+01  0.000000000E+00  0.00000E+00  9.000E+00
      -2     1     1     2     0   512 -3.635013038E+00 -1.518941424E+01  2.346195412E+01  2.818694407E+01  3.300000131E-01  0.00000E+00  9.000E+00
       2     1     1     2   511     0  1.773631345E+00  1.146343186E+01  3.697021149E+00  1.217919963E+01  3.300000131E-01  0.00000E+00  9.000E+00
      21     1     1     2   514   511  1.861381694E+00  3.725982383E+00 -3.619084100E+00  5.517740140E+00  9.424321831E-08  0.00000E+00  9.000E+00
</event>
<event>
      5  10001  2.40292E+09  5.07631E+00 -1.00000E+00  2.37285E-01
      21    -1     0     0   511   513  0.000000000E+00  0.000000000E+00  1.924227956E+00  1.924227956E+00  0.000000000E+00  0.00000E+00  9.000E+00
       2    -1     0     0   512     0  0.000000000E+00  0.000000000E+00 -2.008891602E+02  2.008891602E+02  0.000000000E+00  0.00000E+00  9.000E+00
      21     1     1     2   511   514  7.441912300E+00  5.235986706E+00 -4.220695556E+01  4.317666862E+01  1.261592536E-06  0.00000E+00  9.000E+00
       2     1     1     2   514     0 -1.189430528E+01 -7.673451821E+00 -1.520682646E+02  1.527259715E+02  3.300000131E-01  0.00000E+00  9.000E+00
      21     1     1     2   512   513  4.452392979E+00  2.437465115E+00 -4.689712071E+00  6.910748059E+00  3.264680848E-07  0.00000E+00  9.000E+00
</event>
<event>
      5  10001  2.40292E+09  8.69484E+00 -1.00000E+00  2.02988E-01
      21    -1     0     0   511   513  0.000000000E+00  0.000000000E+00  1.777886164E+01  1.777886164E+01  0.000000000E+00  0.00000E+00  9.000E+00
       2    -1     0     0   514     0  0.000000000E+00  0.000000000E+00 -1.546591377E+02  1.546591377E+02  0.000000000E+00  0.00000E+00  9.000E+00
      21     1     1     2   514   513 -4.262094141E+00 -1.457108393E+01  1.579484215E+00  1.526357441E+01  2.169641819E-07  0.00000E+00  9.000E+00
       2     1     1     2   512     0  1.919054564E+00  6.197981929E+00 -1.457091968E+02  1.458539567E+02  3.300000131E-01  0.00000E+00  9.000E+00
      21     1     1     2   511   512  2.343039577E+00  8.373102005E+00  7.249436511E+00  1.132046825E+01  4.539354507E-07  0.00000E+00  9.000E+00
</event>
<event>
      5  10001  2.40292E+09  8.35284E+00 -1.00000E+00  2.05185E-01
       2    -1     0     0   513     0  0.000000000E+00  0.000000000E+00  1.389626501E+02  1.389626501E+02  0.000000000E+00  0.00000E+00  9.000E+00
      -2    -1     0     0     0   511  0.000000000E+00  0.000000000E+00 -5.231658205E+01  5.231658205E+01  0.000000000E+00  0.00000E+00  9.000E+00
      -2     1     1     2     0   514  6.493449744E+00 -9.425549089E+00 -4.737785644E+01  4.874193314E+01  3.300000131E-01  0.00000E+00  9.000E+00
       2     1     1     2   514     0 -2.148346583E+00  1.655905545E+01  1.284132916E+01  2.106718645E+01  3.300000131E-01  0.00000E+00  9.000E+00
      21     1     1     2   513   511 -4.345103162E+00 -7.133506357E+00  1.211825953E+02  1.214701125E+02  1.348699152E-06  0.00000E+00  9.000E+00
</event>
<event>
      5  10001  2.40292E+09  5.73980E+00 -1.00000E+00  2.28424E-01
      21    -1     0     0   512   516  0.000000000E+00  0.000000000E+00  7.136094571E+00  7.136094571E+00  0.000000000E+00  0.00000E+00  9.000E+00
      21    -1     0     0   515   512  0.000000000E+00  0.000000000E+00 -7.404444090E+01  7.404444090E+01  0.000000000E+00  0.00000E+00  9.000E+00
      21     1     1     2   511   516  7.151775900E-01 -1.026130310E+01  2.441808648E+00  1.057205040E+01  2.269677253E-07  0.00000E+00  9.000E+00
      21     1     1     2   515   514 -1.844590677E+00  1.044801717E+01 -4.509229069E+01  4.632362526E+01  4.768371582E-07  0.00000E+00  9.000E+00
      21     1     1     2   514   511  1.129413087E+00 -1.867140721E-01 -2.425786428E+01  2.428485980E+01  3.371747881E-07  0.00000E+00  9.000E+00
</event>
<event>
      5  10001  2.40292E+09  1.48897E+01 -1.00000E+00  1.77638E-01
      21    -1     0     0   513   514  0.000000000E+00  0.000000000E+00  6.721533180E+00  6.721533180E+00  0.000000000E+00  0.00000E+00  9.000E+00
      21    -1     0     0   511   513  0.000000000E+00  0.000000000E+00 -1.722342340E+01  1.722342340E+01  0.000000000E+00  0.00000E+00  9.000E+00
      -5     1     1     2     0   514  6.072694433E+00 -8.122031359E-01 -5.319736623E+00  9.427454120E+00  4.800000191E+00  0.00000E+00  9.000E+00
       5     1     1     2   512     0 -1.644156089E+00 -1.170918622E+00 -7.507685723E+00  9.136719675E+00  4.800000191E+00  0.00000E+00  9.000E+00
      21     1     1     2   511   512 -4.428538344E+00  1.983121758E+00  2.325532123E+00  5.380782790E+00  2.190014490E-07  0.00000E+00  9.000E+00
</event>
<event>
      5  10001  2.40292E+09  1.03604E+01 -1.00000E+00  1.93939E-01
      21    -1     0     0   511   513  0.000000000E+00  0.000000000E+00  2.761151206E+01  2.761151206E+01  0.000000000E+00  0.00000E+00  9.000E+00
      -3    -1     0     0     0   515  0.000000000E+00  0.000000000E+00 -3.142061210E+02  3.142061210E+02  0.000000000E+00  0.00000E+00  9.000E+00
      -3     1     1     2     0   512 -1.397903658E+01 -3.839271328E+00 -2.528881154E+02  2.533037749E+02  5.000000000E-01  0.00000E+00  9.000E+00
      21     1     1     2   511   515  4.910120859E+00  8.848305914E+00 -5.968965604E+01  6.054136472E+01  9.536743164E-07  0.00000E+00  9.000E+00
      21     1     1     2   512   513  9.068915718E+00 -5.009034586E+00  2.598316246E+01  2.797249348E+01  1.168007728E-06  0.00000E+00  9.000E+00
</event>
<event>
      5  10001  2.40292E+09  3.12313E+00 -1.00000E+00  2.91532E-01
      21    -1     0     0   514   513  0.000000000E+00  0.000000000E+00  5.092291209E+01  5.092291209E+01  0.000000000E+00  0.00000E+00  9.000E+00
       1    -1     0     0   515     0  0.000000000E+00  0.000000000E+00 -3.818952310E+00  3.818952310E+00  0.000000000E+00  0.00000E+00  9.000E+00
      21     1     1     2   511   513  1.218644629E+01  3.274131263E+00  2.465742520E+01  2.769870080E+01  3.371747881E-07  0.00000E+00  9.000E+00
       1     1     1     2   514     0 -9.503440903E+00 -4.871586286E+00  2.108322003E+01  2.363596431E+01  3.300000131E-01  0.00000E+00  9.000E+00
      21     1     1     2   515   511 -2.683005387E+00  1.597455024E+00  1.363314557E+00  3.407199296E+00  7.742870484E-08  0.00000E+00  9.000E+00
</event>
<event>
      5  10001  2.40292E+09  1.99084E+00 -1.00000E+00  3.63788E-01
       1    -1     0     0   515     0  0.000000000E+00  0.000000000E+00  9.342662991E-01  9.342662991E-01  0.000000000E+00  0.00000E+00  9.000E+00
      21    -1     0     0   513   514  0.000000000E+00  0.000000000E+00 -2.547466966E+02  2.547466966E+02  0.000000000E+00  0.00000E+00  9.000E+00
      21     1     1     2   515   514 -1.129621580E+01 -2.507730417E+00 -8.098628396E+01  8.180874888E+01  9.536743164E-07  0.00000E+00  9.000E+00
       1     1     1     2   512     0  1.028014997E+01  7.960513857E-01 -5.115802804E+01  5.218781385E+01  3.300000131E-01  0.00000E+00  9.000E+00
      21     1     1     2   513   512  1.016065828E+00  1.711679031E+00 -1.216681183E+02  1.216844002E+02  2.336015456E-06  0.00000E+00  9.000E+00
</event>
<event>
      5  10001  2.40292E+09  3.17963E+00 -1.00000E+00  2.89277E-01
      21    -1     0     0   512   514  0.000000000E+00  0.000000000E+00  1.180345542E+01  1.180345542E+01  0.000000000E+00  0.00000E+00  9.000E+00
       2    -1     0     0   513     0  0.000000000E+00  0.000000000E+00 -5.656907997E+01  5.656907997E+01  0.000000000E+00  0.00000E+00  9.000E+00
      21     1     1     2   512   511  5.965898153E+00 -9.414963032E+00 -1.285797099E+00  1.121992620E+01  4.110668368E-07  0.00000E+00  9.000E+00
       2     1     1     2   511     0 -7.133416611E+00  6.457589215E+00 -4.945538323E+01  5.038382599E+01  3.300000131E-01  0.00000E+00  9.000E+00
      21     1     1     2   513   514  1.167518458E+00  2.957373817E+00  5.975555777E+00  6.768783206E+00  0.000000000E+00  0.00000E+00  9.000E+00
</event>
<event>
      5  10001  2.40292E+09  4.37878E+00 -1.00000E+00  2.54442E-01
      -2    -1     0     0     0   513  0.000000000E+00  0.000000000E+00  1.438150469E+02  1.438150469E+02  0.000000000E+00  0.00000E+00  9.000E+00
       1    -1     0     0   513     0  0.000000000E+00  0.000000000E+00 -7.041107669E+00  7.041107669E+00  0.000000000E+00  0.00000E+00  9.000E+00
      -2     1     1     2     0   512 -3.547748013E+00 -1.142126154E+01  1.319162428E+02  1.324576753E+02  3.300000131E-01  0.00000E+00  9.000E+00
       1     1     1     2   511     0  1.902063574E+00  8.567936930E+00 -3.469731496E+00  9.443268805E+00  3.300000131E-01  0.00000E+00  9.000E+00
      21     1     1     2   512   511  1.645684439E+00  2.853324610E+00  8.327427942E+00  8.955210479E+00  0.000000000E+00  0.00000E+00  9.000E+00
</event>
<event>
      5  10001  2.40292E+09  1.07467E+01 -1.00000E+00  1.92154E-01
      21    -1     0     0   511   512  0.000000000E+00  0.000000000E+00  1.176408765E+01  1.176408765E+01  0.000000000E+00  0.00000E+00  9.000E+00
       2    -1     0     0   513     0  0.000000000E+00  0.000000000E+00 -4.962542040E+02  4.962542040E+02  0.000000000E+00  0.00000E+00  9.000E+00
      21     1     1     2   511   514  1.089011870E+01 -7.541714829E+00  7.106729927E+00  1.503255661E+01  9.000103993E-07  0.00000E+00  9.000E+00
       2     1     1     2   514     0 -1.480847301E+01 -2.465137790E+00 -4.412168937E+02  4.414723366E+02  3.300000131E-01  0.00000E+00  9.000E+00
      21     1     1     2   513   512  3.918354305E+00  1.000685262E+01 -5.037995252E+01  5.151339841E+01  0.000000000E+00  0.00000E+00  9.000E+00
</event>
<event>
      5  10001  2.40292E+09  4.08522E+00 -1.00000E+00  2.61225E-01
      21    -1     0     0   515   514  0.000000000E+00  0.000000000E+00  1.652455558E+02  1.652455558E+02  0.000000000E+00  0.00000E+00  9.000E+00
      21    -1     0     0   513   512  0.000000000E+00  0.000000000E+00 -1.796878368E+00  1.796878368E+00  0.000000000E+00  0.00000E+00  9.000E+00
      21     1     1     2   515   512 -3.919465559E+00  9.279884660E+00  1.508608678E+01  1.814024486E+01  2.384185791E-07  0.00000E+00  9.000E+00
      21     1     1     2   511   514  7.890271816E-01 -6.886894065E+00  1.263291507E+02  1.265191930E+02  1.348699152E-06  0.00000E+00  9.000E+00
      21     1     1     2   513   511  3.130438377E+00 -2.392990595E+00  2.203343990E+01  2.238299628E+01  3.371747881E-07  0.00000E+00  9.000E+00
</event>
<event>
      5  10001  2.40292E+09  1.02566E+01 -1.00000E+00  1.94436E-01
      -2    -1     0     0     0   516  0.000000000E+00  0.000000000E+00  3.422408381E+01  3.422408381E+01  0.000000000E+00  0.00000E+00  9.000E+00
      21    -1     0     0   516   515  0.000000000E+00  0.000000000E+00 -3.115015741E+01  3.115015741E+01  0.000000000E+00  0.00000E+00  9.000E+00
      21     1     1     2   512   513  2.206447903E+00  2.019182824E+00  6.495190837E+00  7.150735322E+00  0.000000000E+00  0.00000E+00  9.000E+00
      21     1     1     2   513   515 -8.792024687E-01 -1.300733372E+01 -2.820850298E+01  3.107544638E+01  3.371747881E-07  0.00000E+00  9.000E+00
      -2     1     1     2     0   512 -1.327245434E+00  1.098815089E+01  2.478723854E+01  2.714805951E+01  3.300000131E-01  0.00000E+00  9.000E+00
</event>
<event>
      5  10001  2.40292E+09  1.42572E+00 -1.00000E+00  4.62341E-01
       1    -1     0     0   511     0  0.000000000E+00  0.000000000E+00  9.726405562E+02  9.726405562E+02  0.000000000E+00  0.00000E+00  9.000E+00
      -2    -1     0     0     0   511  0.000000000E+00  0.000000000E+00 -1.823147202E+00  1.823147202E+00  0.000000000E+00  0.00000E+00  9.000E+00
      -2     1     1     2     0   512 -1.294968025E+01  1.314902163E+01  4.797143227E+01  5.139998251E+01  3.300000131E-01  0.00000E+00  9.000E+00
       1     1     1     2   513     0  1.220388612E+01 -1.200857970E+01  9.062870252E+02  9.064487971E+02  3.300000131E-01  0.00000E+00  9.000E+00
      21     1     1     2   512   513  7.457941320E-01 -1.140441934E+00  1.655895150E+01  1.661492376E+01  4.129530925E-07  0.00000E+00  9.000E+00
</event>
<event>
      5  10001  2.40292E+09  2.54733E+00 -1.00000E+00  3.20069E-01
      21    -1     0     0   514   513  0.000000000E+00  0.000000000E+00  7.769792950E+01  7.769792950E+01  0.000000000E+00  0.00000E+00  9.000E+00
      21    -1     0     0   512   515  0.000000000E+00  0.000000000E+00 -2.482359690E+00  2.482359690E+00  0.000000000E+00  0.00000E+00  9.000E+00
      21     1     1     2   514   515 -9.164899230E+00  9.144388137E+00  4.938798256E+01  5.105671389E+01  0.000000000E+00  0.00000E+00  9.000E+00
      21     1     1     2   512   511  6.889463933E+00 -5.166791440E+00  1.396614996E+01  1.640773573E+01  3.769728732E-07  0.00000E+00  9.000E+00
      21     1     1     2   511   513  2.275435297E+00 -3.977596697E+00  1.186143729E+01  1.271583956E+01  0.000000000E+00  0.00000E+00  9.000E+00
</event>
<event>
      5  10001  2.40292E+09  1.95425E+00 -1.00000E+00  3.67606E-01
       2    -1     0     0   512     0  0.000000000E+00  0.000000000E+00  7.732222717E+00  7.732222717E+00  0.000000000E+00  0.00000E+00  9.000E+00
       2    -1     0     0   511     0  0.000000000E+00  0.000000000E+00 -7.884603431E+02  7.884603431E+02  0.000000000E+00  0.00000E+00  9.000E+00
      21     1     1     2   512   516  2.034101486E+01  1.086114464E+01 -4.306816570E+01  4.885271994E+01  0.000000000E+00  0.00000E+00  9.000E+00
       2     1     1     2   511     0 -1.934713193E+01 -1.254375745E+01 -2.263679839E+01  3.231394290E+01  3.300000131E-01  0.00000E+00  9.000E+00
       2     1     1     2   516     0 -9.938829342E-01  1.682612803E+00 -7.150231563E+02  7.150259030E+02  3.300000131E-01  0.00000E+00  9.000E+00
</event>
<event>
      5  10001  2.40292E+09  2.67633E+00 -1.00000E+00  3.12616E-01
      21    -1     0     0   511   513  0.000000000E+00  0.000000000E+00  1.401063173E+01  1.401063173E+01  0.000000000E+00  0.00000E+00  9.000E+00
      21    -1     0     0   512   514  0.000000000E+00  0.000000000E+00 -1.608655012E+01  1.608655012E+01  0.000000000E+00  0.00000E+00  9.000E+00
      -1     1     1     2     0   514 -8.332460680E+00  5.011043086E+00 -9.325735580E+00  1.347659816E+01  3.300000131E-01  0.00000E+00  9.000E+00
      21     1     1     2   512   513  1.097368247E+01 -4.588648446E+00  4.358116504E+00  1.266769833E+01  3.039252468E-07  0.00000E+00  9.000E+00
       1     1     1     2   511     0 -2.641221795E+00 -4.223946400E-01  2.891700683E+00  3.952885358E+00  3.300000131E-01  0.00000E+00  9.000E+00
</event>
<event>
      5  10001  2.40292E+09  8.46798E+00 -1.00000E+00  2.04430E-01
       1    -1     0     0   514     0  0.000000000E+00  0.000000000E+00  1.703232805E+01  1.703232805E+01  0.000000000E+00  0.00000E+00  9.000E+00
      21    -1     0     0   515   514  0.000000000E+00  0.000000000E+00 -2.561112837E+02  2.561112837E+02  0.000000000E+00  0.00000E+00  9.000E+00
      21     1     1     2   515   512 -4.277874234E+00 -1.028655438E+01 -1.809437763E+02  1.812864132E+02  3.303624740E-06  0.00000E+00  9.000E+00
       1     1     1     2   511     0 -2.322573971E+00  1.512569082E+01  1.310392467E+01  2.014950656E+01  3.300000131E-01  0.00000E+00  9.000E+00
      21     1     1     2   512   511  6.600448206E+00 -4.839136440E+00 -7.123910394E+01  7.170769198E+01  9.536743164E-07  0.00000E+00  9.000E+00
</event>
<event>
      5  10001  2.40292E+09  7.76842E+00 -1.00000E+00  2.09286E-01
      21    -1     0     0   513   515  0.000000000E+00  0.000000000E+00  3.682655061E+01  3.682655061E+01  0.000000000E+00  0.00000E+00  9.000E+00
      21    -1     0     0   516   513  0.000000000E+00  0.000000000E+00 -8.825330442E+00  8.825330442E+00  0.000000000E+00  0.00000E+00  9.000E+00
      21     1     1     2   511   515  8.373185225E+00 -6.461894454E+00  2.840719793E+01  3.031229462E+01  0.000000000E+00  0.00000E+00  9.000E+00
      21     1     1     2   514   511 -3.223779248E+00  8.869305748E+00 -1.486670593E+00  9.553403924E+00  1.332800375E-07  0.00000E+00  9.000E+00
      21     1     1     2   516   514 -5.149405978E+00 -2.407411294E+00  1.080692833E+00  5.786182512E+00  1.173318606E-07  0.00000E+00  9.000E+00
</event>
<event>
      5  10001  2.40292E+09  4.74131E+00 -1.00000E+00  2.47109E-01
      -4    -1     0     0     0   512  0.000000000E+00  0.000000000E+00  1.051702210E+00  1.051702210E+00  0.000000000E+00  0.00000E+00  9.000E+00
      -1    -1     0     0     0   511  0.000000000E+00  0.000000000E+00 -3.132272935E+02  3.132272935E+02  0.000000000E+00  0.00000E+00  9.000E+00
      -4     1     1     2     0   513  4.845350206E+00 -7.704854443E+00 -3.156122579E+01  3.288165407E+01  1.500000000E+00  0.00000E+00  9.000E+00
      -1     1     1     2     0   512 -9.674696915E+00  7.345518233E+00 -2.572264608E+02  2.575133345E+02  3.300000131E-01  0.00000E+00  9.000E+00
      21     1     1     2   513   511  4.829346709E+00  3.593362103E-01 -2.338790476E+01  2.388400722E+01  4.768371582E-07  0.00000E+00  9.000E+00
</event>
<event>
      5  10001  2.40292E+09  5.00937E+00 -1.00000E+00  2.38286E-01
      21    -1     0     0   514   513  0.000000000E+00  0.000000000E+00  2.376575470E+02  2.376575470E+02  0.000000000E+00  0.00000E+00  9.000E+00
      21    -1     0     0   515   512  0.000000000E+00  0.000000000E+00 -2.103210500E+02  2.103210500E+02  0.000000000E+00  0.00000E+00  9.000E+00
      21     1     1     2   515   511  1.463015682E+00  1.086917933E+01 -1.164337748E+02  1.169491487E+02  1.907348633E-06  0.00000E+00  9.000E+00
      21     1     1     2   511   513  2.885554628E+00 -1.335588449E+01  2.371360450E+02  2.375293875E+02  0.000000000E+00  0.00000E+00  9.000E+00
      21     1     1     2   514   512 -4.348570310E+00  2.486705162E+00 -9.336577322E+01  9.350006083E+01  1.348699152E-06  0.00000E+00  9.000E+00
</event>
<event>
      5  10001  2.40292E+09  1.94975E+01 -1.00000E+00  1.67244E-01
       2    -1     0     0   512     0  0.000000000E+00  0.000000000E+00  2.509948075E+02  2.509948075E+02  0.000000000E+00  0.00000E+00  9.000E+00
      21    -1     0     0   513   512  0.000000000E+00  0.000000000E+00 -1.233589063E+01  1.233589063E+01  0.000000000E+00  0.00000E+00  9.000E+00
      21     1     1     2   511   514  1.198467621E+01  1.593822542E+01  4.055843471E+00  2.034967714E+01  6.583548198E-07  0.00000E+00  9.000E+00
       2     1     1     2   514     0 -2.107558226E+01  1.309987443E+00  2.123385330E+02  2.133861704E+02  3.300000131E-01  0.00000E+00  9.000E+00
      21     1     1     2   513   511  9.090906045E+00 -1.724821287E+01  2.226454036E+01  2.959485052E+01  3.371747881E-07  0.00000E+00  9.000E+00
</event>
<event>
      5  10001  2.40292E+09  8.46403E+00 -1.00000E+00  2.04456E-01
      21    -1     0     0   515   514  0.000000000E+00  0.000000000E+00  3.741472684E+01  3.741472684E+01  0.000000000E+00  0.00000E+00  9.000E+00
      21    -1     0     0   513   515  0.000000000E+00  0.000000000E+00 -8.841376682E+00  8.841376682E+00  0.000000000E+00  0.00000E+00  9.000E+00
      21     1     1     2   513   511  5.422863664E+00 -8.287296867E+00 -2.695418853E+00  1.026411333E+01  1.519626234E-07  0.00000E+00  9.000E+00
      -1     1     1     2     0   514 -6.995760488E+00  3.889218561E+00  3.012478198E+01  3.117175124E+01  3.300000131E-01  0.00000E+00  9.000E+00
       1     1     1     2   511     0  1.572896824E+00  4.398078307E+00  1.143987028E+00  4.820238951E+00  3.300000131E-01  0.00000E+00  9.000E+00
</event>
<event>
      5  10001  2.40292E+09  4.96775E+00 -1.00000E+00  2.43012E-01
       2    -1     0     0   512     0  0.000000000E+00  0.000000000E+00  1.515235381E+02  1.515235381E+02  0.000000000E+00  0.00000E+00  9.000E+00
      21    -1     0     0   516   512  0.000000000E+00  0.000000000E+00 -6.386327116E+01  6.386327116E+01  0.000000000E+00  0.00000E+00  9.000E+00
      21     1     1     2   517   513  5.056207216E+00  6.124854520E+00 -1.654954861E+00  8.112826258E+00  2.819432010E-07  0.00000E+00  9.000E+00
      21     1     1     2   516   517 -7.323298409E+00 -1.054511856E+01 -5.823822028E+01  5.963657038E+01  9.536743164E-07  0.00000E+00  9.000E+00
       2     1     1     2   513     0  2.267091193E+00  4.420264045E+00  1.475534421E+02  1.476374126E+02  3.300000131E-01  0.00000E+00  9.000E+00
</event>
<event>
      5  10001  2.40292E+09  4.74380E+00 -1.00000E+00  2.47062E-01
      21    -1     0     0   511   513  0.000000000E+00  0.000000000E+00  1.143725156E+01  1.143725156E+01  0.000000000E+00  0.00000E+00  9.000E+00
      21    -1     0     0   514   511  0.000000000E+00  0.000000000E+00 -4.141699201E+01  4.141699201E+01  0.000000000E+00  0.00000E+00  9.000E+00
      21     1     1     2   514   515  6.495457624E+00  9.666002457E+00 -3.689030321E+01  3.868484256E+01  6.743495762E-07  0.00000E+00  9.000E+00
      21     1     1     2   512   513 -3.292392942E+00 -5.890881812E+00  1.653641372E+00  6.948155842E+00  1.519626234E-07  0.00000E+00  9.000E+00
      21     1     1     2   515   512 -3.203064682E+00 -3.775120645E+00  5.256921393E+00  7.221245168E+00  1.976862425E-07  0.00000E+00  9.000E+00
</event>
<event>
      5  10001  2.40292E+09  1.31212E+01 -1.00000E+00  1.82989E-01
      21    -1     0     0   516   512  0.000000000E+00  0.000000000E+00  1.052099238E+02  1.052099238E+02  0.000000000E+00  0.00000E+00  9.000E+00
      21    -1     0     0   514   517  0.000000000E+00  0.000000000E+00 -4.492133475E+01  4.492133475E+01  0.000000000E+00  0.00000E+00  9.000E+00
      21     1     1     2   516   517 -1.008037535E+01 -1.666232790E+01  9.829549644E+01  1.002060465E+02  0.000000000E+00  0.00000E+00  9.000E+00
      21     1     1     2   511   512 -7.086862518E-01  1.076602691E+01 -3.585502963E+01  3.744319326E+01  9.536743164E-07  0.00000E+00  9.000E+00
      21     1     1     2   514   511  1.078906161E+01  5.896300989E+00 -2.151877728E+00  1.248201881E+01  1.763129170E-07  0.00000E+00  9.000E+00
</event>
<event>
      5  10001  2.40292E+09  1.04962E+01 -1.00000E+00  1.93300E-01
       2    -1     0     0   515     0  0.000000000E+00  0.000000000E+00  3.750255335E+01  3.750255335E+01  0.000000000E+00  0.00000E+00  9.000E+00
      21    -1     0     0   512   515  0.000000000E+00  0.000000000E+00 -9.126514652E+01  9.126514652E+01  0.000000000E+00  0.00000E+00  9.000E+00
      21     1     1     2   511   513  3.212041216E+00  9.568876762E+00 -5.209989523E-01  1.010702979E+01  1.163817894E-07  0.00000E+00  9.000E+00
       2     1     1     2   513     0 -1.200567647E+01 -3.838304935E+00  3.115719105E+01  3.361172871E+01  3.300000131E-01  0.00000E+00  9.000E+00
      21     1     1     2   512   511  8.793635255E+00 -5.730571827E+00 -8.439878527E+01  8.504894138E+01  0.000000000E+00  0.00000E+00  9.000E+00
</event>
<event>
      5  10001  2.40292E+09  4.10154E+00 -1.00000E+00  2.60825E-01
      21    -1     0     0   514   513  0.000000000E+00  0.000000000E+00  6.822793378E+01  6.822793378E+01  0.000000000E+00  0.00000E+00  9.000E+00
      21    -1     0     0   512   511  0.000000000E+00  0.000000000E+00 -1.246227770E+01  1.246227770E+01  0.000000000E+00  0.00000E+00  9.000E+00
      21     1     1     2   514   511 -1.125506443E+01  6.589826396E-01  6.105079958E+01  6.208309644E+01  0.000000000E+00  0.00000E+00  9.000E+00
      -5     1     1     2     0   513  7.967817784E+00  2.201104872E+00 -7.062814211E+00  1.188504646E+01  4.800000191E+00  0.00000E+00  9.000E+00
       5     1     1     2   512     0  3.287246647E+00 -2.860087511E+00  1.777670710E+00  6.722068586E+00  4.800000191E+00  0.00000E+00  9.000E+00
</event>
<event>
      5  10001  2.40292E+09  5.78638E+00 -1.00000E+00  2.27865E-01
      21    -1     0     0   515   511  0.000000000E+00  0.000000000E+00  4.622287206E+00  4.622287206E+00  0.000000000E+00  0.00000E+00  9.000E+00
      21    -1     0     0   513   515  0.000000000E+00  0.000000000E+00 -2.303547020E+02  2.303547020E+02  0.000000000E+00  0.00000E+00  9.000E+00
      21     1     1     2   512   516  9.272175061E+00 -1.786153165E+00 -3.451309976E+01  3.578152636E+01  6.743495762E-07  0.00000E+00  9.000E+00
      21     1     1     2   516   511 -1.080685431E+01  7.365301608E+00 -6.902499255E+00  1.478784176E+01  1.460009660E-07  0.00000E+00  9.000E+00
      21     1     1     2   513   512  1.534679249E+00 -5.579148443E+00 -1.843168158E+02  1.844076211E+02  0.000000000E+00  0.00000E+00  9.000E+00
</event>
<event>
      5  10001  2.40292E+09  7.65917E+00 -1.00000E+00  2.10106E-01
      21    -1     0     0   514   516  0.000000000E+00  0.000000000E+00  2.582727583E+02  2.582727583E+02  0.000000000E+00  0.00000E+00  9.000E+00
      21    -1     0     0   513   514  0.000000000E+00  0.000000000E+00 -5.404629614E-01  5.404629614E-01  0.000000000E+00  0.00000E+00  9.000E+00
      21     1     1     2   513   512  1.075084182E-01  8.555402424E+00  5.234223828E+01  5.303693408E+01  0.000000000E+00  0.00000E+00  9.000E+00
      21     1     1     2   511   516 -3.172600739E+00 -4.059932551E+00  1.564291169E+02  1.565139517E+02  1.907348633E-06  0.00000E+00  9.000E+00
      21     1     1     2   512   511  3.065092321E+00 -4.495469872E+00  4.896094013E+01  4.926233550E+01  0.000000000E+00  0.00000E+00  9.000E+00
</event>
<event>
      5  10001  2.40292E+09  5.24399E+00 -1.00000E+00  2.34871E-01
      21    -1     0     0   515   511  0.000000000E+00  0.000000000E+00  5.507017470E+01  5.507017470E+01  0.000000000E+00  0.00000E+00  9.000E+00
      21    -1     0     0   517   515  0.000000000E+00  0.000000000E+00 -1.962177169E+01  1.962177169E+01  0.000000000E+00  0.00000E+00  9.000E+00
      21     1     1     2   517   513  1.026567214E+01 -1.624546325E+00 -1.609575304E+01  1.915976099E+01  5.331201500E-07  0.00000E+00  9.000E+00
      21     1     1     2   513   514 -1.269142535E+01  1.055130484E+00  5.148827278E+01  5.303987002E+01  0.000000000E+00  0.00000E+00  9.000E+00
      21     1     1     2   514   511  2.425753211E+00  5.694158406E-01  5.588326747E-02  2.492315385E+00  1.456262150E-08  0.00000E+00  9.000E+00
</event>
<event>
      5  10001  2.40292E+09  9.72608E+00 -1.00000E+00  1.97103E-01
      21    -1     0     0   512   511  0.000000000E+00  0.000000000E+00  1.884146369E+01  1.884146369E+01  0.000000000E+00  0.00000E+00  9.000E+00
       1    -1     0     0   513     0  0.000000000E+00  0.000000000E+00 -7.060940008E+01  7.060940008E+01  0.000000000E+00  0.00000E+00  9.000E+00
      21     1     1     2   515   511  2.114262809E+01  1.064925194E+01 -9.497956583E+00  2.550741987E+01  3.953724850E-07  0.00000E+00  9.000E+00
       1     1     1     2   512     0 -3.179035221E+01 -7.301330288E+00 -4.145791427E+01  5.275228406E+01  3.300000131E-01  0.00000E+00  9.000E+00
      21     1     1     2   513   515  1.064772412E+01 -3.347921652E+00 -8.120655376E-01  1.119115985E+01  1.471371774E-07  0.00000E+00  9.000E+00
</event>
<event>
      5  10001  2.40292E+09  6.66791E+00 -1.00000E+00  2.18507E-01
      21    -1     0     0   514   513  0.000000000E+00  0.000000000E+00  5.289847100E+01  5.289847100E+01  0.000000000E+00  0.00000E+00  9.000E+00
      21    -1     0     0   511   515  0.000000000E+00  0.000000000E+00 -1.919838828E+00  1.919838828E+00  0.000000000E+00  0.00000E+00  9.000E+00
      21     1     1     2   514   515  5.819207701E+00 -7.332407463E+00  2.117218034E+01  2.314926776E+01  2.384185791E-07  0.00000E+00  9.000E+00
      21     1     1     2   512   513 -1.878025077E+00  2.888559720E+00  4.459384310E+00  5.635322872E+00  1.192092896E-07  0.00000E+00  9.000E+00
      21     1     1     2   511   512 -3.941182623E+00  4.443847743E+00  2.534706752E+01  2.603371920E+01  3.371747881E-07  0.00000E+00  9.000E+00
</event>
<event>
      5  10001  2.40292E+09  4.84443E+00 -1.00000E+00  2.45202E-01
      21    -1     0     0   516   512  0.000000000E+00  0.000000000E+00  2.051946904E+01  2.051946904E+01  0.000000000E+00  0.00000E+00  9.000E+00
      21    -1     0     0   511   516  0.000000000E+00  0.000000000E+00 -2.322325334E+01  2.322325334E+01  0.000000000E+00  0.00000E+00  9.000E+00
      21     1     1     2   511   517 -6.590607536E+00  1.323031084E+01 -1.528251888E+01  2.126105867E+01  1.685873940E-07  0.00000E+00  9.000E+00
      21     1     1     2   513   512  3.648763196E+00 -1.173092756E+01  1.422200771E+01  1.879344666E+01  3.371747881E-07  0.00000E+00  9.000E+00
      21     1     1     2   517   513  2.941844340E+00 -1.499383281E+00 -1.643273135E+00  3.688217041E+00  8.688795410E-08  0.00000E+00  9.000E+00
</event>
<event>
      5  10001  2.40292E+09  1.01675E+01 -1.00000E+00  1.94869E-01
      21    -1     0     0   512   511  0.000000000E+00  0.000000000E+00  7.848827407E+00  7.848827407E+00  0.000000000E+00  0.00000E+00  9.000E+00
      21    -1     0     0   515   514  0.000000000E+00  0.000000000E+00 -1.995109162E+02  1.995109162E+02  0.000000000E+00  0.00000E+00  9.000E+00
      21     1     1     2   513   511 -9.344177854E+00  1.123340732E+01 -7.049086167E+01  7.198933726E+01  1.651812370E-06  0.00000E+00  9.000E+00
      21     1     1     2   515   513 -1.620991980E-01 -7.626752390E+00 -1.244528882E+02  1.246864668E+02  1.907348633E-06  0.00000E+00  9.000E+00
      21     1     1     2   512   514  9.506277052E+00 -3.606654931E+00  3.281661118E+00  1.068393948E+01  1.460009660E-07  0.00000E+00  9.000E+00
</event>
<event>
      5  10001  2.40292E+09  6.29143E+00 -1.00000E+00  2.22244E-01
      21    -1     0     0   516   513  0.000000000E+00  0.000000000E+00  1.840861080E+01  1.840861080E+01  0.000000000E+00  0.00000E+00  9.000E+00
      21    -1     0     0   517   516  0.000000000E+00  0.000000000E+00 -8.365510893E+00  8.365510893E+00  0.000000000E+00  0.00000E+00  9.000E+00
      21     1     1     2   514   513  7.451929216E+00 -8.774631119E+00  1.593090478E+00  1.162167533E+01  2.053983324E-07  0.00000E+00  9.000E+00
      21     1     1     2   511   514 -2.517841522E+00  4.272685615E+00  8.451755144E-01  5.030873676E+00  2.580956828E-08  0.00000E+00  9.000E+00
      21     1     1     2   517   511 -4.934087694E+00  4.501945504E+00  7.604833916E+00  1.012157268E+01  1.685873940E-07  0.00000E+00  9.000E+00
</event>
<event>
      5  10001  2.40292E+09  8.68203E+00 -1.00000E+00  2.03068E-01
      21    -1     0     0   512   511  0.000000000E+00  0.000000000E+00  6.667062318E+01  6.667062318E+01  0.000000000E+00  0.00000E+00  9.000E+00
      21    -1     0     0   513   512  0.000000000E+00  0.000000000E+00 -2.039775617E+01  2.039775617E+01  0.000000000E+00  0.00000E+00  9.000E+00
      21     1     1     2   515   517  1.422232169E+01 -1.138164528E+00  3.263949901E+01  3.562171737E+01  4.768371582E-07  0.00000E+00  9.000E+00
      21     1     1     2   517   511 -1.141751544E+01 -7.078322884E+00  3.002751384E+01  3.289549971E+01  3.371747881E-07  0.00000E+00  9.000E+00
      21     1     1     2   513   515 -2.804806254E+00  8.216487412E+00 -1.639414585E+01  1.855116227E+01  3.371747881E-07  0.00000E+00  9.000E+00
</event>
<event>
      5  10001  2.40292E+09  1.06259E+01 -1.00000E+00  1.92701E-01
      21    -1     0     0   515   511  0.000000000E+00  0.000000000E+00  9.865779526E+00  9.865779526E+00  0.000000000E+00  0.00000E+00  9.000E+00
      21    -1     0     0   514   515  0.000000000E+00  0.000000000E+00 -2.256390877E+01  2.256390877E+01  0.000000000E+00  0.00000E+00  9.000E+00
      21     1     1     2   512   511 -4.319562737E+00 -2.417527977E+00  4.766629918E+00  6.871959294E+00  5.960464478E-08  0.00000E+00  9.000E+00
       1     1     1     2   514     0  7.281230097E+00  8.911889599E+00 -1.091955883E+01  1.586769526E+01  3.300000131E-01  0.00000E+00  9.000E+00
      -1     1     1     2     0   512 -2.961667360E+00 -6.494361622E+00 -6.545200333E+00  9.690033738E+00  3.300000131E-01  0.00000E+00  9.000E+00
</event>
<event>
      5  10001  2.40292E+09  1.42731E+00 -1.00000E+00  4.61929E-01
       2    -1     0     0   513     0  0.000000000E+00  0.000000000E+00  2.401309774E+02  2.401309774E+02  0.000000000E+00  0.00000E+00  9.000E+00
       1    -1     0     0   511     0  0.000000000E+00  0.000000000E+00 -3.111620828E+00  3.111620828E+00  0.000000000E+00  0.00000E+00  9.000E+00
      21     1     1     2   511   514  9.374773472E+00 -4.733157106E+00  1.048121937E+02  1.053370073E+02  0.000000000E+00  0.00000E+00  9.000E+00
       1     1     1     2   513     0 -9.311971303E+00  3.307378072E+00  5.745660977E+00  1.143560577E+01  3.300000131E-01  0.00000E+00  9.000E+00
       2     1     1     2   514     0 -6.280216859E-02  1.425779034E+00  1.264615019E+02  1.264699852E+02  3.300000131E-01  0.00000E+00  9.000E+00
</event>
<event>
      5  10001  2.40292E+09  5.11066E+00 -1.00000E+00  2.36780E-01
       1    -1     0     0   514     0  0.000000000E+00  0.000000000E+00  5.501919105E+02  5.501919105E+02  0.000000000E+00  0.00000E+00  9.000E+00
      21    -1     0     0   512   513  0.000000000E+00  0.000000000E+00 -2.018749035E+00  2.018749035E+00  0.000000000E+00  0.00000E+00  9.000E+00
      21     1     1     2   511   513 -8.784085837E-01  1.777277254E+00  3.562810109E+00  4.077245633E+00  1.115100797E-07  0.00000E+00  9.000E+00
       1     1     1     2   512     0  6.183134940E+00 -8.434316148E+00  5.357305498E+02  5.358327162E+02  3.300000131E-01  0.00000E+00  9.000E+00
      21     1     1     2   514   511 -5.304726356E+00  6.657038894E+00  8.879801547E+00  1.230069771E+01  4.298152060E-07  0.00000E+00  9.000E+00
</event>
<event>
      5  10001  2.40292E+09  6.27037E+00 -1.00000E+00  2.22463E-01
      21    -1     0     0   515   511  0.000000000E+00  0.000000000E+00  9.564056670E+01  9.564056670E+01  0.000000000E+00  0.00000E+00  9.000E+00
      21    -1     0     0   513   515  0.000000000E+00  0.000000000E+00 -1.806426291E+02  1.806426291E+02  0.000000000E+00  0.00000E+00  9.000E+00
      21     1     1     2   512   511 -4.528366354E+00 -7.024171781E+00  9.291157272E+01  9.328668414E+01  1.907348633E-06  0.00000E+00  9.000E+00
      21     1     1     2   516   512  1.046330691E+01  9.047526779E+00 -1.680420196E+01  2.176510363E+01  1.039242493E-06  0.00000E+00  9.000E+00
      21     1     1     2   513   516 -5.934940559E+00 -2.023354998E+00 -1.611094331E+02  1.612314080E+02  1.907348633E-06  0.00000E+00  9.000E+00
</event>
<event>
      5  10001  2.40292E+09  1.01732E+01 -1.00000E+00  1.94841E-01
      -1    -1     0     0     0   512  0.000000000E+00  0.000000000E+00  4.606107071E+00  4.606107071E+00  0.000000000E+00  0.00000E+00  9.000E+00
       2    -1     0     0   512     0  0.000000000E+00  0.000000000E+00 -2.130285628E+02  2.130285628E+02  0.000000000E+00  0.00000E+00  9.000E+00
      21     1     1     2   511   513 -1.158801157E+00 -1.193247805E+00 -1.592669090E+00  2.302879779E+00  4.712160915E-08  0.00000E+00  9.000E+00
       2     1     1     2   513     0  1.490438704E+01  4.092536453E+00 -1.982830909E+02  1.988848477E+02  3.300000131E-01  0.00000E+00  9.000E+00
      -1     1     1     2     0   511 -1.374558588E+01 -2.899288648E+00 -8.546695728E+00  1.644694238E+01  3.300000131E-01  0.00000E+00  9.000E+00
</event>
<event>
      5  10001  2.40292E+09  3.84293E+00 -1.00000E+00  2.67526E-01
      21    -1     0     0   514   513  0.000000000E+00  0.000000000E+00  1.743006929E+02  1.743006929E+02  0.000000000E+00  0.00000E+00  9.000E+00
      21    -1     0     0   512   514  0.000000000E+00  0.000000000E+00 -3.959322492E+00  3.959322492E+00  0.000000000E+00  0.00000E+00  9.000E+00
      21     1     1     2   515   511  9.924361828E+00  1.688622235E+00  1.910443028E+01  2.159452846E+01  2.384185791E-07  0.00000E+00  9.000E+00
      21     1     1     2   512   515 -1.125848952E+01  1.915289354E+00  9.440688087E+00  1.481716947E+01  1.192092896E-07  0.00000E+00  9.000E+00
      21     1     1     2   511   513  1.334127694E+00 -3.603911589E+00  1.417962521E+02  1.418483175E+02  0.000000000E+00  0.00000E+00  9.000E+00
</event>
<event>
      5  10001  2.40292E+09  4.51953E+00 -1.00000E+00  2.51471E-01
       1    -1     0     0   512     0  0.000000000E+00  0.000000000E+00  9.051790736E+00  9.051790736E+00  0.000000000E+00  0.00000E+00  9.000E+00
      -1    -1     0     0     0   514  0.000000000E+00  0.000000000E+00 -4.184261568E+01  4.184261568E+01  0.000000000E+00  0.00000E+00  9.000E+00
      -1     1     1     2     0   513 -1.058794067E+01  4.304131579E+00 -2.963482892E+01  3.176416253E+01  3.300000131E-01  0.00000E+00  9.000E+00
       1     1     1     2   513     0  1.200010862E+01 -1.182415659E-02 -6.365366751E+00  1.358784533E+01  3.300000131E-01  0.00000E+00  9.000E+00
      21     1     1     2   512   514 -1.412167952E+00 -4.292307422E+00  3.209370723E+00  5.542398558E+00  1.264405455E-07  0.00000E+00  9.000E+00
</event>
<event>
      5  10001  2.40292E+09  9.38554E+00 -1.00000E+00  1.98935E-01
       1    -1     0     0   513     0  0.000000000E+00  0.000000000E+00  1.749450735E+02  1.749450735E+02  0.000000000E+00  0.00000E+00  9.000E+00
      21    -1     0     0   511   515  0.000000000E+00  0.000000000E+00 -1.688585052E+00  1.688585052E+00  0.000000000E+00  0.00000E+00  9.000E+00
      21     1     1     2   513   512  5.592321947E+00  1.296915925E+01  6.269979466E+01  6.427081302E+01  6.743495762E-07  0.00000E+00  9.000E+00
       1     1     1     2   511     0 -9.195292482E+00 -4.304242874E+00  7.009169700E+01  7.082397051E+01  3.300000131E-01  0.00000E+00  9.000E+00
      21     1     1     2   512   515  3.602970535E+00 -8.664916379E+00  4.046499679E+01  4.153887502E+01  6.743495762E-07  0.00000E+00  9.000E+00
</event>
<event>
      5  10001  2.40292E+09  1.17181E+01 -1.00000E+00  1.88066E-01
      21    -1     0     0   514   515  0.000000000E+00  0.000000000E+00  1.234582985E+01  1.234582985E+01  0.000000000E+00  0.00000E+00  9.000E+00
      21    -1     0     0   516   514  0.000000000E+00  0.000000000E+00 -6.388932765E+01  6.388932765E+01  0.000000000E+00  0.00000E+00  9.000E+00
      21     1     1     2   511   515 -1.163905206E+01  9.485328477E+00  5.018936690E+00  1.583125752E+01  4.298152060E-07  0.00000E+00  9.000E+00
      21     1     1     2   516   513  3.506896452E+00 -2.088960744E+00 -4.179701329E+01  4.199586170E+01  0.000000000E+00  0.00000E+00  9.000E+00
      21     1     1     2   513   511  8.132155606E+00 -7.396367732E+00 -1.476542119E+01  1.840803828E+01  2.384185791E-07  0.00000E+00  9.000E+00
</event>
<event>
      5  10001  2.40292E+09  1.28004E+01 -1.00000E+00  1.84076E-01
      21    -1     0     0   512   516  0.000000000E+00  0.000000000E+00  3.187392296E+01  3.187392296E+01  0.000000000E+00  0.00000E+00  9.000E+00
      21    -1     0     0   515   511  0.000000000E+00  0.000000000E+00 -3.568076071E+02  3.568076071E+02  0.000000000E+00  0.00000E+00  9.000E+00
      21     1     1     2   512   511 -1.240063918E+01 -1.226286297E+00  3.049892826E+01  3.294638456E+01  1.719260824E-06  0.00000E+00  9.000E+00
      21     1     1     2   515   514  6.165611194E+00  2.170147867E+00 -9.423371916E+01  9.446014043E+01  1.348699152E-06  0.00000E+00  9.000E+00
      21     1     1     2   514   516  6.235027989E+00 -9.438615701E-01 -2.611988932E+02  2.612750050E+02  5.394796609E-06  0.00000E+00  9.000E+00
</event>
<event>
      5  10001  2.40292E+09  1.18088E+01 -1.00000E+00  1.87711E-01
      21    -1     0     0   513   511  0.000000000E+00  0.000000000E+00  3.766278860E+01  3.766278860E+01  0.000000000E+00  0.00000E+00  9.000E+00
      21    -1     0     0   517   516  0.000000000E+00  0.000000000E+00 -2.866440364E+00  2.866440364E+00  0.000000000E+00  0.00000E+00  9.000E+00
      21     1     1     2   513   516  1.829143865E+00  8.213751827E+00  1.232019089E+01  1.491973826E+01  1.685873940E-07  0.00000E+00  9.000E+00
      21     1     1     2   512   511  3.426187118E+00 -2.731755128E+00  5.659129153E+00  7.157303054E+00  1.192092896E-07  0.00000E+00  9.000E+00
      21     1     1     2   517   512 -5.255330983E+00 -5.481996699E+00  1.681702820E+01  1.845218765E+01  2.384185791E-07  0.00000E+00  9.000E+00
</event>
<event>
      5  10001  2.40292E+09  4.33711E+00 -1.00000E+00  2.55355E-01
      21    -1     0     0   514   512  0.000000000E+00  0.000000000E+00  1.881308648E+01  1.881308648E+01  0.000000000E+00  0.00000E+00  9.000E+00
       1    -1     0     0   517     0  0.000000000E+00  0.000000000E+00 -1.045233015E+02  1.045233015E+02  0.000000000E+00  0.00000E+00  9.000E+00
      21     1     1     2   514   515 -1.636726307E+00 -1.301321944E+01  1.546618690E+01  2.027870042E+01  4.460403188E-07  0.00000E+00  9.000E+00
      21     1     1     2   517   512  3.358977991E+00  9.032813309E+00 -2.556239956E+01  2.731868812E+01  4.768371582E-07  0.00000E+00  9.000E+00
       1     1     1     2   515     0 -1.722251683E+00  3.980406132E+00 -7.561400234E+01  7.573899943E+01  3.300000131E-01  0.00000E+00  9.000E+00
</event>
<event>
      5  10001  2.40292E+09  4.48971E+00 -1.00000E+00  2.52087E-01
      21    -1     0     0   512   515  0.000000000E+00  0.000000000E+00  7.083692689E+01  7.083692689E+01  0.000000000E+00  0.00000E+00  9.000E+00
      21    -1     0     0   513   511  0.000000000E+00  0.000000000E+00 -1.350732535E+02  1.350732535E+02  0.000000000E+00  0.00000E+00  9.000E+00
      21     1     1     2   513   516  5.036112730E+00 -9.052775571E+00 -1.040677649E+02  1.045820963E+02  1.348699152E-06  0.00000E+00  9.000E+00
      21     1     1     2   516   515 -1.252999814E+00  1.147052652E+01 -2.959072715E+01  3.176088980E+01  7.539457465E-07  0.00000E+00  9.000E+00
      21     1     1     2   512   511 -3.783112916E+00 -2.417750950E+00  6.942216546E+01  6.956719428E+01  1.651812370E-06  0.00000E+00  9.000E+00
</event>
<event>
      5  10001  2.40292E+09  7.40624E+00 -1.00000E+00  2.12079E-01
      21    -1     0     0   514   515  0.000000000E+00  0.000000000E+00  2.470250385E+01  2.470250385E+01  0.000000000E+00  0.00000E+00  9.000E+00
      21    -1     0     0   513   517  0.000000000E+00  0.000000000E+00 -7.864458871E+01  7.864458871E+01  0.000000000E+00  0.00000E+00  9.000E+00
      21     1     1     2   514   517 -7.818802564E+00  5.255754838E+00 -1.864552338E+01  2.089048048E+01  5.840038640E-07  0.00000E+00  9.000E+00
      21     1     1     2   513   511  1.516089151E+01 -4.283058545E+00 -5.720262116E+01  5.933242865E+01  6.743495762E-07  0.00000E+00  9.000E+00
      21     1     1     2   511   515 -7.342088943E+00 -9.726962926E-01  2.190605969E+01  2.312418343E+01  5.840038640E-07  0.00000E+00  9.000E+00
</event>
<event>
      5  10001  2.40292E+09  8.88898E+00 -1.00000E+00  2.01800E-01
      21    -1     0     0   512   514  0.000000000E+00  0.000000000E+00  2.032183654E+02  2.032183654E+02  0.000000000E+00  0.00000E+00  9.000E+00
      21    -1     0     0   515   512  0.000000000E+00  0.000000000E+00 -8.024373241E+01  8.024373241E+01  0.000000000E+00  0.00000E+00  9.000E+00
      21     1     1     2   515   516  4.005186885E+00 -1.176355843E+01 -7.540494615E+01  7.642204350E+01  1.651812370E-06  0.00000E+00  9.000E+00
      21     1     1     2   516   513 -9.991631825E+00  5.192677517E+00  3.266526102E+00  1.172462362E+01  6.542950392E-07  0.00000E+00  9.000E+00
      21     1     1     2   513   514  5.986444940E+00  6.570880916E+00  1.951130530E+02  1.953154307E+02  3.814697266E-06  0.00000E+00  9.000E+00
</event>
<event>
      5  10001  2.40292E+09  8.49891E+00 -1.00000E+00  2.04230E-01
      21    -1     0     0   511   516  0.000000000E+00  0.000000000E+00  9.828473587E+00  9.828473587E+00  0.000000000E+00  0.00000E+00  9.000E+00
      21    -1     0     0   515   512  0.000000000E+00  0.000000000E+00 -5.921109145E+01  5.921109145E+01  0.000000000E+00  0.00000E+00  9.000E+00
      21     1     1     2   511   514 -1.321747487E+01 -6.069353290E-02 -2.489654076E+00  1.345004472E+01  4.969040156E-07  0.00000E+00  9.000E+00
      21     1     1     2   515   516  2.111035264E+01  3.212517719E+00 -3.378626975E+01  3.996847861E+01  6.743495762E-07  0.00000E+00  9.000E+00
      21     1     1     2   514   512 -7.892877774E+00 -3.151824186E+00 -1.310669403E+01  1.562104170E+01  1.685873940E-07  0.00000E+00  9.000E+00
</event>
<event>
      5  10001  2.40292E+09  8.03476E+00 -1.00000E+00  2.07359E-01
      21    -1     0     0   514   515  0.000000000E+00  0.000000000E+00  9.540255104E-02  9.540255104E-02  0.000000000E+00  0.00000E+00  9.000E+00
       2    -1     0     0   515     0  0.000000000E+00  0.000000000E+00 -1.398041940E+03  1.398041940E+03  0.000000000E+00  0.00000E+00  9.000E+00
      21     1     1     2   514   513 -4.874878348E+00  8.807805103E+00 -3.821991749E+02  3.823317293E+02  5.394796609E-06  0.00000E+00  9.000E+00
       2     1     1     2   511     0 -4.873935036E-01 -1.679757925E+00 -2.491812138E+02  2.491875706E+02  3.300000131E-01  0.00000E+00  9.000E+00
      21     1     1     2   513   511  5.362271852E+00 -7.128047178E+00 -7.665661484E+02  7.666180424E+02  0.000000000E+00  0.00000E+00  9.000E+00
</event>
<event>
      5  10001  2.40292E+09  7.31985E+00 -1.00000E+00  2.12778E-01
      21    -1     0     0   512   511  0.000000000E+00  0.000000000E+00  6.545818093E+01  6.545818093E+01  0.000000000E+00  0.00000E+00  9.000E+00
      21    -1     0     0   515   512  0.000000000E+00  0.000000000E+00 -1.010763180E+01  1.010763180E+01  0.000000000E+00  0.00000E+00  9.000E+00
      21     1     1     2   515   516  1.732320428E+00  9.009113184E+00 -6.461978707E+00  1.122150717E+01  3.039252468E-07  0.00000E+00  9.000E+00
      21     1     1     2   514   511 -3.991462283E+00 -4.353464357E+00  5.691089669E+01  5.721655866E+01  0.000000000E+00  0.00000E+00  9.000E+00
      21     1     1     2   516   514  2.259141855E+00 -4.655648827E+00  4.901631150E+00  7.127746898E+00  1.032382731E-07  0.00000E+00  9.000E+00
</event>
<event>
      5  10001  2.40292E+09  1.12698E+01 -1.00000E+00  1.89886E-01
      21    -1     0     0   513   511  0.000000000E+00  0.000000000E+00  1.805430718E+00  1.805430718E+00  0.000000000E+00  0.00000E+00  9.000E+00
       1    -1     0     0   514     0  0.000000000E+00  0.000000000E+00 -9.256347137E+01  9.256347137E+01  0.000000000E+00  0.00000E+00  9.000E+00
      21     1     1     2   514   511  6.738821246E+00  9.595364631E+00 -3.798576758E+01  3.975426107E+01  4.768371582E-07  0.00000E+00  9.000E+00
       1     1     1     2   512     0 -1.606554393E+00 -2.032514301E+00 -2.944697934E+01  2.956257133E+01  3.300000131E-01  0.00000E+00  9.000E+00
      21     1     1     2   513   512 -5.132266853E+00 -7.562850330E+00 -2.332529373E+01  2.505206969E+01  3.371747881E-07  0.00000E+00  9.000E+00
</event>
<event>
      5  10001  2.40292E+09  1.25831E+01 -1.00000E+00  1.84836E-01
       2    -1     0     0   515     0  0.000000000E+00  0.000000000E+00  3.899693741E+02  3.899693741E+02  0.000000000E+00  0.00000E+00  9.000E+00
      21    -1     0     0   512   515  0.000000000E+00  0.000000000E+00 -9.373778728E-01  9.373778728E-01  0.000000000E+00  0.00000E+00  9.000E+00
      21     1     1     2   512   513 -9.612217360E+00  2.947048632E+00  3.723505320E+01  3.856849757E+01  6.743495762E-07  0.00000E+00  9.000E+00
      21     1     1     2   513   511  4.237364099E+00 -9.064917063E+00  2.559100701E+02  2.561056266E+02  2.697398305E-06  0.00000E+00  9.000E+00
       2     1     1     2   511     0  5.374853260E+00  6.117868431E+00  9.588687289E+01  9.623262780E+01  3.300000131E-01  0.00000E+00  9.000E+00
</event>
<event>
      5  10001  2.40292E+09  5.02164E+00 -1.00000E+00  2.38101E-01
      21    -1     0     0   514   513  0.000000000E+00  0.000000000E+00  7.239499939E+01  7.239499939E+01  0.000000000E+00  0.00000E+00  9.000E+00
      21    -1     0     0   516   514  0.000000000E+00  0.000000000E+00 -1.811305318E+01  1.811305318E+01  0.000000000E+00  0.00000E+00  9.000E+00
      21     1     1     2   516   512 -8.811849853E+00 -6.937456842E+00 -1.533318493E+01  1.899693568E+01  3.769728732E-07  0.00000E+00  9.000E+00
      21     1     1     2   515   513  9.061209505E+00  9.842393591E+00  5.940897663E+01  6.089667260E+01  0.000000000E+00  0.00000E+00  9.000E+00
      21     1     1     2   512   515 -2.493596518E-01 -2.904936749E+00  1.020615451E+01  1.061444429E+01  1.192092896E-07  0.00000E+00  9.000E+00
</event>
<event>
      5  10001  2.40292E+09  3.14666E+00 -1.00000E+00  2.90583E-01
       4    -1     0     0   514     0  0.000000000E+00  0.000000000E+00  2.416791707E+01  2.416791707E+01  0.000000000E+00  0.00000E+00  9.000E+00
      21    -1     0     0   512   513  0.000000000E+00  0.000000000E+00 -3.610677267E+02  3.610677267E+02  0.000000000E+00  0.00000E+00  9.000E+00
      21     1     1     2   512   511 -1.112647586E+01 -5.258720494E+00  3.396979722E+00  1.276683506E+01  2.665600750E-07  0.00000E+00  9.000E+00
       4     1     1     2   511     0  9.123777692E+00  7.685399261E+00  1.383139237E+01  1.832664989E+01  1.500000000E+00  0.00000E+00  9.000E+00
      21     1     1     2   514   513  2.002698163E+00 -2.426678766E+00 -3.541281817E+02  3.541421588E+02  3.814697266E-06  0.00000E+00  9.000E+00
</event>
<event>
      5  10001  2.40292E+09  5.83083E+00 -1.00000E+00  2.27338E-01
      21    -1     0     0   515   511  0.000000000E+00  0.000000000E+00  8.781652557E+00  8.781652557E+00  0.000000000E+00  0.00000E+00  9.000E+00
      21    -1     0     0   512   516  0.000000000E+00  0.000000000E+00 -1.472727413E+02  1.472727413E+02  0.000000000E+00  0.00000E+00  9.000E+00
      21     1     1     2   515   516 -6.258164507E+00 -7.763856682E+00 -1.427402976E+02  1.430882059E+02  1.907348633E-06  0.00000E+00  9.000E+00
      21     1     1     2   517   511  8.922148543E-01  6.642097859E+00  3.006012985E+00  7.345040870E+00  1.931411236E-07  0.00000E+00  9.000E+00
      21     1     1     2   512   517  5.365949653E+00  1.121758822E+00  1.243195920E+00  5.621147092E+00  2.706930358E-07  0.00000E+00  9.000E+00
</event>
<event>
      5  10001  2.40292E+09  5.88659E+00 -1.00000E+00  2.26687E-01
      21    -1     0     0   512   511  0.000000000E+00  0.000000000E+00  4.236254761E+01  4.236254761E+01  0.000000000E+00  0.00000E+00  9.000E+00
      -3    -1     0     0     0   514  0.000000000E+00  0.000000000E+00 -9.081847188E+01  9.081847188E+01  0.000000000E+00  0.00000E+00  9.000E+00
      -3     1     1     2     0   511  1.341537678E+01 -4.343082301E+00 -3.991126450E+01  4.233194695E+01  5.000000000E-01  0.00000E+00  9.000E+00
      21     1     1     2   512   513 -8.272780285E+00  7.207232049E+00  4.024080067E+01  4.170977255E+01  8.259061849E-07  0.00000E+00  9.000E+00
      21     1     1     2   513   514 -5.142596498E+00 -2.864149748E+00 -4.878546044E+01  4.913929999E+01  6.743495762E-07  0.00000E+00  9.000E+00
</event>
<event>
      5  10001  2.40292E+09  1.05030E+01 -1.00000E+00  1.93268E-01
      21    -1     0     0   515   512  0.000000000E+00  0.000000000E+00  3.166833384E+02  3.166833384E+02  0.000000000E+00  0.00000E+00  9.000E+00
      21    -1     0     0   511   516  0.000000000E+00  0.000000000E+00 -1.582524299E+01  1.582524299E+01  0.000000000E+00  0.00000E+00  9.000E+00
      21     1     1     2   515   516  1.260482171E+01  6.135286782E+00  3.081493969E+01  3.385385920E+01  3.371747881E-07  0.00000E+00  9.000E+00
      21     1     1     2   511   514 -1.346615504E+01  4.332320055E+00 -1.068646096E+01  1.772869924E+01  4.768371582E-07  0.00000E+00  9.000E+00
      21     1     1     2   514   512  8.613333328E-01 -1.046760684E+01  2.807296167E+02  2.809260230E+02  0.000000000E+00  0.00000E+00  9.000E+00
</event>
<event>
      5  10001  2.40292E+09  8.03064E+00 -1.00000E+00  2.07388E-01
       4    -1     0     0   511     0  0.000000000E+00  0.000000000E+00  5.150297541E-01  5.150297541E-01  0.000000000E+00  0.00000E+00  9.000E+00
      21    -1     0     0   513   514  0.000000000E+00  0.000000000E+00 -2.057607212E+02  2.057607212E+02  0.000000000E+00  0.00000E+00  9.000E+00
      21     1     1     2   511   515 -3.632027207E+00  1.709266492E+00 -7.448403427E+01  7.459212139E+01  9.536743164E-07  0.00000E+00  9.000E+00
       4     1     1     2   513     0  5.917733874E+00 -6.866424724E+00 -9.895455140E+01  9.938018216E+01  1.500000000E+00  0.00000E+00  9.000E+00
      21     1     1     2   515   514 -2.285706668E+00  5.157158233E+00 -3.180710575E+01  3.230344737E+01  4.768371582E-07  0.00000E+00  9.000E+00
</event>
<event>
      5  10001  2.40292E+09  9.64135E+00 -1.00000E+00  1.97549E-01
       2    -1     0     0   513     0  0.000000000E+00  0.000000000E+00  2.720438174E+00  2.720438174E+00  0.000000000E+00  0.00000E+00  9.000E+00
      21    -1     0     0   512   514  0.000000000E+00  0.000000000E+00 -5.602157191E+01  5.602157191E+01  0.000000000E+00  0.00000E+00  9.000E+00
      21     1     1     2   513   511 -5.513062293E+00 -2.291110834E+00 -5.090704729E+00  7.845910995E+00  1.192092896E-07  0.00000E+00  9.000E+00
       2     1     1     2   512     0  9.435191556E+00 -2.832605180E+00 -2.849703096E+01  3.015354317E+01  3.300000131E-01  0.00000E+00  9.000E+00
      21     1     1     2   511   514 -3.922129263E+00  5.123716014E+00 -1.971339804E+01  2.074255592E+01  4.768371582E-07  0.00000E+00  9.000E+00
</event>
<event>
      5  10001  2.40292E+09  1.63817E+01 -1.00000E+00  1.73807E-01
      21    -1     0     0   515   511  0.000000000E+00  0.000000000E+00  1.860329720E+02  1.860329720E+02  0.000000000E+00  0.00000E+00  9.000E+00
      21    -1     0     0   516   512  0.000000000E+00  0.000000000E+00 -8.541503566E+00  8.541503566E+00  0.000000000E+00  0.00000E+00  9.000E+00
      21     1     1     2   516   514  1.797473482E+01 -1.525721437E+01  2.811266753E+01  3.669054044E+01  6.743495762E-07  0.00000E+00  9.000E+00
      21     1     1     2   514   511 -8.469624438E+00  1.915053727E+00  1.371915084E+02  1.374660392E+02  0.000000000E+00  0.00000E+00  9.000E+00
      21     1     1     2   515   512 -9.505110377E+00  1.334216064E+01  1.218729251E+01  2.041789589E+01  2.920019320E-07  0.00000E+00  9.000E+00
</event>
<event>
      5  10001  2.40292E+09  3.95863E+00 -1.00000E+00  2.64429E-01
      21    -1     0     0   513   512  0.000000000E+00  0.000000000E+00  3.020446245E+00  3.020446245E+00  0.000000000E+00  0.00000E+00  9.000E+00
      21    -1     0     0   516   517  0.000000000E+00  0.000000000E+00 -6.964976522E+01  6.964976522E+01  0.000000000E+00  0.00000E+00  9.000E+00
      21     1     1     2   513   517 -3.445128100E+00  1.142684400E+01 -1.343189566E+01  1.796823565E+01  1.685873940E-07  0.00000E+00  9.000E+00
      21     1     1     2   511   512  1.239155281E+00 -5.448505389E+00 -3.447342431E+01  3.492332602E+01  0.000000000E+00  0.00000E+00  9.000E+00
      21     1     1     2   516   511  2.205972819E+00 -5.978338615E+00 -1.872399901E+01  1.977864979E+01  3.371747881E-07  0.00000E+00  9.000E+00
</event>
<event>
      5  10001  2.40292E+09  1.10044E+01 -1.00000E+00  1.91016E-01
      21    -1     0     0   514   511  0.000000000E+00  0.000000000E+00  2.204783040E+01  2.204783040E+01  0.000000000E+00  0.00000E+00  9.000E+00
      21    -1     0     0   515   514  0.000000000E+00  0.000000000E+00 -5.665586672E+01  5.665586672E+01  0.000000000E+00  0.00000E+00  9.000E+00
      21     1     1     2   515   516  9.183299247E+00  3.175074290E+00 -4.995756234E+01  5.089373357E+01  6.743495762E-07  0.00000E+00  9.000E+00
      21     1     1     2   512   511 -1.325330023E+01 -8.438319797E+00  1.395032089E+01  2.101110804E+01  2.384185791E-07  0.00000E+00  9.000E+00
      21     1     1     2   516   512  4.070000984E+00  5.263245507E+00  1.399205130E+00  6.798855512E+00  1.365713982E-07  0.00000E+00  9.000E+00
</event>
<event>
      5  10001  2.40292E+09  4.37780E+00 -1.00000E+00  2.54463E-01
      21    -1     0     0   513   511  0.000000000E+00  0.000000000E+00  8.629897556E+00  8.629897556E+00  0.000000000E+00  0.00000E+00  9.000E+00
      21    -1     0     0   517   513  0.000000000E+00  0.000000000E+00 -1.318609289E+01  1.318609289E+01  0.000000000E+00  0.00000E+00  9.000E+00
      21     1     1     2   512   511 -2.081509624E-01  9.647216393E+00  4.104766561E-01  9.658188342E+00  1.202524632E-07  0.00000E+00  9.000E+00
      21     1     1     2   517   514 -2.236008917E+00 -6.555413076E+00 -1.952799193E+00  7.196290792E+00  1.645887050E-07  0.00000E+00  9.000E+00
      21     1     1     2   514   512  2.444159879E+00 -3.091803317E+00 -3.013872800E+00  4.961511314E+00  1.115100797E-07  0.00000E+00  9.000E+00
</event>
<event>
      5  10001  2.40292E+09  8.44263E+00 -1.00000E+00  2.04595E-01
      21    -1     0     0   515   516  0.000000000E+00  0.000000000E+00  3.306018103E-01  3.306018103E-01  0.000000000E+00  0.00000E+00  9.000E+00
      21    -1     0     0   511   512  0.000000000E+00  0.000000000E+00 -6.146419265E+02  6.146419265E+02  0.000000000E+00  0.00000E+00  9.000E+00
      21     1     1     2   515   512  4.732583229E+00 -9.012847005E+00 -4.950506256E+02  4.951552793E+02  5.394796609E-06  0.00000E+00  9.000E+00
      -2     1     1     2     0   516 -3.362294657E+00  1.254872828E+00 -4.256063302E+01  4.271295020E+01  3.300000131E-01  0.00000E+00  9.000E+00
       2     1     1     2   511     0 -1.370288572E+00  7.757974177E+00 -7.670006603E+01  7.710429873E+01  3.300000131E-01  0.00000E+00  9.000E+00
</event>
<event>
      5  10001  2.40292E+09  3.39137E+00 -1.00000E+00  2.81466E-01
       2    -1     0     0   511     0  0.000000000E+00  0.000000000E+00  4.485467246E+02  4.485467246E+02  0.000000000E+00  0.00000E+00  9.000E+00
       2    -1     0     0   512     0  0.000000000E+00  0.000000000E+00 -4.583145712E+00  4.583145712E+00  0.000000000E+00  0.00000E+00  9.000E+00
       2     1     1     2   511     0  4.074543077E+00 -1.103875592E+01  1.682014830E+01  2.053003464E+01  3.300000131E-01  0.00000E+00  9.000E+00
       2     1     1     2   513     0 -2.200349220E+00  8.212482586E+00  4.287590187E+02  4.288434347E+02  3.300000131E-01  0.00000E+00  9.000E+00
      21     1     1     2   512   513 -1.874193857E+00  2.826273332E+00 -1.615588139E+00  3.756401016E+00  3.507316797E-07  0.00000E+00  9.000E+00
</event>
<event>
      5  10001  2.40292E+09  1.29127E+01 -1.00000E+00  1.83691E-01
      21    -1     0     0   514   513  0.000000000E+00  0.000000000E+00  2.640365280E+01  2.640365280E+01  0.000000000E+00  0.00000E+00  9.000E+00
      21    -1     0     0   511   515  0.000000000E+00  0.000000000E+00 -4.380790667E+02  4.380790667E+02  0.000000000E+00  0.00000E+00  9.000E+00
      21     1     1     2   514   515 -1.758094256E+01 -3.115169019E+01  9.807400345E+00  3.709046299E+01  1.479348379E-06  0.00000E+00  9.000E+00
      21     1     1     2   512   513  3.035978744E+01  3.300604217E+01 -1.778275548E+02  1.833950783E+02  0.000000000E+00  0.00000E+00  9.000E+00
      21     1     1     2   511   512 -1.277884488E+01 -1.854351978E+00 -2.436552595E+02  2.439971782E+02  0.000000000E+00  0.00000E+00  9.000E+00
</event>
<event>
      5  10001  2.40292E+09  4.42856E+00 -1.00000E+00  2.53372E-01
      21    -1     0     0   511   513  0.000000000E+00  0.000000000E+00  2.453808885E+01  2.453808885E+01  0.000000000E+00  0.00000E+00  9.000E+00
      -1    -1     0     0     0   516  0.000000000E+00  0.000000000E+00 -1.336251872E+02  1.336251872E+02  0.000000000E+00  0.00000E+00  9.000E+00
      -1     1     1     2     0   512 -4.448997746E+00  1.251280485E+01 -1.248026216E+02  1.255076378E+02  3.300000131E-01  0.00000E+00  9.000E+00
      21     1     1     2   511   516  5.413482264E+00 -8.190591086E+00 -5.314751821E+00  1.116414616E+01  3.908537939E-07  0.00000E+00  9.000E+00
      21     1     1     2   512   513 -9.644845184E-01 -4.322213760E+00  2.103027512E+01  2.149149213E+01  6.743495762E-07  0.00000E+00  9.000E+00
</event>
<event>
      5  10001  2.40292E+09  5.12779E+00 -1.00000E+00  2.36530E-01
      21    -1     0     0   515   513  0.000000000E+00  0.000000000E+00  3.766387883E+01  3.766387883E+01  0.000000000E+00  0.00000E+00  9.000E+00
      -1    -1     0     0     0   514  0.000000000E+00  0.000000000E+00 -4.842063790E+01  4.842063790E+01  0.000000000E+00  0.00000E+00  9.000E+00
      -1     1     1     2     0   513  1.250087472E+00 -1.180862116E+01 -4.640798322E+01  4.790423842E+01  3.300000131E-01  0.00000E+00  9.000E+00
      21     1     1     2   511   514 -3.192741894E+00  5.405435388E+00  2.332321355E+01  2.415335635E+01  5.840038640E-07  0.00000E+00  9.000E+00
      21     1     1     2   515   511  1.942654423E+00  6.403185768E+00  1.232801060E+01  1.402692196E+01  3.769728732E-07  0.00000E+00  9.000E+00
</event>
<event>
      5  10001  2.40292E+09  6.63909E+00 -1.00000E+00  2.18781E-01
       1    -1     0     0   514     0  0.000000000E+00  0.000000000E+00  9.124507043E+02  9.124507043E+02  0.000000000E+00  0.00000E+00  9.000E+00
      21    -1     0     0   511   513  0.000000000E+00  0.000000000E+00 -8.732373616E+00  8.732373616E+00  0.000000000E+00  0.00000E+00  9.000E+00
      21     1     1     2   511   512  1.440147047E+01 -5.273716940E-02  2.333731003E+01  2.742325970E+01  2.654916936E-06  0.00000E+00  9.000E+00
       1     1     1     2   512     0 -1.213632464E+01  6.293432894E+00  8.853572342E+02  8.854628387E+02  3.300000131E-01  0.00000E+00  9.000E+00
      21     1     1     2   514   513 -2.265145828E+00 -6.240695725E+00 -4.976213513E+00  8.296979551E+00  6.474721725E-07  0.00000E+00  9.000E+00
</event>
<event>
      5  10001  2.40292E+09  4.67305E+00 -1.00000E+00  2.48413E-01
      21    -1     0     0   515   511  0.000000000E+00  0.000000000E+00  3.608707741E+01  3.608707741E+01  0.000000000E+00  0.00000E+00  9.000E+00
      21    -1     0     0   516   515  0.000000000E+00  0.000000000E+00 -2.283292838E+01  2.283292838E+01  0.000000000E+00  0.00000E+00  9.000E+00
      21     1     1     2   513   511 -1.412809064E+01 -4.318400716E+00  3.117145981E+01  3.449509293E+01  3.371747881E-07  0.00000E+00  9.000E+00
      21     1     1     2   516   512  1.063299195E+01  6.472169362E+00 -1.266040338E+01  1.775486715E+01  3.371747881E-07  0.00000E+00  9.000E+00
      21     1     1     2   512   513  3.495098690E+00 -2.153768645E+00 -5.256907406E+00  6.670045705E+00  5.960464478E-08  0.00000E+00  9.000E+00
</event>
<event>
      5  10001  2.40292E+09  1.89313E+01 -1.00000E+00  1.68319E-01
      21    -1     0     0   514   512  0.000000000E+00  0.000000000E+00  4.358959698E+01  4.358959698E+01  0.000000000E+00  0.00000E+00  9.000E+00
      21    -1     0     0   517   514  0.000000000E+00  0.000000000E+00 -3.198767723E+01  3.198767723E+01  0.000000000E+00  0.00000E+00  9.000E+00
      21     1     1     2   516   512 -2.463012684E+01 -1.808527856E+01  2.037681960E+01  3.672785354E+01  7.152557373E-07  0.00000E+00  9.000E+00
      21     1     1     2   511   516  1.754882858E+01  2.634360886E+00 -1.216951574E+01  2.151739657E+01  2.920019320E-07  0.00000E+00  9.000E+00
      21     1     1     2   517   511  7.081298255E+00  1.545091767E+01  3.394615892E+00  1.733202409E+01  4.986882368E-07  0.00000E+00  9.000E+00
</event>
<event>
      5  10001  2.40292E+09  4.13695E+00 -1.00000E+00  2.59967E-01
       1    -1     0     0   514     0  0.000000000E+00  0.000000000E+00  2.761948084E+00  2.761948084E+00  0.000000000E+00  0.00000E+00  9.000E+00
       2    -1     0     0   512     0  0.000000000E+00  0.000000000E+00 -6.398527356E+02  6.398527356E+02  0.000000000E+00  0.00000E+00  9.000E+00
       1     1     1     2   513     0  1.296880167E+01 -7.524567243E+00 -1.892587389E+01  2.414759887E+01  3.300000131E-01  0.00000E+00  9.000E+00
       2     1     1     2   514     0 -1.011111673E+01  1.051566886E+01 -4.066398481E+02  4.069015716E+02  3.300000131E-01  0.00000E+00  9.000E+00
      21     1     1     2   512   513 -2.857684936E+00 -2.991101617E+00 -2.115250654E+02  2.115655132E+02  2.697398305E-06  0.00000E+00  9.000E+00
</event>
<event>
      5  10001  2.40292E+09  1.17608E+01 -1.00000E+00  1.87899E-01
       1    -1     0     0   512     0  0.000000000E+00  0.000000000E+00  2.943258035E+01  2.943258035E+01  0.000000000E+00  0.00000E+00  9.000E+00
      21    -1     0     0   511   514  0.000000000E+00  0.000000000E+00 -5.615679068E+00  5.615679068E+00  0.000000000E+00  0.00000E+00  9.000E+00
      21     1     1     2   512   514 -5.534683173E+00  9.768565715E+00  6.548257831E+00  1.299758726E+01  8.429369702E-08  0.00000E+00  9.000E+00
       1     1     1     2   515     0 -8.979079422E-01 -2.493394086E+00  8.696669261E+00  9.097483663E+00  3.300000131E-01  0.00000E+00  9.000E+00
      21     1     1     2   511   515  6.432591116E+00 -7.275171629E+00  8.571974191E+00  1.295318850E+01  1.192092896E-07  0.00000E+00  9.000E+00
</event>
<event>
      5  10001  2.40292E+09  1.98788E+01 -1.00000E+00  1.66545E-01
      21    -1     0     0   513   516  0.000000000E+00  0.000000000E+00  4.446299353E+02  4.446299353E+02  0.000000000E+00  0.00000E+00  9.000E+00
      21    -1     0     0   511   513  0.000000000E+00  0.000000000E+00 -4.147441696E+01  4.147441696E+01  0.000000000E+00  0.00000E+00  9.000E+00
      21     1     1     2   515   516 -1.002017484E+01  6.098317544E+00  4.421299321E+02  4.422855076E+02  1.078959322E-05  0.00000E+00  9.000E+00
      21     1     1     2   512   515  6.314954255E+00  5.170950306E+00 -1.555112360E+01  1.756288186E+01  1.685873940E-07  0.00000E+00  9.000E+00
      21     1     1     2   511   512  3.705220586E+00 -1.126926785E+01 -2.342329019E+01  2.625596277E+01  7.539457465E-07  0.00000E+00  9.000E+00
</event>
<event>
      5  10001  2.40292E+09  7.49863E+00 -1.00000E+00  2.11346E-01
      21    -1     0     0   514   512  0.000000000E+00  0.000000000E+00  3.466497013E+00  3.466497013E+00  0.000000000E+00  0.00000E+00  9.000E+00
      21    -1     0     0   513   517  0.000000000E+00  0.000000000E+00 -7.198043346E+01  7.198043346E+01  0.000000000E+00  0.00000E+00  9.000E+00
      21     1     1     2   514   517 -4.663684482E+00 -7.770338094E+00 -2.653282929E+01  2.803781620E+01  0.000000000E+00  0.00000E+00  9.000E+00
      21     1     1     2   511   512  1.207042389E+01  6.599981533E+00 -2.078153997E+01  2.492242550E+01  3.371747881E-07  0.00000E+00  9.000E+00
      21     1     1     2   513   511 -7.406739411E+00  1.170356561E+00 -2.119956719E+01  2.248668877E+01  2.384185791E-07  0.00000E+00  9.000E+00
</event>
<event>
      5  10001  2.40292E+09  5.53596E+00 -1.00000E+00  2.30959E-01
       1    -1     0     0   513     0  0.000000000E+00  0.000000000E+00  7.083237958E+02  7.083237958E+02  0.000000000E+00  0.00000E+00  9.000E+00
      21    -1     0     0   515   511  0.000000000E+00  0.000000000E+00 -7.381924175E-01  7.381924175E-01  0.000000000E+00  0.00000E+00  9.000E+00
      21     1     1     2   513   512 -6.858621004E+00 -8.409414400E+00  5.153646954E+01  5.266656078E+01  6.743495762E-07  0.00000E+00  9.000E+00
       1     1     1     2   515     0  1.055295320E+01  5.807018151E+00  6.112912542E+02  6.114100037E+02  3.300000131E-01  0.00000E+00  9.000E+00
      21     1     1     2   512   511 -3.694332201E+00  2.602396249E+00  4.475787962E+01  4.498542369E+01  8.259061849E-07  0.00000E+00  9.000E+00
</event>
<event>
      5  10001  2.40292E+09  1.02777E+01 -1.00000E+00  1.94335E-01
      21    -1     0     0   514   515  0.000000000E+00  0.000000000E+00  8.976111088E-01  8.976111088E-01  0.000000000E+00  0.00000E+00  9.000E+00
       2    -1     0     0   512     0  0.000000000E+00  0.000000000E+00 -8.488141170E+02  8.488141170E+02  0.000000000E+00  0.00000E+00  9.000E+00
      21     1     1     2   513   515  7.051560658E-01  4.548237443E+00 -7.163265540E+00  8.514463113E+00  3.576278687E-07  0.00000E+00  9.000E+00
       2     1     1     2   514     0  7.022803206E+00 -8.104576751E+00 -7.422014703E+02  7.422790145E+02  3.300000131E-01  0.00000E+00  9.000E+00
      21     1     1     2   512   513 -7.727959272E+00  3.556339308E+00 -9.855177005E+01  9.891825051E+01  1.348699152E-06  0.00000E+00  9.000E+00
</event>
<event>
      5  10001  2.40292E+09  1.30677E+01 -1.00000E+00  1.83167E-01
       1    -1     0     0   512     0  0.000000000E+00  0.000000000E+00  1.103182730E+02  1.103182730E+02  0.000000000E+00  0.00000E+00  9.000E+00
      21    -1     0     0   511   514  0.000000000E+00  0.000000000E+00 -1.518689140E+00  1.518689140E+00  0.000000000E+00  0.00000E+00  9.000E+00
      21     1     1     2   512   514  3.119324189E+00 -8.052028633E+00  4.138704048E+01  4.227827418E+01  8.259061849E-07  0.00000E+00  9.000E+00
      21     1     1     2   511   515 -4.249097312E-01  5.752177089E+00  7.128329366E+00  9.169578458E+00  2.064765462E-07  0.00000E+00  9.000E+00
       1     1     1     2   515     0 -2.694414458E+00  2.299851545E+00  6.028421401E+01  6.038910949E+01  3.300000131E-01  0.00000E+00  9.000E+00
</event>
<event>
      5  10001  2.40292E+09  3.41669E+00 -1.00000E+00  2.80594E-01
      21    -1     0     0   511   512  0.000000000E+00  0.000000000E+00  1.021571914E+01  1.021571914E+01  0.000000000E+00  0.00000E+00  9.000E+00
      -1    -1     0     0     0   513  0.000000000E+00  0.000000000E+00 -2.845961200E+01  2.845961200E+01  0.000000000E+00  0.00000E+00  9.000E+00
      21     1     1     2   511   515  1.233561916E+01  9.608157772E-01 -9.951718418E+00  1.587851902E+01  1.685873940E-07  0.00000E+00  9.000E+00
      21     1     1     2   515   513 -1.490796943E+01 -3.207856082E+00 -1.672553494E+00  1.534064302E+01  6.322027277E-08  0.00000E+00  9.000E+00
      -1     1     1     2     0   512  2.572350273E+00  2.247040305E+00 -6.619620954E+00  7.456169100E+00  3.300000131E-01  0.00000E+00  9.000E+00
</event>
<event>
      5  10001  2.40292E+09  5.14793E+00 -1.00000E+00  2.36238E-01
       2    -1     0     0   514     0  0.000000000E+00  0.000000000E+00  4.180511268E+02  4.180511268E+02  0.000000000E+00  0.00000E+00  9.000E+00
      21    -1     0     0   516   512  0.000000000E+00  0.000000000E+00 -2.420378996E+00  2.420378996E+00  0.000000000E+00  0.00000E+00  9.000E+00
      21     1     1     2   514   512 -2.285750349E+00  1.433767656E+01  2.626296518E+01  3.000894807E+01  8.259061849E-07  0.00000E+00  9.000E+00
      21     1     1     2   516   515  3.943131601E+00 -9.464016594E+00  4.925898861E+01  5.031464852E+01  6.743495762E-07  0.00000E+00  9.000E+00
       2     1     1     2   515     0 -1.657381253E+00 -4.873659970E+00  3.401087940E+02  3.401479092E+02  3.300000131E-01  0.00000E+00  9.000E+00
</event>
<event>
      5  10001  2.40292E+09  1.61355E+01 -1.00000E+00  1.74403E-01
      21    -1     0     0   511   512  0.000000000E+00  0.000000000E+00  1.661803987E+02  1.661803987E+02  0.000000000E+00  0.00000E+00  9.000E+00
       2    -1     0     0   517     0  0.000000000E+00  0.000000000E+00 -5.485978533E+01  5.485978533E+01  0.000000000E+00  0.00000E+00  9.000E+00
      21     1     1     2   511   513  2.884031370E+01 -4.359048373E+00  1.093452780E+01  3.115010266E+01  5.462855929E-07  0.00000E+00  9.000E+00
      21     1     1     2   517   512 -1.291553459E+01  1.760029721E+00  1.433777237E+02  1.439690258E+02  2.697398305E-06  0.00000E+00  9.000E+00
       2     1     1     2   513     0 -1.592477911E+01  2.599018652E+00 -4.299163817E+01  4.592105552E+01  3.300000131E-01  0.00000E+00  9.000E+00
</event>
<event>
      5  10001  2.40292E+09  2.51414E+01 -1.00000E+00  1.58530E-01
       1    -1     0     0   511     0  0.000000000E+00  0.000000000E+00  7.384227937E+00  7.384227937E+00  0.000000000E+00  0.00000E+00  9.000E+00
      21    -1     0     0   513   511  0.000000000E+00  0.000000000E+00 -3.770410138E+01  3.770410138E+01  0.000000000E+00  0.00000E+00  9.000E+00
      21     1     1     2   513   514 -6.916158059E+00 -1.938690357E+00 -1.049397575E+01  1.271673267E+01  1.192092896E-07  0.00000E+00  9.000E+00
      21     1     1     2   514   512  7.443817119E+00 -8.863219786E+00 -1.799796099E+01  2.139845036E+01  2.384185791E-07  0.00000E+00  9.000E+00
       1     1     1     2   512     0 -5.276590599E-01  1.080191014E+01 -1.827936702E+00  1.097314629E+01  3.300000131E-01  0.00000E+00  9.000E+00
</event>
<event>
      5  10001  2.40292E+09  1.49227E+01 -1.00000E+00  1.77547E-01
      21    -1     0     0   515   514  0.000000000E+00  0.000000000E+00  3.700341657E+02  3.700341657E+02  0.000000000E+00  0.00000E+00  9.000E+00
      21    -1     0     0   516   515  0.000000000E+00  0.000000000E+00 -4.748396154E+01  4.748396154E+01  0.000000000E+00  0.00000E+00  9.000E+00
      21     1     1     2   516   513 -2.569368023E+00 -1.338899120E+01 -4.547883593E+01  4.747832405E+01  2.431401974E-06  0.00000E+00  9.000E+00
      21     1     1     2   511   514  1.131505321E+01  3.581193517E+00  3.207236680E+02  3.209431828E+02  5.394796609E-06  0.00000E+00  9.000E+00
      21     1     1     2   513   511 -8.745685185E+00  9.807797680E+00  4.730537214E+01  4.909662044E+01  0.000000000E+00  0.00000E+00  9.000E+00
</event>
<event>
      5  10001  2.40292E+09  5.01326E+00 -1.00000E+00  2.38228E-01
      21    -1     0     0   512   511  0.000000000E+00  0.000000000E+00  1.135743389E+00  1.135743389E+00  0.000000000E+00  0.00000E+00  9.000E+00
      21    -1     0     0   513   517  0.000000000E+00  0.000000000E+00 -1.229171621E+02  1.229171621E+02  0.000000000E+00  0.00000E+00  9.000E+00
      21     1     1     2   512   517  6.134407285E+00 -8.512703568E+00 -3.917150610E+01  4.055248408E+01  4.768371582E-07  0.00000E+00  9.000E+00
      21     1     1     2   513   514 -5.861588742E+00  4.805129882E+00 -3.882093385E+01  3.955391764E+01  8.259061849E-07  0.00000E+00  9.000E+00
      21     1     1     2   514   511 -2.728185433E-01  3.707573685E+00 -4.378897876E+01  4.394650376E+01  4.768371582E-07  0.00000E+00  9.000E+00
</event>
<event>
      5  10001  2.40292E+09  1.94415E+01 -1.00000E+00  1.67348E-01
      21    -1     0     0   515   513  0.000000000E+00  0.000000000E+00  6.585685940E+01  6.585685940E+01  0.000000000E+00  0.00000E+00  9.000E+00
      21    -1     0     0   516   511  0.000000000E+00  0.000000000E+00 -2.919066852E+01  2.919066852E+01  0.000000000E+00  0.00000E+00  9.000E+00
      21     1     1     2   515   511 -3.747164748E+00 -8.520492214E+00  5.606270743E+01  5.683016096E+01  6.743495762E-07  0.00000E+00  9.000E+00
      21     1     1     2   516   512  2.801300977E+00  1.998037648E+01 -1.719629348E+01  2.650990835E+01  1.118282261E-06  0.00000E+00  9.000E+00
      21     1     1     2   512   513  9.458637710E-01 -1.145988426E+01 -2.200223071E+00  1.170745861E+01  3.475518164E-07  0.00000E+00  9.000E+00
</event>
<event>
      5  10001  2.40292E+09  1.12666E+01 -1.00000E+00  1.89900E-01
      21    -1     0     0   514   512  0.000000000E+00  0.000000000E+00  1.192714161E+01  1.192714161E+01  0.000000000E+00  0.00000E+00  9.000E+00
      21    -1     0     0   513   514  0.000000000E+00  0.000000000E+00 -3.690307935E+02  3.690307935E+02  0.000000000E+00  0.00000E+00  9.000E+00
      21     1     1     2   516   512  1.254045984E+01 -1.843098276E+00  7.981643295E+00  1.497887759E+01  1.884864366E-07  0.00000E+00  9.000E+00
      21     1     1     2   513   511 -1.310612490E+01 -6.705113958E+00 -2.958029206E+02  2.961690343E+02  0.000000000E+00  0.00000E+00  9.000E+00
      21     1     1     2   511   516  5.656650662E-01  8.548212234E+00 -6.928237466E+01  6.981002326E+01  0.000000000E+00  0.00000E+00  9.000E+00
</event>
<event>
      5  10001  2.40292E+09  5.74605E+00 -1.00000E+00  2.28348E-01
      21    -1     0     0   515   511  0.000000000E+00  0.000000000E+00  5.335632246E+01  5.335632246E+01  0.000000000E+00  0.00000E+00  9.000E+00
      21    -1     0     0   517   515  0.000000000E+00  0.000000000E+00 -9.820788724E+01  9.820788724E+01  0.000000000E+00  0.00000E+00  9.000E+00
      21     1     1     2   513   511  8.587505254E+00  8.927246343E+00  5.206808038E+01  5.352126650E+01  9.536743164E-07  0.00000E+00  9.000E+00
      21     1     1     2   517   512 -7.466171932E+00 -2.562067567E+00 -6.483888467E+01  6.531760007E+01  0.000000000E+00  0.00000E+00  9.000E+00
      21     1     1     2   512   513 -1.121333322E+00 -6.365178776E+00 -3.208076049E+01  3.272534313E+01  6.743495762E-07  0.00000E+00  9.000E+00
</event>
<event>
      5  10001  2.40292E+09  2.32508E+01 -1.00000E+00  1.61108E-01
      21    -1     0     0   514   516  0.000000000E+00  0.000000000E+00  1.164034357E+01  1.164034357E+01  0.000000000E+00  0.00000E+00  9.000E+00
      21    -1     0     0   511   513  0.000000000E+00  0.000000000E+00 -1.671175794E+02  1.671175794E+02  0.000000000E+00  0.00000E+00  9.000E+00
      21     1     1     2   514   513 -3.509302582E+01 -2.250259824E+01 -5.193511991E+01  6.659687732E+01  6.743495762E-07  0.00000E+00  9.000E+00
      21     1     1     2   511   515  3.530933530E+00  7.203703764E+00 -1.795583745E+01  1.966654362E+01  2.384185791E-07  0.00000E+00  9.000E+00
      21     1     1     2   515   516  3.156209229E+01  1.529889448E+01 -8.558627851E+01  9.249450206E+01  1.907348633E-06  0.00000E+00  9.000E+00
</event>
<event>
      5  10001  2.40292E+09  8.31843E+00 -1.00000E+00  2.05414E-01
      21    -1     0     0   512   511  0.000000000E+00  0.000000000E+00  9.677237591E+00  9.677237591E+00  0.000000000E+00  0.00000E+00  9.000E+00
      21    -1     0     0   513   512  0.000000000E+00  0.000000000E+00 -1.273186317E+02  1.273186317E+02  0.000000000E+00  0.00000E+00  9.000E+00
      21     1     1     2   516   517  8.568689830E+00 -7.398933278E+00 -7.808067168E+00  1.375254783E+01  2.230201594E-07  0.00000E+00  9.000E+00
      21     1     1     2   517   511 -1.195030342E+01  1.499900036E+01 -7.530901189E+00  2.060325791E+01  3.475518164E-07  0.00000E+00  9.000E+00
      21     1     1     2   513   516  3.381613593E+00 -7.600067085E+00 -1.023024257E+02  1.026400635E+02  1.348699152E-06  0.00000E+00  9.000E+00
</event>
<event>
      5  10001  2.40292E+09  1.10934E+01 -1.00000E+00  1.90633E-01
      21    -1     0     0   514   516  0.000000000E+00  0.000000000E+00  7.596750610E-01  7.596750610E-01  0.000000000E+00  0.00000E+00  9.000E+00
      21    -1     0     0   513   515  0.000000000E+00  0.000000000E+00 -2.927435651E+02  2.927435651E+02  0.000000000E+00  0.00000E+00  9.000E+00
      21     1     1     2   514   515 -1.015336910E+01 -2.640456872E+00 -4.471797915E+01  4.593213010E+01  6.743495762E-07  0.00000E+00  9.000E+00
      21     1     1     2   513   511  3.432493229E+00  1.841106784E+00 -3.872533137E+01  3.892072679E+01  4.768371582E-07  0.00000E+00  9.000E+00
      21     1     1     2   511   516  6.720875867E+00  7.993500876E-01 -2.085405796E+02  2.086503833E+02  2.697398305E-06  0.00000E+00  9.000E+00
</event>
<event>
      5  10001  2.40292E+09  5.56608E+00 -1.00000E+00  2.30575E-01
       2    -1     0     0   514     0  0.000000000E+00  0.000000000E+00  7.562086144E+02  7.562086144E+02  0.000000000E+00  0.00000E+00  9.000E+00
      21    -1     0     0   513   514  0.000000000E+00  0.000000000E+00 -1.373247271E+01  1.373247271E+01  0.000000000E+00  0.00000E+00  9.000E+00
      21     1     1     2   512   511 -1.146016137E+01  1.012338884E+01  1.077596134E+02  1.088391133E+02  3.015782986E-06  0.00000E+00  9.000E+00
       2     1     1     2   511     0  7.485954138E+00 -6.226372334E+00  6.472838717E+02  6.473571863E+02  3.300000131E-01  0.00000E+00  9.000E+00
      21     1     1     2   513   512  3.974207228E+00 -3.897016507E+00 -1.256734345E+01  1.374478745E+01  9.386548846E-07  0.00000E+00  9.000E+00
</event>
<event>
      5  10001  2.40292E+09  9.88930E+00 -1.00000E+00  1.96259E-01
      21    -1     0     0   515   511  0.000000000E+00  0.000000000E+00  6.555789395E+01  6.555789395E+01  0.000000000E+00  0.00000E+00  9.000E+00
       1    -1     0     0   513     0  0.000000000E+00  0.000000000E+00 -2.923135115E+02  2.923135115E+02  0.000000000E+00  0.00000E+00  9.000E+00
      21     1     1     2   515   512 -1.650757160E+01  4.093414652E+00 -9.417381022E+00  1.944075690E+01  6.848052319E-07  0.00000E+00  9.000E+00
      21     1     1     2   513   511  2.574308308E+01 -5.574138030E-01  5.771556864E+01  6.319892325E+01  6.743495762E-07  0.00000E+00  9.000E+00
       1     1     1     2   512     0 -9.235511476E+00 -3.536000849E+00 -2.750538052E+02  2.752317253E+02  3.300000131E-01  0.00000E+00  9.000E+00
</event>
<event>
      5  10001  2.40292E+09  2.52911E+01 -1.00000E+00  1.58338E-01
       2    -1     0     0   514     0  0.000000000E+00  0.000000000E+00  4.686528768E+02  4.686528768E+02  0.000000000E+00  0.00000E+00  9.000E+00
      -2    -1     0     0     0   514  0.000000000E+00  0.000000000E+00 -7.519624447E+01  7.519624447E+01  0.000000000E+00  0.00000E+00  9.000E+00
      -2     1     1     2     0   513 -1.670362268E+01 -2.092392438E+01 -5.874380188E+01  6.455822784E+01  3.300000131E-01  0.00000E+00  9.000E+00
       2     1     1     2   511     0  2.781995995E+01  2.476290453E+00  4.564783247E+02  4.573321025E+02  3.300000131E-01  0.00000E+00  9.000E+00
      21     1     1     2   513   511 -1.111633727E+01  1.844763392E+01 -4.277890465E+00  2.195879092E+01  4.500051996E-07  0.00000E+00  9.000E+00
</event>
<event>
      5  10001  2.40292E+09  1.26826E+01 -1.00000E+00  1.84485E-01
       2    -1     0     0   512     0  0.000000000E+00  0.000000000E+00  7.934956530E+02  7.934956530E+02  0.000000000E+00  0.00000E+00  9.000E+00
      21    -1     0     0   513   515  0.000000000E+00  0.000000000E+00 -1.254827889E+02  1.254827889E+02  0.000000000E+00  0.00000E+00  9.000E+00
      21     1     1     2   512   515 -1.365373308E+01  2.413419052E+00  4.017898669E+01  4.250411733E+01  1.784161275E-06  0.00000E+00  9.000E+00
      21     1     1     2   513   511  9.123300242E+00 -1.425928670E+01 -1.236901776E+02  1.248431893E+02  2.336015456E-06  0.00000E+00  9.000E+00
       2     1     1     2   511     0  4.530432842E+00  1.184586764E+01  7.515240550E+02  7.516311353E+02  3.300000131E-01  0.00000E+00  9.000E+00
</event>
<event>
      5  10001  2.40292E+09  3.05205E+00 -1.00000E+00  2.94482E-01
      21    -1     0     0   514   512  0.000000000E+00  0.000000000E+00  2.733575902E+02  2.733575902E+02  0.000000000E+00  0.00000E+00  9.000E+00
      21    -1     0     0   516   514  0.000000000E+00  0.000000000E+00 -7.869645578E-01  7.869645578E-01  0.000000000E+00  0.00000E+00  9.000E+00
      21     1     1     2   516   517 -1.122209621E+01 -6.373146158E+00  8.413662472E+01  8.512064412E+01  9.536743164E-07  0.00000E+00  9.000E+00
      21     1     1     2   517   513  8.607422616E+00  7.947466011E+00  1.373025834E+02  1.378014853E+02  1.907348633E-06  0.00000E+00  9.000E+00
      21     1     1     2   513   512  2.614673598E+00 -1.574319853E+00  5.113141754E+01  5.122242537E+01  0.000000000E+00  0.00000E+00  9.000E+00
</event>
<event>
      5  10001  2.40292E+09  5.00289E+00 -1.00000E+00  2.38385E-01
       1    -1     0     0   514     0  0.000000000E+00  0.000000000E+00  1.649595243E+01  1.649595243E+01  0.000000000E+00  0.00000E+00  9.000E+00
      21    -1     0     0   511   513  0.000000000E+00  0.000000000E+00 -3.851707286E+01  3.851707286E+01  0.000000000E+00  0.00000E+00  9.000E+00
      21     1     1     2   514   513 -7.640232312E+00 -1.399702012E+01 -3.202437649E+01  3.577499702E+01  4.768371582E-07  0.00000E+00  9.000E+00
      21     1     1     2   511   515  3.267702648E+00  6.782770626E+00  2.471105764E+00  7.924028121E+00  1.460009660E-07  0.00000E+00  9.000E+00
       1     1     1     2   515     0  4.372529663E+00  7.214249491E+00  7.532150300E+00  1.131400016E+01  3.300000131E-01  0.00000E+00  9.000E+00
</event>
<event>
      5  10001  2.40292E+09  3.32743E+00 -1.00000E+00  2.83725E-01
      21    -1     0     0   512   511  0.000000000E+00  0.000000000E+00  1.365259785E+01  1.365259785E+01  0.000000000E+00  0.00000E+00  9.000E+00
      21    -1     0     0   517   513  0.000000000E+00  0.000000000E+00 -2.332735107E+01  2.332735107E+01  0.000000000E+00  0.00000E+00  9.000E+00
      21     1     1     2   512   516  8.579834365E+00 -7.700085613E+00  4.144090869E+00  1.225064755E+01  2.149076030E-07  0.00000E+00  9.000E+00
      21     1     1     2   517   511 -8.654464393E+00  4.373488248E+00  8.064777496E-01  9.730239449E+00  2.970904415E-07  0.00000E+00  9.000E+00
      21     1     1     2   516   513  7.463002798E-02  3.326597366E+00 -1.462532184E+01  1.499906192E+01  1.685873940E-07  0.00000E+00  9.000E+00
</event>
<event>
      5  10001  2.40292E+09  1.66823E+01 -1.00000E+00  1.73097E-01
      21    -1     0     0   514   513  0.000000000E+00  0.000000000E+00  1.124118370E+02  1.124118370E+02  0.000000000E+00  0.00000E+00  9.000E+00
      21    -1     0     0   511   515  0.000000000E+00  0.000000000E+00 -4.528092819E+01  4.528092819E+01  0.000000000E+00  0.00000E+00  9.000E+00
      21     1     1     2   514   515 -1.954833704E+01 -1.298536677E+01  9.571177411E+01  9.854694787E+01  0.000000000E+00  0.00000E+00  9.000E+00
      21     1     1     2   516   513  7.339735218E+00  1.616513405E+00  1.262408979E+01  1.469191859E+01  4.768371582E-07  0.00000E+00  9.000E+00
      21     1     1     2   511   516  1.220860182E+01  1.136885337E+01 -4.120495511E+01  4.445389871E+01  8.259061849E-07  0.00000E+00  9.000E+00
</event>
<event>
      5  10001  2.40292E+09  8.97198E+00 -1.00000E+00  2.01304E-01
      21    -1     0     0   512   515  0.000000000E+00  0.000000000E+00  1.907956333E+02  1.907956333E+02  0.000000000E+00  0.00000E+00  9.000E+00
      21    -1     0     0   511   512  0.000000000E+00  0.000000000E+00 -1.347091579E+01  1.347091579E+01  0.000000000E+00  0.00000E+00  9.000E+00
      21     1     1     2   511   517  1.163797594E+00  1.730223099E+01 -7.096732553E+00  1.873726861E+01  1.460009660E-07  0.00000E+00  9.000E+00
      21     1     1     2   513   515 -4.003859579E+00 -1.368641876E+01  1.035554048E+02  1.045326303E+02  0.000000000E+00  0.00000E+00  9.000E+00
      21     1     1     2   517   513  2.840061985E+00 -3.615812226E+00  8.086604535E+01  8.099665018E+01  9.536743164E-07  0.00000E+00  9.000E+00
</event>
<event>
      5  10001  2.40292E+09  4.06151E+00 -1.00000E+00  2.61811E-01
      -2    -1     0     0     0   514  0.000000000E+00  0.000000000E+00  1.177476905E+02  1.177476905E+02  0.000000000E+00  0.00000E+00  9.000E+00
      21    -1     0     0   515   511  0.000000000E+00  0.000000000E+00 -6.559150951E+01  6.559150951E+01  0.000000000E+00  0.00000E+00  9.000E+00
      -2     1     1     2     0   512 -1.850510775E+01 -7.809632613E+00  9.042958479E+01  9.263394670E+01  3.300000131E-01  0.00000E+00  9.000E+00
      21     1     1     2   515   514  2.143477726E+01  4.996666665E+00  2.151537142E+01  3.077868680E+01  9.536743164E-07  0.00000E+00  9.000E+00
      21     1     1     2   512   511 -2.929669505E+00  2.812965948E+00 -5.978877519E+01  5.992656656E+01  6.743495762E-07  0.00000E+00  9.000E+00
</event>
<event>
      5  10001  2.40292E+09  8.12735E+00 -1.00000E+00  2.06712E-01
      21    -1     0     0   513   512  0.000000000E+00  0.000000000E+00  2.716067232E+01  2.716067232E+01  0.000000000E+00  0.00000E+00  9.000E+00
      21    -1     0     0   516   513  0.000000000E+00  0.000000000E+00 -1.588531024E+01  1.588531024E+01  0.000000000E+00  0.00000E+00  9.000E+00
      21     1     1     2   516   511 -1.322753619E+01 -1.417518343E-01 -1.027651969E+01  1.675096009E+01  2.384185791E-07  0.00000E+00  9.000E+00
      21     1     1     2   514   512  3.194654165E+00 -1.161990821E+00  1.166040352E+01  1.214582431E+01  0.000000000E+00  0.00000E+00  9.000E+00
      21     1     1     2   511   514  1.003288202E+01  1.303742656E+00  9.891478242E+00  1.414919815E+01  1.192092896E-07  0.00000E+00  9.000E+00
</event>
<event>
      5  10001  2.40292E+09  1.00394E+01 -1.00000E+00  1.95501E-01
      21    -1     0     0   515   514  0.000000000E+00  0.000000000E+00  5.879372222E+01  5.879372222E+01  0.000000000E+00  0.00000E+00  9.000E+00
      21    -1     0     0   511   517  0.000000000E+00  0.000000000E+00 -1.722636565E+00  1.722636565E+00  0.000000000E+00  0.00000E+00  9.000E+00
      21     1     1     2   515   517  5.667779082E+00  1.398624386E+00  1.513235720E+01  1.621937435E+01  1.685873940E-07  0.00000E+00  9.000E+00
      21     1     1     2   512   514 -6.401651902E+00 -2.829450425E+00  4.210279466E+01  4.268058405E+01  4.768371582E-07  0.00000E+00  9.000E+00
      21     1     1     2   511   512  7.338728205E-01  1.430826040E+00 -1.640662061E-01  1.616400381E+00  9.590361760E-08  0.00000E+00  9.000E+00
</event>
<event>
      5  10001  2.40292E+09  2.49408E+01 -1.00000E+00  1.58790E-01
      21    -1     0     0   513   512  0.000000000E+00  0.000000000E+00  6.521848939E+01  6.521848939E+01  0.000000000E+00  0.00000E+00  9.000E+00
      21    -1     0     0   511   516  0.000000000E+00  0.000000000E+00 -1.443128998E+02  1.443128998E+02  0.000000000E+00  0.00000E+00  9.000E+00
      21     1     1     2   513   516  1.828085573E+00 -1.948659730E+01 -1.395511886E+02  1.409170097E+02  0.000000000E+00  0.00000E+00  9.000E+00
      21     1     1     2   511   514  9.170688805E+00  2.294057897E+00  3.346683198E+01  3.477632928E+01  6.743495762E-07  0.00000E+00  9.000E+00
      21     1     1     2   514   512 -1.099877438E+01  1.719253940E+01  2.698994621E+01  3.383805026E+01  1.581489940E-06  0.00000E+00  9.000E+00
</event>
<event>
      5  10001  2.40292E+09  1.72503E+00 -1.00000E+00  3.95711E-01
      21    -1     0     0   514   511  0.000000000E+00  0.000000000E+00  2.689740617E+00  2.689740617E+00  0.000000000E+00  0.00000E+00  9.000E+00
       3    -1     0     0   513     0  0.000000000E+00  0.000000000E+00 -9.447668652E+01  9.447668652E+01  0.000000000E+00  0.00000E+00  9.000E+00
      21     1     1     2   512   511  1.164935228E+00  1.040050330E+01 -3.939011808E+01  4.075670430E+01  9.536743164E-07  0.00000E+00  9.000E+00
       3     1     1     2   514     0 -2.796462084E+00 -9.841766647E+00 -1.120439729E+01  1.518120843E+01  5.000000000E-01  0.00000E+00  9.000E+00
      21     1     1     2   513   512  1.631526856E+00 -5.587366542E-01 -4.119243054E+01  4.122851441E+01  6.743495762E-07  0.00000E+00  9.000E+00
</event>
<event>
      5  10001  2.40292E+09  7.80951E+00 -1.00000E+00  2.08982E-01
       4    -1     0     0   514     0  0.000000000E+00  0.000000000E+00  1.232454405E+00  1.232454405E+00  0.000000000E+00  0.00000E+00  9.000E+00
       1    -1     0     0   511     0  0.000000000E+00  0.000000000E+00 -5.308709794E+02  5.308709794E+02  0.000000000E+00  0.00000E+00  9.000E+00
       1     1     1     2   513     0 -5.195461341E+00  9.115153501E+00 -3.900633552E+02  3.902045731E+02  3.300000131E-01  0.00000E+00  9.000E+00
       4     1     1     2   511     0  1.292921632E+01 -1.014192768E+01 -7.156322493E+01  7.344091839E+01  1.500000000E+00  0.00000E+00  9.000E+00
      21     1     1     2   514   513 -7.733754979E+00  1.026774182E+00 -6.801194481E+01  6.845794233E+01  9.536743164E-07  0.00000E+00  9.000E+00
</event>
<event>
      5  10001  2.40292E+09  7.44324E+00 -1.00000E+00  2.11784E-01
      21    -1     0     0   512   511  0.000000000E+00  0.000000000E+00  5.459004331E+00  5.459004331E+00  0.000000000E+00  0.00000E+00  9.000E+00
      21    -1     0     0   515   516  0.000000000E+00  0.000000000E+00 -4.902433647E+01  4.902433647E+01  0.000000000E+00  0.00000E+00  9.000E+00
      21     1     1     2   512   513  1.171986587E+01 -1.086433969E+00 -7.240184335E+00  1.381867808E+01  2.795705652E-07  0.00000E+00  9.000E+00
      21     1     1     2   515   511 -7.830431335E+00  7.432618227E+00 -2.278979993E+01  2.521774077E+01  0.000000000E+00  0.00000E+00  9.000E+00
      21     1     1     2   513   516 -3.889434536E+00 -6.346184258E+00 -1.353534787E+01  1.544692195E+01  1.685873940E-07  0.00000E+00  9.000E+00
</event>
<event>
      5  10001  2.40292E+09  5.33378E+00 -1.00000E+00  2.33630E-01
      21    -1     0     0   511   515  0.000000000E+00  0.000000000E+00  2.006034678E+02  2.006034678E+02  0.000000000E+00  0.00000E+00  9.000E+00
      21    -1     0     0   513   517  0.000000000E+00  0.000000000E+00 -2.874602104E+00  2.874602104E+00  0.000000000E+00  0.00000E+00  9.000E+00
      21     1     1     2   514   517  8.054649120E+00 -2.505910856E-02  5.936818734E+00  1.000618894E+01  2.665600750E-07  0.00000E+00  9.000E+00
      21     1     1     2   513   515 -1.338662143E+01 -1.139432220E-01  5.610453631E+01  5.767957707E+01  0.000000000E+00  0.00000E+00  9.000E+00
      21     1     1     2   511   514  5.331972310E+00  1.390023305E-01  1.356875107E+02  1.357923039E+02  1.907348633E-06  0.00000E+00  9.000E+00
</event>
<event>
      5  10001  2.40292E+09  5.47815E+00 -1.00000E+00  2.31706E-01
      21    -1     0     0   512   513  0.000000000E+00  0.000000000E+00  2.748940276E+01  2.748940276E+01  0.000000000E+00  0.00000E+00  9.000E+00
      21    -1     0     0   516   514  0.000000000E+00  0.000000000E+00 -1.831729255E+01  1.831729255E+01  0.000000000E+00  0.00000E+00  9.000E+00
      21     1     1     2   512   514  3.864053885E+00 -9.415674048E+00 -1.369211113E+01  1.706047295E+01  2.384185791E-07  0.00000E+00  9.000E+00
      21     1     1     2   516   515 -6.976139311E+00  1.023553587E+01  2.225625123E+01  2.547103125E+01  0.000000000E+00  0.00000E+00  9.000E+00
      21     1     1     2   515   513  3.112085426E+00 -8.198618250E-01  6.079701020E-01  3.275191102E+00  4.998001406E-08  0.00000E+00  9.000E+00
</event>
<event>
      5  10001  2.40292E+09  4.74307E+00 -1.00000E+00  2.47076E-01
      21    -1     0     0   511   514  0.000000000E+00  0.000000000E+00  1.127151172E+02  1.127151172E+02  0.000000000E+00  0.00000E+00  9.000E+00
       1    -1     0     0   517     0  0.000000000E+00  0.000000000E+00 -1.766339567E+02  1.766339567E+02  0.000000000E+00  0.00000E+00  9.000E+00
      21     1     1     2   511   513  9.487224265E+00 -5.188698417E+00  8.734163177E+00  1.390020223E+01  4.915124924E-07  0.00000E+00  9.000E+00
      21     1     1     2   517   514 -1.199096400E+01  9.217090575E+00  1.008012168E+02  1.019295016E+02  1.907348633E-06  0.00000E+00  9.000E+00
       1     1     1     2   513     0  2.503739737E+00 -4.028392158E+00 -1.734542194E+02  1.735193701E+02  3.300000131E-01  0.00000E+00  9.000E+00
</event>
<event>
      5  10001  2.40292E+09  3.86384E+01 -1.00000E+00  1.45747E-01
      21    -1     0     0   512   514  0.000000000E+00  0.000000000E+00  2.520063761E+02  2.520063761E+02  0.000000000E+00  0.00000E+00  9.000E+00
      21    -1     0     0   515   512  0.000000000E+00  0.000000000E+00 -3.661461362E+00  3.661461362E+00  0.000000000E+00  0.00000E+00  9.000E+00
      21     1     1     2   516   514 -9.935180050E-01  1.056059952E+01  9.177343799E+01  9.238439944E+01  0.000000000E+00  0.00000E+00  9.000E+00
      21     1     1     2   511   516 -7.449135694E+00 -4.801129802E+00  2.976468197E+00  9.348787777E+00  2.598106231E-07  0.00000E+00  9.000E+00
      21     1     1     2   515   511  8.442653699E+00 -5.759469718E+00  1.535950086E+02  1.539346503E+02  1.907348633E-06  0.00000E+00  9.000E+00
</event>
<event>
      5  10001  2.40292E+09  1.04463E+01 -1.00000E+00  1.93533E-01
      21    -1     0     0   511   515  0.000000000E+00  0.000000000E+00  5.089937715E+00  5.089937715E+00  0.000000000E+00  0.00000E+00  9.000E+00
      21    -1     0     0   513   511  0.000000000E+00  0.000000000E+00 -7.350173084E+01  7.350173084E+01  0.000000000E+00  0.00000E+00  9.000E+00
      21     1     1     2   512   515  4.492396192E+00 -3.931398684E+00 -3.104454005E+00  6.728681433E+00  1.737759082E-07  0.00000E+00  9.000E+00
       4     1     1     2   513     0 -1.117982595E+01 -6.655328828E-01 -6.191964516E+01  6.294222668E+01  1.500000000E+00  0.00000E+00  9.000E+00
      -4     1     1     2     0   512  6.687429753E+00  4.596931567E+00 -3.387693957E+00  8.920760443E+00  1.500000000E+00  0.00000E+00  9.000E+00
</event>
<event>
      5  10001  2.40292E+09  1.37188E+01 -1.00000E+00  1.81066E-01
      21    -1     0     0   514   513  0.000000000E+00  0.000000000E+00  5.944750607E+01  5.944750607E+01  0.000000000E+00  0.00000E+00  9.000E+00
      21    -1     0     0   516   514  0.000000000E+00  0.000000000E+00 -2.351632277E+02  2.351632277E+02  0.000000000E+00  0.00000E+00  9.000E+00
      21     1     1     2   516   512 -3.085859753E+00 -1.535785185E+01 -2.228953042E+02  2.234450778E+02  2.697398305E-06  0.00000E+00  9.000E+00
      21     1     1     2   511   513 -1.889935549E+00  2.190342743E+01  5.536102309E+01  5.956655830E+01  1.507891493E-06  0.00000E+00  9.000E+00
      21     1     1     2   512   511  4.975795302E+00 -6.545575581E+00 -8.181440520E+00  1.159909770E+01  2.064765462E-07  0.00000E+00  9.000E+00
</event>
<event>
      5  10001  2.40292E+09  3.68065E+00 -1.00000E+00  2.72170E-01
      -4    -1     0     0     0   515  0.000000000E+00  0.000000000E+00  1.295998533E+01  1.295998533E+01  0.000000000E+00  0.00000E+00  9.000E+00
      21    -1     0     0   515   514  0.000000000E+00  0.000000000E+00 -7.643081403E+01  7.643081403E+01  0.000000000E+00  0.00000E+00  9.000E+00
      21     1     1     2   516   513 -4.281726449E+00  5.276219435E+00  3.815734756E+00  7.793042066E+00  1.737759082E-07  0.00000E+00  9.000E+00
      21     1     1     2   513   514  5.990016630E+00 -9.505221520E+00 -7.315655037E+01  7.401425807E+01  9.536743164E-07  0.00000E+00  9.000E+00
      -4     1     1     2     0   516 -1.708290181E+00  4.229002085E+00  5.869986919E+00  7.583499219E+00  1.500000000E+00  0.00000E+00  9.000E+00
</event>
<event>
      5  10001  2.40292E+09  7.59962E+00 -1.00000E+00  2.10561E-01
      21    -1     0     0   511   514  0.000000000E+00  0.000000000E+00  6.459004090E+02  6.459004090E+02  0.000000000E+00  0.00000E+00  9.000E+00
      21    -1     0     0   512   511  0.000000000E+00  0.000000000E+00 -1.715191629E+00  1.715191629E+00  0.000000000E+00  0.00000E+00  9.000E+00
      21     1     1     2   512   515  8.173378550E+00  6.917216252E+00  2.946854433E+01  3.135358197E+01  4.768371582E-07  0.00000E+00  9.000E+00
      21     1     1     2   515   513 -1.155465798E+01 -1.112496835E-01  4.391622598E+01  4.541098328E+01  4.768371582E-07  0.00000E+00  9.000E+00
      21     1     1     2   513   514  3.381279434E+00 -6.805966568E+00  5.708004471E+02  5.708510354E+02  1.078959322E-05  0.00000E+00  9.000E+00
</event>
<event>
      5  10001  2.40292E+09  9.70759E+00 -1.00000E+00  1.97200E-01
      21    -1     0     0   516   515  0.000000000E+00  0.000000000E+00  1.988311976E+02  1.988311976E+02  0.000000000E+00  0.00000E+00  9.000E+00
      21    -1     0     0   512   514  0.000000000E+00  0.000000000E+00 -4.231740825E+01  4.231740825E+01  0.000000000E+00  0.00000E+00  9.000E+00
      21     1     1     2   516   514 -3.465045404E-02 -1.047849302E+01  1.926894915E+02  1.929741956E+02  2.697398305E-06  0.00000E+00  9.000E+00
      21     1     1     2   511   515  6.432559046E+00  5.581983474E+00 -3.878242645E+01  3.970658581E+01  1.581489940E-06  0.00000E+00  9.000E+00
      21     1     1     2   512   511 -6.397908592E+00  4.896509547E+00  2.606724322E+00  8.467824501E+00  1.429269172E-07  0.00000E+00  9.000E+00
</event>
<event>
      5  10001  2.40292E+09  2.91599E+00 -1.00000E+00  3.00519E-01
      21    -1     0     0   513   514  0.000000000E+00  0.000000000E+00  2.205201795E+01  2.205201795E+01  0.000000000E+00  0.00000E+00  9.000E+00
      21    -1     0     0   512   513  0.000000000E+00  0.000000000E+00 -2.761617981E+01  2.761617981E+01  0.000000000E+00  0.00000E+00  9.000E+00
      21     1     1     2   511   515 -6.213804356E+00 -8.812442402E+00 -1.776388894E+01  2.078042963E+01  4.768371582E-07  0.00000E+00  9.000E+00
      21     1     1     2   512   511  8.599677210E+00  1.048892217E+01 -2.593957231E+00  1.380943701E+01  1.861154437E-07  0.00000E+00  9.000E+00
      21     1     1     2   515   514 -2.385872855E+00 -1.676479766E+00  1.479368431E+01  1.507833111E+01  2.384185791E-07  0.00000E+00  9.000E+00
</event>
<event>
      5  10001  2.40292E+09  6.36714E+00 -1.00000E+00  2.21464E-01
       3    -1     0     0   511     0  0.000000000E+00  0.000000000E+00  7.927076455E+00  7.927076455E+00  0.000000000E+00  0.00000E+00  9.000E+00
      21    -1     0     0   516   513  0.000000000E+00  0.000000000E+00 -2.318761154E+02  2.318761154E+02  0.000000000E+00  0.00000E+00  9.000E+00
      21     1     1     2   512   513  9.645131394E+00 -4.053527548E+00 -2.156925848E+02  2.159461757E+02  0.000000000E+00  0.00000E+00  9.000E+00
       3     1     1     2   516     0 -1.574939096E+01  2.243948518E+00 -6.898456442E+00  1.734696867E+01  5.000000000E-01  0.00000E+00  9.000E+00
      21     1     1     2   511   512  6.104259571E+00  1.809579030E+00 -1.357997717E+00  6.510047540E+00  1.931411236E-07  0.00000E+00  9.000E+00
</event>
<event>
      5  10001  2.40292E+09  4.24620E+00 -1.00000E+00  2.57401E-01
      21    -1     0     0   514   516  0.000000000E+00  0.000000000E+00  4.740591547E+00  4.740591547E+00  0.000000000E+00  0.00000E+00  9.000E+00
      21    -1     0     0   515   512  0.000000000E+00  0.000000000E+00 -1.043563753E+02  1.043563753E+02  0.000000000E+00  0.00000E+00  9.000E+00
      21     1     1     2   514   512  1.279171681E+01 -5.339183554E+00 -1.319113216E+01  1.913480775E+01  5.840038640E-07  0.00000E+00  9.000E+00
      21     1     1     2   515   513 -9.968065795E+00  2.167878237E+00 -8.480691370E+01  8.541823367E+01  9.536743164E-07  0.00000E+00  9.000E+00
      21     1     1     2   513   516 -2.823651017E+00  3.171305317E+00 -1.617737907E+00  4.543925442E+00  8.429369702E-08  0.00000E+00  9.000E+00
</event>
<event>
      5  10001  2.40292E+09  1.96128E+01 -1.00000E+00  1.67031E-01
       1    -1     0     0   511     0  0.000000000E+00  0.000000000E+00  5.729309676E+01  5.729309676E+01  0.000000000E+00  0.00000E+00  9.000E+00
      -2    -1     0     0     0   511  0.000000000E+00  0.000000000E+00 -4.865371104E+00  4.865371104E+00  0.000000000E+00  0.00000E+00  9.000E+00
      21     1     1     2   512   513 -2.934217722E+00  6.598334853E+00  1.765753071E+01  1.907710794E+01  4.129530925E-07  0.00000E+00  9.000E+00
       1     1     1     2   513     0  1.553989566E+00 -9.166519123E+00  3.776185112E+01  3.889095340E+01  3.300000131E-01  0.00000E+00  9.000E+00
      -2     1     1     2     0   512  1.380228157E+00  2.568184270E+00 -2.991656172E+00  4.190406528E+00  3.300000131E-01  0.00000E+00  9.000E+00
</event>
<event>
      5  10001  2.40292E+09  1.10293E+01 -1.00000E+00  1.90908E-01
      21    -1     0     0   514   512  0.000000000E+00  0.000000000E+00  6.961765522E+01  6.961765522E+01  0.000000000E+00  0.00000E+00  9.000E+00
       2    -1     0     0   515     0  0.000000000E+00  0.000000000E+00 -5.298149730E+01  5.298149730E+01  0.000000000E+00  0.00000E+00  9.000E+00
      21     1     1     2   516   512  1.544689660E+00  2.389924251E+01  4.849185820E+01  5.408345561E+01  0.000000000E+00  0.00000E+00  9.000E+00
      21     1     1     2   515   516  2.602818857E+00 -1.367952674E+01  1.494790363E+01  2.042899755E+01  4.129530925E-07  0.00000E+00  9.000E+00
       2     1     1     2   514     0 -4.147508516E+00 -1.021971577E+01 -4.680360391E+01  4.808669936E+01  3.300000131E-01  0.00000E+00  9.000E+00
</event>
<event>
      5  10001  2.40292E+09  1.35916E+01 -1.00000E+00  1.81465E-01
      21    -1     0     0   511   515  0.000000000E+00  0.000000000E+00  3.351523401E+02  3.351523401E+02  0.000000000E+00  0.00000E+00  9.000E+00
      21    -1     0     0   512   513  0.000000000E+00  0.000000000E+00 -1.108932289E+00  1.108932289E+00  0.000000000E+00  0.00000E+00  9.000E+00
      21     1     1     2   511   513  1.463085093E+01 -1.867887051E-01  7.488083430E+01  7.629702507E+01  2.523185073E-06  0.00000E+00  9.000E+00
      21     1     1     2   516   515 -5.364684540E+00 -4.545101308E+00  1.778207014E+02  1.779596574E+02  0.000000000E+00  0.00000E+00  9.000E+00
      21     1     1     2   512   516 -9.266166394E+00  4.731890013E+00  8.134187208E+01  8.200458997E+01  1.907348633E-06  0.00000E+00  9.000E+00
</event>
<event>
      5  10001  2.40292E+09  8.40829E+00 -1.00000E+00  2.04819E-01
      21    -1     0     0   514   513  0.000000000E+00  0.000000000E+00  2.080382395E+01  2.080382395E+01  0.000000000E+00  0.00000E+00  9.000E+00
      21    -1     0     0   511   517  0.000000000E+00  0.000000000E+00 -2.019391815E+02  2.019391815E+02  0.000000000E+00  0.00000E+00  9.000E+00
      21     1     1     2   514   517 -6.595767490E+00  5.386578737E+00 -1.508663444E+01  1.732414264E+01  3.371747881E-07  0.00000E+00  9.000E+00
      21     1     1     2   512   513  1.500063645E+01 -5.626420312E+00  1.631230197E+01  2.286409620E+01  2.384185791E-07  0.00000E+00  9.000E+00
      21     1     1     2   511   512 -8.404868963E+00  2.398415747E-01 -1.823610251E+02  1.825547666E+02  0.000000000E+00  0.00000E+00  9.000E+00
</event>
<event>
      5  10001  2.40292E+09  7.98762E+00 -1.00000E+00  2.07692E-01
      21    -1     0     0   513   512  0.000000000E+00  0.000000000E+00  2.529206507E+01  2.529206507E+01  0.000000000E+00  0.00000E+00  9.000E+00
      21    -1     0     0   511   515  0.000000000E+00  0.000000000E+00 -6.997872700E+01  6.997872700E+01  0.000000000E+00  0.00000E+00  9.000E+00
      21     1     1     2   511   516  1.850377654E+01  5.807358002E+00 -6.385403901E+01  6.673420001E+01  9.536743164E-07  0.00000E+00  9.000E+00
      21     1     1     2   516   512 -1.065069785E+01 -7.267253301E+00  1.394924903E+01  1.899557537E+01  2.384185791E-07  0.00000E+00  9.000E+00
      21     1     1     2   513   515 -7.853078686E+00  1.459895299E+00  5.218128051E+00  9.541016691E+00  5.960464478E-08  0.00000E+00  9.000E+00
</event>
<event>
      5  10001  2.40292E+09  1.27642E+01 -1.00000E+00  1.84201E-01
      21    -1     0     0   514   515  0.000000000E+00  0.000000000E+00  6.178765616E+01  6.178765616E+01  0.000000000E+00  0.00000E+00  9.000E+00
      21    -1     0     0   511   512  0.000000000E+00  0.000000000E+00 -6.339063247E+01  6.339063247E+01  0.000000000E+00  0.00000E+00  9.000E+00
      21     1     1     2   514   517 -1.213458137E+01 -3.322317759E+00  5.738343040E+01  5.874643772E+01  9.536743164E-07  0.00000E+00  9.000E+00
      21     1     1     2   511   515  1.482431739E+01 -9.155286050E+00 -3.903069252E+01  4.274312351E+01  8.259061849E-07  0.00000E+00  9.000E+00
      21     1     1     2   517   512 -2.689736020E+00  1.247760381E+01 -1.995571420E+01  2.368872740E+01  3.371747881E-07  0.00000E+00  9.000E+00
</event>
<event>
      5  10001  2.40292E+09  1.37767E+01 -1.00000E+00  1.80887E-01
      21    -1     0     0   513   512  0.000000000E+00  0.000000000E+00  5.031547773E+01  5.031547773E+01  0.000000000E+00  0.00000E+00  9.000E+00
      21    -1     0     0   516   514  0.000000000E+00  0.000000000E+00 -4.258686322E+01  4.258686322E+01  0.000000000E+00  0.00000E+00  9.000E+00
      21     1     1     2   511   512 -5.027652648E+00 -1.498902361E+01  4.369780584E+01  4.646984351E+01  4.768371582E-07  0.00000E+00  9.000E+00
      21     1     1     2   516   511 -8.036032667E+00  1.061428703E+01 -2.667838758E+01  2.981572193E+01  4.768371582E-07  0.00000E+00  9.000E+00
      21     1     1     2   513   514  1.306368531E+01  4.374736581E+00 -9.290803748E+00  1.661677551E+01  1.192092896E-07  0.00000E+00  9.000E+00
</event>
<event>
      5  10001  2.40292E+09  4.88994E+00 -1.00000E+00  2.44382E-01
      21    -1     0     0   515   514  0.000000000E+00  0.000000000E+00  3.816911751E+01  3.816911751E+01  0.000000000E+00  0.00000E+00  9.000E+00
      21    -1     0     0   511   517  0.000000000E+00  0.000000000E+00 -2.752190657E+01  2.752190657E+01  0.000000000E+00  0.00000E+00  9.000E+00
      21     1     1     2   515   517  1.264224502E+00  1.257390838E+01 -2.304840128E+01  2.628555187E+01  3.371747881E-07  0.00000E+00  9.000E+00
      21     1     1     2   512   514 -1.344624022E+00 -7.684626802E+00  3.362174552E+01  3.451497175E+01  4.768371582E-07  0.00000E+00  9.000E+00
      21     1     1     2   511   512  8.039951964E-02 -4.889281580E+00  7.386670174E-02  4.890500460E+00  7.185079724E-08  0.00000E+00  9.000E+00
</event>
<event>
      5  10001  2.40292E+09  7.12461E+00 -1.00000E+00  2.14406E-01
      21    -1     0     0   513   512  0.000000000E+00  0.000000000E+00  3.575412906E+01  3.575412906E+01  0.000000000E+00  0.00000E+00  9.000E+00
      21    -1     0     0   514   516  0.000000000E+00  0.000000000E+00 -2.711186640E+01  2.711186640E+01  0.000000000E+00  0.00000E+00  9.000E+00
      21     1     1     2   513   516 -7.692744937E+00 -1.223202162E+01  8.418684891E+00  1.672348447E+01  3.576278687E-07  0.00000E+00  9.000E+00
      21     1     1     2   511   512  7.520970127E+00  5.109486332E+00  2.169319834E+01  2.352162189E+01  4.129530925E-07  0.00000E+00  9.000E+00
      21     1     1     2   514   511  1.717748100E-01  7.122535290E+00 -2.146962058E+01  2.262088909E+01  2.384185791E-07  0.00000E+00  9.000E+00
</event>
<event>
      5  10001  2.40292E+09  1.27739E+01 -1.00000E+00  1.84167E-01
      21    -1     0     0   514   511  0.000000000E+00  0.000000000E+00  4.654609393E-01  4.654609393E-01  0.000000000E+00  0.00000E+00  9.000E+00
       3    -1     0     0   512     0  0.000000000E+00  0.000000000E+00 -4.177066634E+02  4.177066634E+02  0.000000000E+00  0.00000E+00  9.000E+00
      21     1     1     2   512   511 -6.220704771E+00  4.939744778E+00 -1.661177092E+02  1.663075210E+02  1.907348633E-06  0.00000E+00  9.000E+00
      21     1     1     2   514   513  1.194083499E+01 -1.704236779E+00 -1.287540614E+02  1.293178112E+02  3.303624740E-06  0.00000E+00  9.000E+00
       3     1     1     2   513     0 -5.720130222E+00 -3.235507999E+00 -1.223694319E+02  1.225467921E+02  5.000000000E-01  0.00000E+00  9.000E+00
</event>
<event>
      5  10001  2.40292E+09  9.41381E+00 -1.00000E+00  1.98779E-01
      21    -1     0     0   515   512  0.000000000E+00  0.000000000E+00  6.811869456E+00  6.811869456E+00  0.000000000E+00  0.00000E+00  9.000E+00
      21    -1     0     0   511   516  0.000000000E+00  0.000000000E+00 -4.225605829E+02  4.225605829E+02  0.000000000E+00  0.00000E+00  9.000E+00
      21     1     1     2   515   516  1.481031153E+01  4.708630852E+00 -4.082120680E+02  4.085077832E+02  5.394796609E-06  0.00000E+00  9.000E+00
      21     1     1     2   511   514 -6.516569394E+00 -7.983162712E+00 -2.424998098E+00  1.058665100E+01  5.110033810E-07  0.00000E+00  9.000E+00
      21     1     1     2   514   512 -8.293742138E+00  3.274531860E+00 -5.111647376E+00  1.027801812E+01  3.526258339E-07  0.00000E+00  9.000E+00
</event>
<event>
      5  10001  2.40292E+09  4.01439E+00 -1.00000E+00  2.62995E-01
      -1    -1     0     0     0   512  0.000000000E+00  0.000000000E+00  5.163795787E+00  5.163795787E+00  0.000000000E+00  0.00000E+00  9.000E+00
      21    -1     0     0   513   514  0.000000000E+00  0.000000000E+00 -1.514841512E+02  1.514841512E+02  0.000000000E+00  0.00000E+00  9.000E+00
      -1     1     1     2     0   511  8.600719549E+00  6.847055504E+00 -4.476691912E+00  1.187451962E+01  3.300000131E-01  0.00000E+00  9.000E+00
      21     1     1     2   513   512 -1.370722056E+01 -6.089721606E+00 -1.365787380E+02  1.373998701E+02  1.907348633E-06  0.00000E+00  9.000E+00
      21     1     1     2   511   514  5.106501012E+00 -7.573338982E-01 -5.264925429E+00  7.373557282E+00  1.332800375E-07  0.00000E+00  9.000E+00
</event>
<event>
      5  10001  2.40292E+09  5.12585E+00 -1.00000E+00  2.36558E-01
      21    -1     0     0   515   513  0.000000000E+00  0.000000000E+00  1.160328318E+02  1.160328318E+02  0.000000000E+00  0.00000E+00  9.000E+00
      21    -1     0     0   511   516  0.000000000E+00  0.000000000E+00 -2.863054027E+00  2.863054027E+00  0.000000000E+00  0.00000E+00  9.000E+00
      21     1     1     2   515   516  1.327690359E+01  1.089185871E+00  1.625270425E+01  2.101458756E+01  2.384185791E-07  0.00000E+00  9.000E+00
      21     1     1     2   511   512 -4.467608772E+00 -1.051511677E+00  2.408673412E+01  2.452011349E+01  3.371747881E-07  0.00000E+00  9.000E+00
      21     1     1     2   512   513 -8.809294820E+00 -3.767419456E-02  7.283033936E+01  7.336118473E+01  0.000000000E+00  0.00000E+00  9.000E+00
</event>
<event>
      5  10001  2.40292E+09  1.04259E+01 -1.00000E+00  1.93629E-01
      21    -1     0     0   511   513  0.000000000E+00  0.000000000E+00  2.433387470E+01  2.433387470E+01  0.000000000E+00  0.00000E+00  9.000E+00
       2    -1     0     0   514     0  0.000000000E+00  0.000000000E+00 -5.804174916E+02  5.804174916E+02  0.000000000E+00  0.00000E+00  9.000E+00
      21     1     1     2   511   512  6.124044621E-01  1.261138905E+01  2.226454367E+01  2.559554801E+01  2.132480600E-06  0.00000E+00  9.000E+00
       2     1     1     2   512     0  8.476785109E+00 -1.771880277E+01 -3.249585089E+02  3.255517674E+02  3.300000131E-01  0.00000E+00  9.000E+00
      21     1     1     2   514   513 -9.089189571E+00  5.107413721E+00 -2.533896516E+02  2.536040508E+02  2.697398305E-06  0.00000E+00  9.000E+00
</event>
<event>
      5  10001  2.40292E+09  1.61885E+01 -1.00000E+00  1.74274E-01
      21    -1     0     0   515   512  0.000000000E+00  0.000000000E+00  1.156972137E+02  1.156972137E+02  0.000000000E+00  0.00000E+00  9.000E+00
      21    -1     0     0   514   513  0.000000000E+00  0.000000000E+00 -4.180200132E+01  4.180200132E+01  0.000000000E+00  0.00000E+00  9.000E+00
      21     1     1     2   515   513 -2.316937885E+00  1.157852415E+01  1.114334176E+02  1.120572933E+02  1.348699152E-06  0.00000E+00  9.000E+00
      21     1     1     2   514   511 -5.213250168E+00  1.651021723E-01 -2.814402869E+01  2.862327002E+01  4.768371582E-07  0.00000E+00  9.000E+00
      21     1     1     2   511   512  7.530188053E+00 -1.174362632E+01 -9.394176560E+00  1.681865169E+01  4.616955931E-07  0.00000E+00  9.000E+00
</event>
<event>
      5  10001  2.40292E+09  9.34146E+00 -1.00000E+00  1.99180E-01
      21    -1     0     0   516   513  0.000000000E+00  0.000000000E+00  7.683389311E+01  7.683389311E+01  0.000000000E+00  0.00000E+00  9.000E+00
      21    -1     0     0   517   514  0.000000000E+00  0.000000000E+00 -4.094820970E+00  4.094820970E+00  0.000000000E+00  0.00000E+00  9.000E+00
      21     1     1     2   516   512 -1.336377155E+01 -5.231707458E+00  3.146307040E+01  3.458158400E+01  4.768371582E-07  0.00000E+00  9.000E+00
      21     1     1     2   517   513  1.108298576E+01 -3.827036027E+00  2.377806602E+01  2.651179364E+01  4.768371582E-07  0.00000E+00  9.000E+00
      21     1     1     2   512   514  2.280785796E+00  9.058743485E+00  1.749793571E+01  1.983533644E+01  3.371747881E-07  0.00000E+00  9.000E+00
</event>
<event>
      5  10001  2.40292E+09  1.52279E+01 -1.00000E+00  1.76722E-01
       4    -1     0     0   512     0  0.000000000E+00  0.000000000E+00  1.375074170E+02  1.375074170E+02  0.000000000E+00  0.00000E+00  9.000E+00
      21    -1     0     0   511   514  0.000000000E+00  0.000000000E+00 -9.675825430E-01  9.675825430E-01  0.000000000E+00  0.00000E+00  9.000E+00
      21     1     1     2   512   514 -1.895229590E-01 -7.183432941E+00  2.603636836E+01  2.700981498E+01  4.768371582E-07  0.00000E+00  9.000E+00
      21     1     1     2   511   513 -5.232862796E-01  3.942172311E+00  8.368750856E+00  9.265556753E+00  2.920019320E-07  0.00000E+00  9.000E+00
       4     1     1     2   513     0  7.128092386E-01  3.241260630E+00  1.021347152E+02  1.021996278E+02  1.500000000E+00  0.00000E+00  9.000E+00
</event>
<event>
      5  10001  2.40292E+09  1.64233E+01 -1.00000E+00  1.73708E-01
      21    -1     0     0   515   511  0.000000000E+00  0.000000000E+00  2.638809094E+00  2.638809094E+00  0.000000000E+00  0.00000E+00  9.000E+00
      21    -1     0     0   516   515  0.000000000E+00  0.000000000E+00 -1.915541641E+02  1.915541641E+02  0.000000000E+00  0.00000E+00  9.000E+00
      21     1     1     2   516   517  4.400134221E+00  1.651443931E+01 -1.433380893E+02  1.443533710E+02  0.000000000E+00  0.00000E+00  9.000E+00
      21     1     1     2   512   511  2.954927282E-01 -7.069528403E+00 -3.129336981E+01  3.208333745E+01  4.768371582E-07  0.00000E+00  9.000E+00
      21     1     1     2   517   512 -4.695626949E+00 -9.444910908E+00 -1.428389594E+01  1.775626474E+01  1.685873940E-07  0.00000E+00  9.000E+00
</event>
<event>
      5  10001  2.40292E+09  5.74881E+00 -1.00000E+00  2.28315E-01
      21    -1     0     0   513   514  0.000000000E+00  0.000000000E+00  1.832326735E+01  1.832326735E+01  0.000000000E+00  0.00000E+00  9.000E+00
      -1    -1     0     0     0   513  0.000000000E+00  0.000000000E+00 -3.752182411E+02  3.752182411E+02  0.000000000E+00  0.00000E+00  9.000E+00
      -1     1     1     2     0   515  1.209935470E+01  1.345150145E+00 -3.057924486E+02  3.060348581E+02  3.300000131E-01  0.00000E+00  9.000E+00
      21     1     1     2   511   514 -1.035954273E+01  1.998037806E+00  1.661641120E+01  1.968292158E+01  8.920806376E-07  0.00000E+00  9.000E+00
      21     1     1     2   515   511 -1.739811974E+00 -3.343187951E+00 -6.771893630E+01  6.782372878E+01  9.536743164E-07  0.00000E+00  9.000E+00
</event>
<event>
      5  10001  2.40292E+09  4.62263E+00 -1.00000E+00  2.49398E-01
      21    -1     0     0   511   514  0.000000000E+00  0.000000000E+00  8.229877678E+01  8.229877678E+01  0.000000000E+00  0.00000E+00  9.000E+00
       2    -1     0     0   514     0  0.000000000E+00  0.000000000E+00 -1.363694544E+01  1.363694544E+01  0.000000000E+00  0.00000E+00  9.000E+00
      21     1     1     2   511   512 -6.134347330E+00 -1.133108288E+01  7.698505974E+01  7.805589715E+01  1.651812370E-06  0.00000E+00  9.000E+00
       2     1     1     2   513     0  2.143246538E+00  7.542410051E+00 -9.428106879E+00  1.226701082E+01  3.300000131E-01  0.00000E+00  9.000E+00
      21     1     1     2   512   513  3.991100792E+00  3.788672826E+00  1.104878479E+00  5.612814247E+00  1.999200562E-07  0.00000E+00  9.000E+00
</event>
<event>
      5  10001  2.40292E+09  9.44344E+00 -1.00000E+00  1.98616E-01
      21    -1     0     0   515   514  0.000000000E+00  0.000000000E+00  6.529488883E+01  6.529488883E+01  0.000000000E+00  0.00000E+00  9.000E+00
      -4    -1     0     0     0   515  0.000000000E+00  0.000000000E+00 -1.275160808E+01  1.275160808E+01  0.000000000E+00  0.00000E+00  9.000E+00
      -4     1     1     2     0   516  7.873043672E+00 -5.873706408E+00 -9.700020592E-01  9.983794250E+00  1.500000000E+00  0.00000E+00  9.000E+00
      21     1     1     2   511   514 -8.174702930E+00  9.107226993E+00  5.977180135E+01  6.101176598E+01  0.000000000E+00  0.00000E+00  9.000E+00
      21     1     1     2   516   511  3.016592577E-01 -3.233520585E+00 -6.258518545E+00  7.050936680E+00  0.000000000E+00  0.00000E+00  9.000E+00
</event>
<event>
      5  10001  2.40292E+09  1.52790E+01 -1.00000E+00  1.76586E-01
      21    -1     0     0   512   511  0.000000000E+00  0.000000000E+00  2.076721033E+01  2.076721033E+01  0.000000000E+00  0.00000E+00  9.000E+00
      21    -1     0     0   511   513  0.000000000E+00  0.000000000E+00 -1.434634771E+01  1.434634771E+01  0.000000000E+00  0.00000E+00  9.000E+00
      -2     1     1     2     0   513  4.830090996E-01 -9.060662993E+00 -5.439549139E+00  1.058425748E+01  3.300000131E-01  0.00000E+00  9.000E+00
       2     1     1     2   514     0  8.046530648E+00  7.832953376E+00  1.123651255E+01  1.588930232E+01  3.300000131E-01  0.00000E+00  9.000E+00
      21     1     1     2   512   514 -8.529539747E+00  1.227709616E+00  6.238992198E-01  8.639998231E+00  1.748903780E-07  0.00000E+00  9.000E+00
</event>
<event>
      5  10001  2.40292E+09  5.26508E+00 -1.00000E+00  2.34577E-01
      21    -1     0     0   515   513  0.000000000E+00  0.000000000E+00  5.131312445E+00  5.131312445E+00  0.000000000E+00  0.00000E+00  9.000E+00
      21    -1     0     0   511   516  0.000000000E+00  0.000000000E+00 -5.701611874E+01  5.701611874E+01  0.000000000E+00  0.00000E+00  9.000E+00
      21     1     1     2   515   516 -1.026136130E+01 -4.695291400E+00 -4.663461040E+01  4.798049796E+01  0.000000000E+00  0.00000E+00  9.000E+00
      21     1     1     2   511   517  6.259113944E+00  6.131707327E+00 -4.496326046E+00  9.848415609E+00  5.960464478E-08  0.00000E+00  9.000E+00
      21     1     1     2   517   513  4.002247358E+00 -1.436415927E+00 -7.538698428E-01  4.318517612E+00  1.115100797E-07  0.00000E+00  9.000E+00
</event>
<event>
      5  10001  2.40292E+09  3.42332E+00 -1.00000E+00  2.80367E-01
      21    -1     0     0   512   511  0.000000000E+00  0.000000000E+00  2.285114612E+01  2.285114612E+01  0.000000000E+00  0.00000E+00  9.000E+00
      21    -1     0     0   514   513  0.000000000E+00  0.000000000E+00 -8.248876299E+00  8.248876299E+00  0.000000000E+00  0.00000E+00  9.000E+00
      21     1     1     2   512   513  9.596311992E+00 -3.549538237E+00 -2.605924898E+00  1.055837441E+01  1.576990671E-07  0.00000E+00  9.000E+00
      21     1     1     2   514   515 -6.178783585E+00  4.420542669E+00  1.046585618E+01  1.293262192E+01  1.192092896E-07  0.00000E+00  9.000E+00
      21     1     1     2   515   511 -3.417528407E+00 -8.710044314E-01  6.742338535E+00  7.609026091E+00  8.429369702E-08  0.00000E+00  9.000E+00
</event>
<event>
      5  10001  2.40292E+09  8.20455E+00 -1.00000E+00  2.06182E-01
      -3    -1     0     0     0   511  0.000000000E+00  0.000000000E+00  1.263835436E+01  1.263835436E+01  0.000000000E+00  0.00000E+00  9.000E+00
       3    -1     0     0   511     0  0.000000000E+00  0.000000000E+00 -2.190003736E+01  2.190003736E+01  0.000000000E+00  0.00000E+00  9.000E+00
      -3     1     1     2     0   513  2.040449587E+00  2.423680959E+00  6.441587456E+00  7.195951144E+00  5.000000000E-01  0.00000E+00  9.000E+00
       3     1     1     2   512     0 -9.921281623E+00 -4.440646646E+00 -1.582701785E+01  1.920665681E+01  5.000000000E-01  0.00000E+00  9.000E+00
      21     1     1     2   513   512  7.880832036E+00  2.016965686E+00  1.237473972E-01  8.135783771E+00  1.133462044E-07  0.00000E+00  9.000E+00
</event>
<event>
      5  10001  2.40292E+09  7.49774E+00 -1.00000E+00  2.11353E-01
      21    -1     0     0   514   512  0.000000000E+00  0.000000000E+00  1.786477256E+01  1.786477256E+01  0.000000000E+00  0.00000E+00  9.000E+00
      21    -1     0     0   511   514  0.000000000E+00  0.000000000E+00 -2.283989696E+01  2.283989696E+01  0.000000000E+00  0.00000E+00  9.000E+00
      21     1     1     2   511   515  5.567847785E+00  1.009196385E+01 -1.907964999E+01  2.229084357E+01  2.384185791E-07  0.00000E+00  9.000E+00
      21     1     1     2   515   516  1.559185728E-01 -1.472487883E+00  1.522154036E+00  2.123554585E+00  0.000000000E+00  0.00000E+00  9.000E+00
      21     1     1     2   516   512 -5.723766358E+00 -8.619475972E+00  1.258237155E+01  1.629027136E+01  5.591411304E-07  0.00000E+00  9.000E+00
</event>
<event>
      5  10001  2.40292E+09  2.35021E+00 -1.00000E+00  3.33069E-01
      21    -1     0     0   513   511  0.000000000E+00  0.000000000E+00  1.100235728E+01  1.100235728E+01  0.000000000E+00  0.00000E+00  9.000E+00
      21    -1     0     0   512   514  0.000000000E+00  0.000000000E+00 -3.030111503E+01  3.030111503E+01  0.000000000E+00  0.00000E+00  9.000E+00
      21     1     1     2   517   511  7.582611160E+00  8.665230820E+00  3.560310296E+00  1.205230379E+01  2.563692709E-07  0.00000E+00  9.000E+00
      21     1     1     2   512   517 -5.251270609E+00 -8.367989712E+00 -4.699298447E+00  1.093994976E+01  1.460009660E-07  0.00000E+00  9.000E+00
      21     1     1     2   513   514 -2.331340551E+00 -2.972411089E-01 -1.815976960E+01  1.831121877E+01  0.000000000E+00  0.00000E+00  9.000E+00
</event>
<event>
      5  10001  2.40292E+09  1.06795E+01 -1.00000E+00  1.92457E-01
      21    -1     0     0   515   517  0.000000000E+00  0.000000000E+00  2.121771154E+01  2.121771154E+01  0.000000000E+00  0.00000E+00  9.000E+00
      21    -1     0     0   511   516  0.000000000E+00  0.000000000E+00 -3.265923438E+01  3.265923438E+01  0.000000000E+00  0.00000E+00  9.000E+00
      21     1     1     2   515   516  8.916038585E+00  4.520561118E+00 -3.110514801E+00  1.046931322E+01  1.192092896E-07  0.00000E+00  9.000E+00
      21     1     1     2   511   512 -1.676633951E+01  2.719920188E+00 -2.088863963E+01  2.692291537E+01  4.129530925E-07  0.00000E+00  9.000E+00
      21     1     1     2   512   517  7.850300928E+00 -7.240481306E+00  1.255763159E+01  1.648471733E+01  3.371747881E-07  0.00000E+00  9.000E+00
</event>
<event>
      5  10001  2.40292E+09  1.87081E+01 -1.00000E+00  1.68755E-01
      21    -1     0     0   513   511  0.000000000E+00  0.000000000E+00  1.846593750E+02  1.846593750E+02  0.000000000E+00  0.00000E+00  9.000E+00
      21    -1     0     0   514   513  0.000000000E+00  0.000000000E+00 -4.778733860E+01  4.778733860E+01  0.000000000E+00  0.00000E+00  9.000E+00
      21     1     1     2   514   517  1.024424567E+01 -5.609386345E+00 -4.677842613E+01  4.821442663E+01  6.743495762E-07  0.00000E+00  9.000E+00
      21     1     1     2   517   515  1.697031728E-01  3.733859599E+00  3.308589723E+01  3.329635269E+01  4.768371582E-07  0.00000E+00  9.000E+00
      21     1     1     2   515   511 -1.041394885E+01  1.875526747E+00  1.505645653E+02  1.509359343E+02  1.907348633E-06  0.00000E+00  9.000E+00
</event>
<event>
      5  10001  2.40292E+09  2.17278E+00 -1.00000E+00  3.46879E-01
      21    -1     0     0   512   514  0.000000000E+00  0.000000000E+00  8.011008944E+01  8.011008944E+01  0.000000000E+00  0.00000E+00  9.000E+00
      -3    -1     0     0     0   512  0.000000000E+00  0.000000000E+00 -5.753484445E+00  5.753484445E+00  0.000000000E+00  0.00000E+00  9.000E+00
      -3     1     1     2     0   513 -6.360361066E+00  9.051668982E+00  3.683472021E+00  1.167068423E+01  5.000000000E-01  0.00000E+00  9.000E+00
      21     1     1     2   513   511  7.852180801E+00 -1.063084899E+01  2.343514767E+01  2.690497798E+01  0.000000000E+00  0.00000E+00  9.000E+00
      21     1     1     2   511   514 -1.491819735E+00  1.579180005E+00  4.723798530E+01  4.728791168E+01  9.536743164E-07  0.00000E+00  9.000E+00
</event>
<event>
      5  10001  2.40292E+09  7.59461E+00 -1.00000E+00  2.10600E-01
      21    -1     0     0   512   513  0.000000000E+00  0.000000000E+00  2.111449394E+02  2.111449394E+02  0.000000000E+00  0.00000E+00  9.000E+00
      21    -1     0     0   516   514  0.000000000E+00  0.000000000E+00 -1.288829114E+02  1.288829114E+02  0.000000000E+00  0.00000E+00  9.000E+00
      21     1     1     2   515   514 -6.675209051E-01 -8.086931842E+00 -4.084041254E+00  9.084241506E+00  1.192092896E-07  0.00000E+00  9.000E+00
      21     1     1     2   516   513  6.473722479E+00  1.298245843E+01 -1.217990697E+02  1.226599637E+02  0.000000000E+00  0.00000E+00  9.000E+00
      21     1     1     2   512   515 -5.806201574E+00 -4.895526587E+00  2.081451390E+02  2.082836456E+02  2.697398305E-06  0.00000E+00  9.000E+00
</event>
<event>
      5  10001  2.40292E+09  1.57125E+01 -1.00000E+00  1.75459E-01
      21    -1     0     0   511   514  0.000000000E+00  0.000000000E+00  1.188714435E+00  1.188714435E+00  0.000000000E+00  0.00000E+00  9.000E+00
      21    -1     0     0   517   511  0.000000000E+00  0.000000000E+00 -1.434026504E+02  1.434026504E+02  0.000000000E+00  0.00000E+00  9.000E+00
      21     1     1     2   517   515  5.850547646E+00  8.116423496E+00 -4.331603353E+01  4.445654057E+01  8.259061849E-07  0.00000E+00  9.000E+00
      21     1     1     2   513   514 -4.572402276E+00 -2.526866494E-01 -1.155537697E+01  1.242970032E+01  2.384185791E-07  0.00000E+00  9.000E+00
      21     1     1     2   515   513 -1.278145369E+00 -7.863736847E+00 -8.734252544E+01  8.770512393E+01  1.348699152E-06  0.00000E+00  9.000E+00
</event>
<event>
      5  10001  2.40292E+09  2.22565E+01 -1.00000E+00  1.62588E-01
      21    -1     0     0   512   513  0.000000000E+00  0.000000000E+00  3.352162499E+00  3.352162499E+00  0.000000000E+00  0.00000E+00  9.000E+00
      21    -1     0     0   515   516  0.000000000E+00  0.000000000E+00 -7.139736619E+01  7.139736619E+01  0.000000000E+00  0.00000E+00  9.000E+00
      21     1     1     2   512   516  3.403700160E+00 -5.339193283E+00 -1.705110144E+01  1.818879380E+01  2.384185791E-07  0.00000E+00  9.000E+00
      21     1     1     2   515   511  4.875724649E+00  8.457680426E+00 -7.873326120E+00  1.254170296E+01  2.384185791E-07  0.00000E+00  9.000E+00
      21     1     1     2   511   513 -8.279424809E+00 -3.118487143E+00 -4.312077613E+01  4.401903193E+01  4.768371582E-07  0.00000E+00  9.000E+00
</event>
<event>
      5  10001  2.40292E+09  1.30231E+01 -1.00000E+00  1.83317E-01
      21    -1     0     0   514   515  0.000000000E+00  0.000000000E+00  1.064476699E+02  1.064476699E+02  0.000000000E+00  0.00000E+00  9.000E+00
      21    -1     0     0   513   514  0.000000000E+00  0.000000000E+00 -3.194228971E+01  3.194228971E+01  0.000000000E+00  0.00000E+00  9.000E+00
      21     1     1     2   513   517 -1.820601167E+01 -1.011970474E+01 -2.703509519E+01  3.412863397E+01  5.840038640E-07  0.00000E+00  9.000E+00
      21     1     1     2   517   512  2.466893463E+00  4.107914796E+00  4.526441384E+01  4.551733392E+01  0.000000000E+00  0.00000E+00  9.000E+00
      21     1     1     2   512   515  1.573911821E+01  6.011789940E+00  5.627606151E+01  5.874399169E+01  9.536743164E-07  0.00000E+00  9.000E+00
</event>
<event>
      5  10001  2.40292E+09  7.92938E+00 -1.00000E+00  2.08109E-01
      21    -1     0     0   511   516  0.000000000E+00  0.000000000E+00  1.601598403E+02  1.601598403E+02  0.000000000E+00  0.00000E+00  9.000E+00
      21    -1     0     0   513   515  0.000000000E+00  0.000000000E+00 -7.330840863E-01  7.330840863E-01  0.000000000E+00  0.00000E+00  9.000E+00
      21     1     1     2   511   515  7.500576546E+00 -6.889415849E+00  5.805191442E+01  5.893850581E+01  6.743495762E-07  0.00000E+00  9.000E+00
      21     1     1     2   514   516 -9.802630166E-01  5.842897803E-01  2.767793186E+01  2.770144802E+01  3.371747881E-07  0.00000E+00  9.000E+00
      21     1     1     2   513   514 -6.520313529E+00  6.305126069E+00  7.369690989E+01  7.425297052E+01  9.536743164E-07  0.00000E+00  9.000E+00
</event>
<event>
      5  10001  2.40292E+09  3.46747E+00 -1.00000E+00  2.78880E-01
      21    -1     0     0   512   514  0.000000000E+00  0.000000000E+00  1.234904681E+02  1.234904681E+02  0.000000000E+00  0.00000E+00  9.000E+00
      21    -1     0     0   511   517  0.000000000E+00  0.000000000E+00 -3.636945018E+01  3.636945018E+01  0.000000000E+00  0.00000E+00  9.000E+00
      21     1     1     2   512   517  3.006850525E+00 -8.831593092E+00  1.045979474E+02  1.050131839E+02  1.348699152E-06  0.00000E+00  9.000E+00
      21     1     1     2   513   514 -8.452065963E-01  1.154280449E+01  1.679676247E+01  2.039808666E+01  4.768371582E-07  0.00000E+00  9.000E+00
      21     1     1     2   511   513 -2.161643928E+00 -2.711211402E+00 -3.427369195E+01  3.444864775E+01  0.000000000E+00  0.00000E+00  9.000E+00
</event>
<event>
      5  10001  2.40292E+09  9.50432E+00 -1.00000E+00  1.98285E-01
      21    -1     0     0   512   514  0.000000000E+00  0.000000000E+00  2.188162255E+02  2.188162255E+02  0.000000000E+00  0.00000E+00  9.000E+00
       2    -1     0     0   514     0  0.000000000E+00  0.000000000E+00 -3.644966214E+02  3.644966214E+02  0.000000000E+00  0.00000E+00  9.000E+00
      21     1     1     2   513   511 -3.081244212E+00 -8.205478335E+00  2.137743469E+02  2.139539561E+02  4.672030912E-06  0.00000E+00  9.000E+00
       2     1     1     2   511     0 -2.905020557E+00  1.558766610E+01 -3.595047917E+02  3.598544409E+02  3.300000131E-01  0.00000E+00  9.000E+00
      21     1     1     2   512   513  5.986264769E+00 -7.382187770E+00  5.004892539E-02  9.504449855E+00  1.449157079E-07  0.00000E+00  9.000E+00
</event>
<event>
      5  10001  2.40292E+09  4.42317E+00 -1.00000E+00  2.53487E-01
      21    -1     0     0   515   511  0.000000000E+00  0.000000000E+00  3.001569715E+00  3.001569715E+00  0.000000000E+00  0.00000E+00  9.000E+00
      21    -1     0     0   514   513  0.000000000E+00  0.000000000E+00 -5.072464140E+01  5.072464140E+01  0.000000000E+00  0.00000E+00  9.000E+00
      21     1     1     2   515   513 -1.024753144E+01  2.220677722E+00 -3.359723163E+01  3.519541566E+01  0.000000000E+00  0.00000E+00  9.000E+00
      21     1     1     2   514   516  8.071338073E+00 -1.505960270E+00 -1.400832548E+01  1.623722874E+01  1.685873940E-07  0.00000E+00  9.000E+00
      21     1     1     2   516   511  2.176193365E+00 -7.147174513E-01 -1.175145805E-01  2.293566715E+00  4.429415595E-08  0.00000E+00  9.000E+00
</event>
<event>
      5  10001  2.40292E+09  4.27950E+00 -1.00000E+00  2.56642E-01
      21    -1     0     0   512   516  0.000000000E+00  0.000000000E+00  3.700987484E+01  3.700987484E+01  0.000000000E+00  0.00000E+00  9.000E+00
      21    -1     0     0   513   512  0.000000000E+00  0.000000000E+00 -2.339704293E+02  2.339704293E+02  0.000000000E+00  0.00000E+00  9.000E+00
      21     1     1     2   514   516  5.624683446E+00 -9.581049215E+00  3.407881254E+01  3.584409341E+01  6.743495762E-07  0.00000E+00  9.000E+00
      21     1     1     2   511   514 -8.018634884E+00  1.312831267E+01 -2.717629567E+01  3.122822674E+01  3.371747881E-07  0.00000E+00  9.000E+00
      21     1     1     2   513   511  2.393951438E+00 -3.547263456E+00 -2.038630713E+02  2.039079839E+02  4.672030912E-06  0.00000E+00  9.000E+00
</event>
<event>
      5  10001  2.40292E+09  1.07754E+01 -1.00000E+00  1.92025E-01
       4    -1     0     0   512     0  0.000000000E+00  0.000000000E+00  3.028754749E+02  3.028754749E+02  0.000000000E+00  0.00000E+00  9.000E+00
      21    -1     0     0   514   511  0.000000000E+00  0.000000000E+00 -3.552874619E+00  3.552874619E+00  0.000000000E+00  0.00000E+00  9.000E+00
      21     1     1     2   512   511  5.877314719E+00  1.266364853E+01  2.460693271E+02  2.464650575E+02  0.000000000E+00  0.00000E+00  9.000E+00
       4     1     1     2   515     0 -9.145393360E+00 -2.416091188E+00  4.600879598E+01  4.699505319E+01  1.500000000E+00  0.00000E+00  9.000E+00
      21     1     1     2   514   515  3.268078642E+00 -1.024755735E+01  7.244477258E+00  1.296823890E+01  3.371747881E-07  0.00000E+00  9.000E+00
</event>
<event>
      5  10001  2.40292E+09  3.37005E+00 -1.00000E+00  2.82211E-01
      21    -1     0     0   513   511  0.000000000E+00  0.000000000E+00  9.224458619E+00  9.224458619E+00  0.000000000E+00  0.00000E+00  9.000E+00
      21    -1     0     0   514   513  0.000000000E+00  0.000000000E+00 -3.947764053E+01  3.947764053E+01  0.000000000E+00  0.00000E+00  9.000E+00
      21     1     1     2   514   516  4.611567800E+00 -9.396421985E+00 -3.533011426E+01  3.684801592E+01  6.743495762E-07  0.00000E+00  9.000E+00
      21     1     1     2   516   512 -2.301375169E+00  2.328702495E+00  1.661793591E+00  3.671612849E+00  1.413648275E-07  0.00000E+00  9.000E+00
      21     1     1     2   512   511 -2.310192631E+00  7.067719490E+00  3.415138758E+00  8.182470379E+00  2.457562462E-07  0.00000E+00  9.000E+00
</event>
<event>
      5  10001  2.40292E+09  1.12617E+01 -1.00000E+00  1.89920E-01
       2    -1     0     0   515     0  0.000000000E+00  0.000000000E+00  6.949483999E+00  6.949483999E+00  0.000000000E+00  0.00000E+00  9.000E+00
      21    -1     0     0   512   513  0.000000000E+00  0.000000000E+00 -3.675311945E+02  3.675311945E+02  0.000000000E+00  0.00000E+00  9.000E+00
      21     1     1     2   514   513 -4.997296551E+00 -4.359149500E+00 -1.112203380E+02  1.114178565E+02  1.348699152E-06  0.00000E+00  9.000E+00
       2     1     1     2   512     0  8.172030181E+00  6.125122404E+00  3.020256593E+00  1.065504818E+01  3.300000131E-01  0.00000E+00  9.000E+00
      21     1     1     2   515   514 -3.174733630E+00 -1.765972904E+00 -2.523816291E+02  2.524077739E+02  6.031565972E-06  0.00000E+00  9.000E+00
</event>
<event>
      5  10001  2.40292E+09  1.00872E+01 -1.00000E+00  1.95264E-01
      21    -1     0     0   511   514  0.000000000E+00  0.000000000E+00  5.457607248E+01  5.457607248E+01  0.000000000E+00  0.00000E+00  9.000E+00
      21    -1     0     0   516   511  0.000000000E+00  0.000000000E+00 -2.376193586E+00  2.376193586E+00  0.000000000E+00  0.00000E+00  9.000E+00
      21     1     1     2   512   514 -3.270170893E+00 -6.534712041E+00  2.032532644E+01  2.159896697E+01  5.331201500E-07  0.00000E+00  9.000E+00
      21     1     1     2   516   513 -1.039740282E+00  9.008027082E+00  1.309966158E+01  1.593194104E+01  1.685873940E-07  0.00000E+00  9.000E+00
      21     1     1     2   513   512  4.309911175E+00 -2.473315041E+00  1.877489087E+01  1.942135806E+01  2.384185791E-07  0.00000E+00  9.000E+00
</event>
<event>
      5  10001  2.40292E+09  6.47859E+00 -1.00000E+00  2.20342E-01
       2    -1     0     0   515     0  0.000000000E+00  0.000000000E+00  4.819004693E+02  4.819004693E+02  0.000000000E+00  0.00000E+00  9.000E+00
      21    -1     0     0   513   514  0.000000000E+00  0.000000000E+00 -2.090938300E+01  2.090938300E+01  0.000000000E+00  0.00000E+00  9.000E+00
      21     1     1     2   515   511 -1.315936902E+01  1.485963308E+01  2.582444096E+02  2.590060863E+02  5.394796609E-06  0.00000E+00  9.000E+00
       2     1     1     2   513     0  7.605997090E+00 -1.152321292E+01  2.225446268E+02  2.229727684E+02  3.300000131E-01  0.00000E+00  9.000E+00
      21     1     1     2   511   514  5.553371927E+00 -3.336420154E+00 -1.979794999E+01  2.083099765E+01  8.596304120E-07  0.00000E+00  9.000E+00
</event>
<event>
      5  10001  2.40292E+09  8.47215E+00 -1.00000E+00  2.04403E-01
      21    -1     0     0   511   513  0.000000000E+00  0.000000000E+00  7.813479537E+00  7.813479537E+00  0.000000000E+00  0.00000E+00  9.000E+00
       2    -1     0     0   513     0  0.000000000E+00  0.000000000E+00 -5.028342515E+02  5.028342515E+02  0.000000000E+00  0.00000E+00  9.000E+00
      21     1     1     2   511   515  1.725881214E+00 -1.833299922E+00  3.519345026E+00  4.327290605E+00  3.862822472E-07  0.00000E+00  9.000E+00
       2     1     1     2   512     0 -9.916241364E+00 -1.678186661E+00 -4.972082796E+02  4.973100948E+02  3.300000131E-01  0.00000E+00  9.000E+00
      21     1     1     2   515   512  8.190360151E+00  3.511486583E+00 -1.331837339E+00  9.010345616E+00  3.449868233E-07  0.00000E+00  9.000E+00
</event>
<event>
      5  10001  2.40292E+09  3.25610E+01 -1.00000E+00  1.50575E-01
      21    -1     0     0   514   512  0.000000000E+00  0.000000000E+00  1.855570951E+01  1.855570951E+01  0.000000000E+00  0.00000E+00  9.000E+00
      21    -1     0     0   513   516  0.000000000E+00  0.000000000E+00 -5.937019351E+01  5.937019351E+01  0.000000000E+00  0.00000E+00  9.000E+00
      21     1     1     2   514   516  1.316888546E+01 -3.442760281E+00  1.254131279E+01  1.850828650E+01  0.000000000E+00  0.00000E+00  9.000E+00
      21     1     1     2   511   512  5.962144206E+00 -1.154456360E-01 -1.923343390E+01  2.013666981E+01  2.384185791E-07  0.00000E+00  9.000E+00
      21     1     1     2   513   511 -1.913102967E+01  3.558205916E+00 -3.412236289E+01  3.928094671E+01  6.743495762E-07  0.00000E+00  9.000E+00
</event>
<event>
      5  10001  2.40292E+09  7.79627E+00 -1.00000E+00  2.09079E-01
      -3    -1     0     0     0   515  0.000000000E+00  0.000000000E+00  1.246310190E+01  1.246310190E+01  0.000000000E+00  0.00000E+00  9.000E+00
      21    -1     0     0   512   511  0.000000000E+00  0.000000000E+00 -2.540985492E+01  2.540985492E+01  0.000000000E+00  0.00000E+00  9.000E+00
      21     1     1     2   514   511 -4.380727219E+00  1.076781193E+00 -1.939606793E+01  1.991375605E+01  0.000000000E+00  0.00000E+00  9.000E+00
      21     1     1     2   512   515  9.926120445E+00 -1.718438442E+00  7.089008092E+00  1.231807345E+01  1.685873940E-07  0.00000E+00  9.000E+00
      -3     1     1     2     0   514 -5.545393226E+00  6.416572489E-01 -6.396931723E-01  5.641127318E+00  5.000000000E-01  0.00000E+00  9.000E+00
</event>
<event>
      5  10001  2.40292E+09  2.53400E+00 -1.00000E+00  3.20882E-01
       2    -1     0     0   513     0  0.000000000E+00  0.000000000E+00  8.069650355E+01  8.069650355E+01  0.000000000E+00  0.00000E+00  9.000E+00
      21    -1     0     0   516   513  0.000000000E+00  0.000000000E+00 -9.479379375E+01  9.479379375E+01  0.000000000E+00  0.00000E+00  9.000E+00
      21     1     1     2   512   514  1.022956732E+01  1.649731837E+00 -2.218000228E+01  2.448097555E+01  5.840038640E-07  0.00000E+00  9.000E+00
      21     1     1     2   516   512 -1.039276314E+01  8.790031524E-01 -7.106202094E+01  7.182334573E+01  1.348699152E-06  0.00000E+00  9.000E+00
       2     1     1     2   514     0  1.631958152E-01 -2.528734990E+00  7.914473302E+01  7.918597602E+01  3.300000131E-01  0.00000E+00  9.000E+00
</event>
<event>
      5  10001  2.40292E+09  1.63221E+01 -1.00000E+00  1.73950E-01
      21    -1     0     0   511   512  0.000000000E+00  0.000000000E+00  6.678411516E+00  6.678411516E+00  0.000000000E+00  0.00000E+00  9.000E+00
      21    -1     0     0   515   511  0.000000000E+00  0.000000000E+00 -2.137333460E+02  2.137333460E+02  0.000000000E+00  0.00000E+00  9.000E+00
      21     1     1     2   516   512 -2.092993946E+00  1.544382809E+01 -3.591004777E+00  1.599336628E+01  3.125693942E-07  0.00000E+00  9.000E+00
      21     1     1     2   515   513 -3.256756056E+00 -1.545115820E+00 -7.634405845E+01  7.642911162E+01  0.000000000E+00  0.00000E+00  9.000E+00
      21     1     1     2   513   516  5.349750002E+00 -1.389871227E+01 -1.271198712E+02  1.279892796E+02  1.348699152E-06  0.00000E+00  9.000E+00
</event>
<event>
      5  10001  2.40292E+09  1.55403E+01 -1.00000E+00  1.75901E-01
      21    -1     0     0   514   513  0.000000000E+00  0.000000000E+00  2.595907853E+01  2.595907853E+01  0.000000000E+00  0.00000E+00  9.000E+00
      21    -1     0     0   517   514  0.000000000E+00  0.000000000E+00 -1.893335545E+01  1.893335545E+01  0.000000000E+00  0.00000E+00  9.000E+00
      21     1     1     2   515   513  7.604281827E+00  5.537990349E+00  1.592697213E+01  1.849764527E+01  1.685873940E-07  0.00000E+00  9.000E+00
      21     1     1     2   517   511 -9.293835398E-01 -1.044115377E+01 -1.336566439E+01  1.698594802E+01  2.920019320E-07  0.00000E+00  9.000E+00
      21     1     1     2   511   515 -6.674898288E+00  4.903163419E+00  4.464415332E+00  9.408840679E+00  2.230201594E-07  0.00000E+00  9.000E+00
</event>
<event>
      5  10001  2.40292E+09  5.95601E+00 -1.00000E+00  2.25890E-01
      21    -1     0     0   512   513  0.000000000E+00  0.000000000E+00  2.689370796E+01  2.689370796E+01  0.000000000E+00  0.00000E+00  9.000E+00
      21    -1     0     0   516   512  0.000000000E+00  0.000000000E+00 -9.524199755E+01  9.524199755E+01  0.000000000E+00  0.00000E+00  9.000E+00
      21     1     1     2   516   515  3.377179971E+00  1.009495123E+01 -9.271051066E+01  9.331962372E+01  1.348699152E-06  0.00000E+00  9.000E+00
      -5     1     1     2     0   513 -3.255878455E-01 -2.347950171E+00  1.213837651E+01  1.326646387E+01  4.800000191E+00  0.00000E+00  9.000E+00
       5     1     1     2   515     0 -3.051592126E+00 -7.747001055E+00  1.222384456E+01  1.554961792E+01  4.800000191E+00  0.00000E+00  9.000E+00
</event>
<event>
      5  10001  2.40292E+09  5.77039E+00 -1.00000E+00  2.28056E-01
       2    -1     0     0   514     0  0.000000000E+00  0.000000000E+00  1.519185569E+00  1.519185569E+00  0.000000000E+00  0.00000E+00  9.000E+00
      21    -1     0     0   513   512  0.000000000E+00  0.000000000E+00 -2.720929652E+02  2.720929652E+02  0.000000000E+00  0.00000E+00  9.000E+00
      21     1     1     2   514   512 -6.833179813E+00 -4.344209947E+00 -4.106868604E+01  4.185930577E+01  4.768371582E-07  0.00000E+00  9.000E+00
       2     1     1     2   511     0  1.162031174E+01  7.565346847E+00 -4.348747935E+01  4.564576517E+01  3.300000131E-01  0.00000E+00  9.000E+00
      21     1     1     2   513   511 -4.787131923E+00 -3.221136900E+00 -1.860176143E+02  1.861070799E+02  3.814697266E-06  0.00000E+00  9.000E+00
</event>
<event>
      5  10001  2.40292E+09  1.32639E+01 -1.00000E+00  1.82518E-01
      21    -1     0     0   512   516  0.000000000E+00  0.000000000E+00  1.902687283E+01  1.902687283E+01  0.000000000E+00  0.00000E+00  9.000E+00
      21    -1     0     0   513   515  0.000000000E+00  0.000000000E+00 -4.952684926E+01  4.952684926E+01  0.000000000E+00  0.00000E+00  9.000E+00
      21     1     1     2   511   516 -1.407539993E+01 -9.653356935E+00  2.448940346E+00  1.724243290E+01  2.086162567E-07  0.00000E+00  9.000E+00
      21     1     1     2   513   511  9.389208872E-01  1.148715165E+01 -3.591571078E+01  3.771968328E+01  6.743495762E-07  0.00000E+00  9.000E+00
      21     1     1     2   512   515  1.313647905E+01 -1.833794717E+00  2.966794009E+00  1.359160592E+01  2.346637211E-07  0.00000E+00  9.000E+00
</event>
<event>
      5  10001  2.40292E+09  3.87911E+00 -1.00000E+00  2.66540E-01
      21    -1     0     0   514   513  0.000000000E+00  0.000000000E+00  9.789094511E+01  9.789094511E+01  0.000000000E+00  0.00000E+00  9.000E+00
      21    -1     0     0   517   511  0.000000000E+00  0.000000000E+00 -1.293388672E+01  1.293388672E+01  0.000000000E+00  0.00000E+00  9.000E+00
      21     1     1     2   517   515  8.075429514E+00  1.085503143E+01  2.418344748E+00  1.374382263E+01  1.397852826E-07  0.00000E+00  9.000E+00
      21     1     1     2   515   513 -6.512994975E+00 -7.304496209E+00  8.900446768E+01  8.954088471E+01  1.907348633E-06  0.00000E+00  9.000E+00
      21     1     1     2   514   511 -1.562434539E+00 -3.550535225E+00 -6.465754028E+00  7.540124484E+00  1.884864366E-07  0.00000E+00  9.000E+00
</event>
<event>
      5  10001  2.40292E+09  9.04370E+00 -1.00000E+00  2.00881E-01
      21    -1     0     0   512   511  0.000000000E+00  0.000000000E+00  2.258334748E+02  2.258334748E+02  0.000000000E+00  0.00000E+00  9.000E+00
      21    -1     0     0   517   516  0.000000000E+00  0.000000000E+00 -2.762830693E+00  2.762830693E+00  0.000000000E+00  0.00000E+00  9.000E+00
      21     1     1     2   512   516 -6.704984441E+00  1.313418732E+01  1.846153015E+02  1.852033295E+02  3.814697266E-06  0.00000E+00  9.000E+00
      21     1     1     2   513   511 -6.949917405E-01 -1.078348371E+01  1.370069511E+01  1.744922866E+01  5.591411304E-07  0.00000E+00  9.000E+00
      21     1     1     2   517   513  7.399976181E+00 -2.350703603E+00  2.475464741E+01  2.594374729E+01  4.768371582E-07  0.00000E+00  9.000E+00
</event>
<event>
      5  10001  2.40292E+09  1.55712E+01 -1.00000E+00  1.75821E-01
      21    -1     0     0   513   511  0.000000000E+00  0.000000000E+00  1.392268960E+01  1.392268960E+01  0.000000000E+00  0.00000E+00  9.000E+00
       1    -1     0     0   511     0  0.000000000E+00  0.000000000E+00 -5.874142144E+01  5.874142144E+01  0.000000000E+00  0.00000E+00  9.000E+00
      21     1     1     2   513   512  5.250804592E+00 -3.721471454E+00 -2.374957887E+00  6.860081895E+00  1.154238983E-07  0.00000E+00  9.000E+00
       1     1     1     2   514     0 -1.462874275E+01  9.384236702E+00 -4.970770101E+01  5.265955234E+01  3.300000131E-01  0.00000E+00  9.000E+00
      21     1     1     2   512   514  9.377938156E+00 -5.662765247E+00  7.263927054E+00  1.314447681E+01  3.039252468E-07  0.00000E+00  9.000E+00
</event>
<event>
      5  10001  2.40292E+09  2.62091E+00 -1.00000E+00  3.15727E-01
      21    -1     0     0   513   512  0.000000000E+00  0.000000000E+00  2.430926244E+01  2.430926244E+01  0.000000000E+00  0.00000E+00  9.000E+00
      21    -1     0     0   511   515  0.000000000E+00  0.000000000E+00 -3.415099101E+01  3.415099101E+01  0.000000000E+00  0.00000E+00  9.000E+00
      21     1     1     2   511   516 -7.038682015E+00  8.281093437E+00 -3.089454863E+01  3.275046088E+01  5.840038640E-07  0.00000E+00  9.000E+00
      21     1     1     2   516   512  8.755823377E+00 -6.301041753E+00  1.134717641E+01  1.565649970E+01  4.129530925E-07  0.00000E+00  9.000E+00
      21     1     1     2   513   515 -1.717141362E+00 -1.980051684E+00  9.705643643E+00  1.005329288E+01  0.000000000E+00  0.00000E+00  9.000E+00
</event>
<event>
      5  10001  2.40292E+09  8.19121E+00 -1.00000E+00  2.06273E-01
      21    -1     0     0   514   515  0.000000000E+00  0.000000000E+00  1.876584890E+02  1.876584890E+02  0.000000000E+00  0.00000E+00  9.000E+00
      21    -1     0     0   511   517  0.000000000E+00  0.000000000E+00 -5.846903114E-01  5.846903114E-01  0.000000000E+00  0.00000E+00  9.000E+00
      21     1     1     2   514   517  6.563844009E+00 -5.321394649E+00  5.604627879E+01  5.667968468E+01  6.743495762E-07  0.00000E+00  9.000E+00
      21     1     1     2   511   512 -2.518891292E+00  5.311496994E+00  3.836746638E+01  3.881519406E+01  4.768371582E-07  0.00000E+00  9.000E+00
      21     1     1     2   512   515 -4.044952718E+00  9.897655006E-03  9.266005355E+01  9.274830060E+01  1.348699152E-06  0.00000E+00  9.000E+00
</event>
<event>
      5  10001  2.40292E+09  1.77155E+01 -1.00000E+00  1.70792E-01
      -1    -1     0     0     0   512  0.000000000E+00  0.000000000E+00  1.049100547E+02  1.049100547E+02  0.000000000E+00  0.00000E+00  9.000E+00
       1    -1     0     0   512     0  0.000000000E+00  0.000000000E+00 -6.237061156E+01  6.237061156E+01  0.000000000E+00  0.00000E+00  9.000E+00
      -1     1     1     2     0   511 -3.640363217E+00 -2.240181566E+01  9.355309112E+01  9.626724961E+01  3.300000131E-01  0.00000E+00  9.000E+00
       1     1     1     2   513     0  5.445292446E+00  1.078534399E+01 -5.668628068E+01  5.796048803E+01  3.300000131E-01  0.00000E+00  9.000E+00
      21     1     1     2   511   513 -1.804929229E+00  1.161647166E+01  5.672632671E+00  1.305292859E+01  8.429369702E-08  0.00000E+00  9.000E+00
</event>
<event>
      5  10001  2.40292E+09  2.41305E+00 -1.00000E+00  3.28687E-01
      21    -1     0     0   515   512  0.000000000E+00  0.000000000E+00  9.863045909E+01  9.863045909E+01  0.000000000E+00  0.00000E+00  9.000E+00
      -3    -1     0     0     0   514  0.000000000E+00  0.000000000E+00 -3.481745217E+00  3.481745217E+00  0.000000000E+00  0.00000E+00  9.000E+00
      -3     1     1     2     0   512 -3.447740539E+00  1.202268451E+01  8.379002795E+01  8.471983617E+01  5.000000000E-01  0.00000E+00  9.000E+00
      21     1     1     2   515   516  2.539564856E+00 -7.796930565E+00  4.693194035E+00  9.448152525E+00  8.429369702E-08  0.00000E+00  9.000E+00
      21     1     1     2   516   514  9.081756829E-01 -4.225753949E+00  6.665491893E+00  7.944215612E+00  1.460009660E-07  0.00000E+00  9.000E+00
</event>
<event>
      5  10001  2.40292E+09  1.04211E+01 -1.00000E+00  1.93652E-01
      21    -1     0     0   511   514  0.000000000E+00  0.000000000E+00  5.889230315E+00  5.889230315E+00  0.000000000E+00  0.00000E+00  9.000E+00
      21    -1     0     0   512   513  0.000000000E+00  0.000000000E+00 -1.661105167E+02  1.661105167E+02  0.000000000E+00  0.00000E+00  9.000E+00
      21     1     1     2   511   513  2.199038211E+01 -1.572699103E+01 -3.835854253E+01  4.692859403E+01  8.259061849E-07  0.00000E+00  9.000E+00
      21     1     1     2   512   515 -5.396563254E+00  8.437632930E+00 -4.472862486E+01  4.583630031E+01  6.743495762E-07  0.00000E+00  9.000E+00
      21     1     1     2   515   514 -1.659381886E+01  7.289358097E+00 -7.713411903E+01  7.923485271E+01  1.651812370E-06  0.00000E+00  9.000E+00
</event>
<event>
      5  10001  2.40292E+09  1.00732E+01 -1.00000E+00  1.95333E-01
       2    -1     0     0   511     0  0.000000000E+00  0.000000000E+00  1.223908908E+03  1.223908908E+03  0.000000000E+00  0.00000E+00  9.000E+00
       4    -1     0     0   515     0  0.000000000E+00  0.000000000E+00 -7.753330707E-01  7.753330707E-01  0.000000000E+00  0.00000E+00  9.000E+00
       2     1     1     2   515     0  7.287160387E+00 -6.633952573E+00  1.069627409E+03  1.069672855E+03  3.300000131E-01  0.00000E+00  9.000E+00
       4     1     1     2   512     0 -8.387948323E+00 -5.558349305E-01  2.749509305E+01  2.879056741E+01  1.500000000E+00  0.00000E+00  9.000E+00
      21     1     1     2   511   512  1.100787937E+00  7.189787503E+00  1.260110728E+02  1.262208194E+02  1.907348633E-06  0.00000E+00  9.000E+00
</event>
<event>
      5  10001  2.40292E+09  2.54791E+00 -1.00000E+00  3.20034E-01
      21    -1     0     0   513   515  0.000000000E+00  0.000000000E+00  8.860478276E+02  8.860478276E+02  0.000000000E+00  0.00000E+00  9.000E+00
      21    -1     0     0   514   516  0.000000000E+00  0.000000000E+00 -8.088192329E+00  8.088192329E+00  0.000000000E+00  0.00000E+00  9.000E+00
      21     1     1     2   512   515  1.067919009E+01  3.228089056E-01  8.541525663E+02  8.542193839E+02  0.000000000E+00  0.00000E+00  9.000E+00
      21     1     1     2   514   512 -9.908466583E+00 -2.751350364E+00  3.080140817E+01  3.247267134E+01  2.286830675E-06  0.00000E+00  9.000E+00
      21     1     1     2   513   516 -7.707235044E-01  2.428541459E+00 -6.994339238E+00  7.443964650E+00  9.000103993E-07  0.00000E+00  9.000E+00
</event>
<event>
      5  10001  2.40292E+09  3.93559E+00 -1.00000E+00  2.65033E-01
      21    -1     0     0   512   514  0.000000000E+00  0.000000000E+00  8.283927841E+01  8.283927841E+01  0.000000000E+00  0.00000E+00  9.000E+00
       2    -1     0     0   513     0  0.000000000E+00  0.000000000E+00 -4.947862915E+02  4.947862915E+02  0.000000000E+00  0.00000E+00  9.000E+00
      21     1     1     2   513   514  8.439747013E+00 -8.767092675E+00  5.877735555E+01  6.002390165E+01  2.697398305E-06  0.00000E+00  9.000E+00
       2     1     1     2   511     0 -5.045173277E+00  6.775681581E+00 -4.939613863E+02  4.940337273E+02  3.300000131E-01  0.00000E+00  9.000E+00
      21     1     1     2   512   511 -3.394573737E+00  1.991411094E+00  2.323701770E+01  2.356794095E+01  4.768371582E-07  0.00000E+00  9.000E+00
</event>
<event>
      5  10001  2.40292E+09  4.34560E+00 -1.00000E+00  2.55167E-01
       1    -1     0     0   515     0  0.000000000E+00  0.000000000E+00  3.876513130E+02  3.876513130E+02  0.000000000E+00  0.00000E+00  9.000E+00
      21    -1     0     0   512   511  0.000000000E+00  0.000000000E+00 -1.990072169E+00  1.990072169E+00  0.000000000E+00  0.00000E+00  9.000E+00
      21     1     1     2   515   511  1.042572962E+01  6.147951235E-02  1.254881672E+01  1.631479142E+01  9.078709013E-07  0.00000E+00  9.000E+00
       1     1     1     2   513     0 -9.496135012E+00  2.485582734E+00  2.701598156E+02  2.703382873E+02  3.300000131E-01  0.00000E+00  9.000E+00
      21     1     1     2   512   513 -9.295946107E-01 -2.547062247E+00  1.029526085E+02  1.029883064E+02  1.348699152E-06  0.00000E+00  9.000E+00
</event>
<event>
      5  10001  2.40292E+09  8.64683E+00 -1.00000E+00  2.03288E-01
      21    -1     0     0   514   511  0.000000000E+00  0.000000000E+00  3.044368997E+00  3.044368997E+00  0.000000000E+00  0.00000E+00  9.000E+00
      21    -1     0     0   512   516  0.000000000E+00  0.000000000E+00 -1.756563364E+02  1.756563364E+02  0.000000000E+00  0.00000E+00  9.000E+00
      21     1     1     2   514   516  1.722905293E+01 -1.036276702E+01 -1.036452636E+02  1.055773076E+02  1.348699152E-06  0.00000E+00  9.000E+00
      21     1     1     2   515   511 -1.667566683E+01  3.215807493E+00 -4.459336692E+01  4.771779181E+01  6.743495762E-07  0.00000E+00  9.000E+00
      21     1     1     2   512   515 -5.533861015E-01  7.146959529E+00 -2.437333685E+01  2.540560599E+01  3.371747881E-07  0.00000E+00  9.000E+00
</event>
<event>
      5  10001  2.40292E+09  1.32036E+01 -1.00000E+00  1.82716E-01
      21    -1     0     0   513   511  0.000000000E+00  0.000000000E+00  1.137026881E+02  1.137026881E+02  0.000000000E+00  0.00000E+00  9.000E+00
       3    -1     0     0   511     0  0.000000000E+00  0.000000000E+00 -6.008660024E+01  6.008660024E+01  0.000000000E+00  0.00000E+00  9.000E+00
      21     1     1     2   513   514 -6.932002548E+00  7.070496598E+00  3.277562939E+01  3.423866912E+01  0.000000000E+00  0.00000E+00  9.000E+00
       3     1     1     2   512     0  1.017570053E+01 -1.999835763E+01 -5.664386154E+01  6.092828768E+01  5.000000000E-01  0.00000E+00  9.000E+00
      21     1     1     2   514   512 -3.243697978E+00  1.292786103E+01  7.748432000E+01  7.862233152E+01  9.536743164E-07  0.00000E+00  9.000E+00
</event>
<event>
      5  10001  2.40292E+09  1.04310E+01 -1.00000E+00  1.93605E-01
      21    -1     0     0   515   511  0.000000000E+00  0.000000000E+00  2.666981855E-01  2.666981855E-01  0.000000000E+00  0.00000E+00  9.000E+00
       2    -1     0     0   512     0  0.000000000E+00  0.000000000E+00 -6.735057951E+02  6.735057951E+02  0.000000000E+00  0.00000E+00  9.000E+00
      21     1     1     2   512   513  2.280038718E+00 -4.658494841E+00 -5.195238733E+01  5.221063781E+01  1.168007728E-06  0.00000E+00  9.000E+00
       2     1     1     2   515     0  4.648970274E+00  8.105682073E+00 -4.539452614E+02  4.540415446E+02  3.300000131E-01  0.00000E+00  9.000E+00
      21     1     1     2   513   511 -6.929008992E+00 -3.447187232E+00 -1.673414481E+02  1.675203108E+02  1.907348633E-06  0.00000E+00  9.000E+00
</event>
<event>
      5  10001  2.40292E+09  1.54583E+01 -1.00000E+00  1.76114E-01
      21    -1     0     0   514   513  0.000000000E+00  0.000000000E+00  5.769459157E+02  5.769459157E+02  0.000000000E+00  0.00000E+00  9.000E+00
      21    -1     0     0   512   511  0.000000000E+00  0.000000000E+00 -5.129016515E-01  5.129016515E-01  0.000000000E+00  0.00000E+00  9.000E+00
      21     1     1     2   514   511  9.051108237E+00 -3.717466971E+00  5.611160215E+01  5.695835335E+01  6.743495762E-07  0.00000E+00  9.000E+00
      21     1     1     2   512   515 -2.960989919E+00 -3.137324139E+00  1.307180817E+02  1.307892471E+02  0.000000000E+00  0.00000E+00  9.000E+00
      21     1     1     2   515   513 -6.090118318E+00  6.854791110E+00  3.896033302E+02  3.897112169E+02  7.629394531E-06  0.00000E+00  9.000E+00
</event>
<event>
      5  10001  2.40292E+09  1.02525E+01 -1.00000E+00  1.94456E-01
      -2    -1     0     0     0   513  0.000000000E+00  0.000000000E+00  3.113377152E+02  3.113377152E+02  0.000000000E+00  0.00000E+00  9.000E+00
      21    -1     0     0   513   511  0.000000000E+00  0.000000000E+00 -1.784501683E+01  1.784501683E+01  0.000000000E+00  0.00000E+00  9.000E+00
      -2     1     1     2     0   515 -9.610748487E+00  6.220130906E+00  2.957038442E+02  2.959255462E+02  3.300000131E-01  0.00000E+00  9.000E+00
      21     1     1     2   515   514  1.570427126E+01 -1.446523902E+01  3.320392581E+00  2.160769036E+01  8.668327077E-07  0.00000E+00  9.000E+00
      21     1     1     2   514   511 -6.093522774E+00  8.245108113E+00 -5.531538417E+00  1.164949548E+01  5.960464478E-08  0.00000E+00  9.000E+00
</event>
<event>
      5  10001  2.40292E+09  7.27220E+00 -1.00000E+00  2.13169E-01
       4    -1     0     0   514     0  0.000000000E+00  0.000000000E+00  2.049461872E+00  2.049461872E+00  0.000000000E+00  0.00000E+00  9.000E+00
      21    -1     0     0   512   511  0.000000000E+00  0.000000000E+00 -1.986511708E+02  1.986511708E+02  0.000000000E+00  0.00000E+00  9.000E+00
       2     1     1     2   514     0 -3.954360150E+00 -1.750756370E+01 -1.305083012E+02  1.317371525E+02  3.300000131E-01  0.00000E+00  9.000E+00
       4     1     1     2   512     0  1.405239413E+00  1.467156900E+01 -4.130808556E+01  4.388436586E+01  1.500000000E+00  0.00000E+00  9.000E+00
      -2     1     1     2     0   511  2.549120738E+00  2.835994701E+00 -2.478532212E+01  2.507911432E+01  3.300000131E-01  0.00000E+00  9.000E+00
</event>
<event>
      5  10001  2.40292E+09  7.92093E+00 -1.00000E+00  2.08170E-01
      21    -1     0     0   513   511  0.000000000E+00  0.000000000E+00  7.926827982E+00  7.926827982E+00  0.000000000E+00  0.00000E+00  9.000E+00
      21    -1     0     0   516   515  0.000000000E+00  0.000000000E+00 -3.394949670E+01  3.394949670E+01  0.000000000E+00  0.00000E+00  9.000E+00
      21     1     1     2   513   515  9.893728001E+00  7.130077553E-01 -2.548913550E+01  2.735123877E+01  0.000000000E+00  0.00000E+00  9.000E+00
      21     1     1     2   516   512 -3.424126900E+00 -1.232735030E+00  4.870110940E+00  6.079659633E+00  1.884864366E-07  0.00000E+00  9.000E+00
      21     1     1     2   512   511 -6.469601101E+00  5.197272752E-01 -5.403644166E+00  8.445426284E+00  2.308477966E-07  0.00000E+00  9.000E+00
</event>
<event>
      5  10001  2.40292E+09  6.93666E+00 -1.00000E+00  2.16041E-01
      21    -1     0     0   514   515  0.000000000E+00  0.000000000E+00  4.776061716E+01  4.776061716E+01  0.000000000E+00  0.00000E+00  9.000E+00
      21    -1     0     0   511   513  0.000000000E+00  0.000000000E+00 -9.732704724E+00  9.732704724E+00  0.000000000E+00  0.00000E+00  9.000E+00
      21     1     1     2   511   517 -1.362515945E+01  6.083923335E+00  1.843674533E+01  2.371861445E+01  4.768371582E-07  0.00000E+00  9.000E+00
      21     1     1     2   517   515  7.752587685E+00 -2.392022546E+00  2.414846040E+01  2.547493920E+01  3.371747881E-07  0.00000E+00  9.000E+00
      21     1     1     2   514   513  5.872571761E+00 -3.691900789E+00 -4.557293294E+00  8.299768231E+00  5.960464478E-08  0.00000E+00  9.000E+00
</event>
<event>
      5  10001  2.40292E+09  1.44338E+01 -1.00000E+00  1.78924E-01
      21    -1     0     0   512   511  0.000000000E+00  0.000000000E+00  6.381011511E+01  6.381011511E+01  0.000000000E+00  0.00000E+00  9.000E+00
      21    -1     0     0   516   512  0.000000000E+00  0.000000000E+00 -7.224036666E+00  7.224036666E+00  0.000000000E+00  0.00000E+00  9.000E+00
      21     1     1     2   513   511 -5.025385477E+00 -7.241853616E+00  3.984888685E+01  4.081216395E+01  4.768371582E-07  0.00000E+00  9.000E+00
      21     1     1     2   515   513  1.056695349E+00  8.160437885E+00 -3.957071917E+00  9.130595254E+00  9.424321831E-08  0.00000E+00  9.000E+00
      21     1     1     2   516   515  3.968690128E+00 -9.185842686E-01  2.069426350E+01  2.109139257E+01  0.000000000E+00  0.00000E+00  9.000E+00
</event>
<event>
      5  10001  2.40292E+09  7.62346E+00 -1.00000E+00  2.10378E-01
      21    -1     0     0   514   516  0.000000000E+00  0.000000000E+00  1.999493106E+02  1.999493106E+02  0.000000000E+00  0.00000E+00  9.000E+00
      -3    -1     0     0     0   514  0.000000000E+00  0.000000000E+00 -1.620415887E+02  1.620415887E+02  0.000000000E+00  0.00000E+00  9.000E+00
      -3     1     1     2     0   512  8.027096090E+00 -9.403855508E+00 -1.612296847E+02  1.617038280E+02  5.000000000E-01  0.00000E+00  9.000E+00
      21     1     1     2   511   516 -1.589416597E+00  4.237340647E+00  1.683938533E+02  1.684546560E+02  2.697398305E-06  0.00000E+00  9.000E+00
      21     1     1     2   512   511 -6.437679493E+00  5.166514861E+00  3.074355327E+01  3.183241525E+01  8.259061849E-07  0.00000E+00  9.000E+00
</event>
<event>
      5  10001  2.40292E+09  5.45552E+00 -1.00000E+00  2.32002E-01
      21    -1     0     0   513   516  0.000000000E+00  0.000000000E+00  2.348371195E+02  2.348371195E+02  0.000000000E+00  0.00000E+00  9.000E+00
      21    -1     0     0   515   514  0.000000000E+00  0.000000000E+00 -2.610462817E+01  2.610462817E+01  0.000000000E+00  0.00000E+00  9.000E+00
      21     1     1     2   511   516 -9.025167082E+00 -4.169436027E+00  1.937226804E+02  1.939776140E+02  3.814697266E-06  0.00000E+00  9.000E+00
      21     1     1     2   515   511  1.084487265E+01 -9.736552391E-01  3.996388836E+01  4.142066683E+01  1.719260824E-06  0.00000E+00  9.000E+00
      21     1     1     2   513   514 -1.819705565E+00  5.143091267E+00 -2.495407744E+01  2.554346682E+01  9.536743164E-07  0.00000E+00  9.000E+00
</event>
<event>
      5  10001  2.40292E+09  7.47846E+00 -1.00000E+00  2.11505E-01
      21    -1     0     0   512   514  0.000000000E+00  0.000000000E+00  7.669343861E+02  7.669343861E+02  0.000000000E+00  0.00000E+00  9.000E+00
      21    -1     0     0   516   511  0.000000000E+00  0.000000000E+00 -2.856430289E+01  2.856430289E+01  0.000000000E+00  0.00000E+00  9.000E+00
      21     1     1     2   512   517  8.698939362E-01 -2.038171716E+01  6.749393088E+02  6.752475411E+02  1.078959322E-05  0.00000E+00  9.000E+00
      21     1     1     2   516   514 -2.626595086E+00  1.311250941E+01  9.085071110E+01  9.182967174E+01  4.672030912E-06  0.00000E+00  9.000E+00
      21     1     1     2   517   511  1.756701149E+00  7.269207744E+00 -2.741993671E+01  2.842147620E+01  1.846782373E-06  0.00000E+00  9.000E+00
</event>
<event>
      5  10001  2.40292E+09  4.42931E+00 -1.00000E+00  2.53356E-01
      21    -1     0     0   513   511  0.000000000E+00  0.000000000E+00  4.282767700E+02  4.282767700E+02  0.000000000E+00  0.00000E+00  9.000E+00
      21    -1     0     0   512   515  0.000000000E+00  0.000000000E+00 -4.890674286E+01  4.890674286E+01  0.000000000E+00  0.00000E+00  9.000E+00
      21     1     1     2   513   515 -9.279458823E+00 -8.918231751E+00 -8.813275861E+00  1.559862318E+01  5.960464478E-07  0.00000E+00  9.000E+00
      21     1     1     2   517   511  1.171172867E+01  5.216499212E+00  4.246533543E+02  4.248468521E+02  0.000000000E+00  0.00000E+00  9.000E+00
      21     1     1     2   512   517 -2.432269850E+00  3.701732539E+00 -3.647005130E+01  3.673803754E+01  1.651812370E-06  0.00000E+00  9.000E+00
</event>
<event>
      5  10001  2.40292E+09  1.33294E+01 -1.00000E+00  1.82304E-01
      21    -1     0     0   514   511  0.000000000E+00  0.000000000E+00  2.430651963E+01  2.430651963E+01  0.000000000E+00  0.00000E+00  9.000E+00
      21    -1     0     0   512   514  0.000000000E+00  0.000000000E+00 -3.256670495E+01  3.256670495E+01  0.000000000E+00  0.00000E+00  9.000E+00
      21     1     1     2   516   511  1.347229063E+01 -5.838723759E-01  2.032285502E+01  2.438979209E+01  0.000000000E+00  0.00000E+00  9.000E+00
      21     1     1     2   513   516 -5.556750338E+00  1.255686149E+00 -4.936320129E+00  7.538002284E+00  1.192092896E-07  0.00000E+00  9.000E+00
      21     1     1     2   512   513 -7.915540289E+00 -6.718137730E-01 -2.364672021E+01  2.494543021E+01  3.371747881E-07  0.00000E+00  9.000E+00
</event>
<event>
      5  10001  2.40292E+09  1.34596E+01 -1.00000E+00  1.81885E-01
      21    -1     0     0   515   512  0.000000000E+00  0.000000000E+00  4.857620872E+00  4.857620872E+00  0.000000000E+00  0.00000E+00  9.000E+00
      21    -1     0     0   511   517  0.000000000E+00  0.000000000E+00 -3.497494190E+01  3.497494190E+01  0.000000000E+00  0.00000E+00  9.000E+00
      21     1     1     2   515   517  8.915464294E+00 -2.745005983E-01 -4.689818081E+00  1.007746237E+01  1.576990671E-07  0.00000E+00  9.000E+00
      21     1     1     2   514   512 -1.448724459E+00  4.127068321E+00 -1.805440933E+01  1.857668409E+01  2.384185791E-07  0.00000E+00  9.000E+00
      21     1     1     2   511   514 -7.466739835E+00 -3.852567723E+00 -7.373093621E+00  1.117841632E+01  1.460009660E-07  0.00000E+00  9.000E+00
</event>
<event>
      5  10001  2.40292E+09  6.49416E+00 -1.00000E+00  2.20188E-01
      21    -1     0     0   513   514  0.000000000E+00  0.000000000E+00  5.240714999E+00  5.240714999E+00  0.000000000E+00  0.00000E+00  9.000E+00
      21    -1     0     0   511   512  0.000000000E+00  0.000000000E+00 -2.508773543E+02  2.508773543E+02  0.000000000E+00  0.00000E+00  9.000E+00
      21     1     1     2   513   516 -1.046178738E+01  1.404279771E+00 -1.034743080E+00  1.060620998E+01  7.886361255E-07  0.00000E+00  9.000E+00
      21     1     1     2   511   514  9.624961470E+00 -7.844295602E+00 -2.054633960E+02  2.058382373E+02  4.672030912E-06  0.00000E+00  9.000E+00
      21     1     1     2   516   512  8.368259071E-01  6.440015831E+00 -3.913850026E+01  3.967362202E+01  6.743495762E-07  0.00000E+00  9.000E+00
</event>
<event>
      5  10001  2.40292E+09  6.09542E+00 -1.00000E+00  2.24335E-01
      21    -1     0     0   513   511  0.000000000E+00  0.000000000E+00  1.689739567E+03  1.689739567E+03  0.000000000E+00  0.00000E+00  9.000E+00
      21    -1     0     0   516   517  0.000000000E+00  0.000000000E+00 -1.917587772E+00  1.917587772E+00  0.000000000E+00  0.00000E+00  9.000E+00
      21     1     1     2   515   517 -9.790609150E-02  1.180692355E+01  3.546876429E+01  3.738243264E+01  8.259061849E-07  0.00000E+00  9.000E+00
      21     1     1     2   516   511 -5.894069075E+00 -1.292513245E+01  5.187480420E+01  5.378470424E+01  0.000000000E+00  0.00000E+00  9.000E+00
      21     1     1     2   513   515  5.991975166E+00  1.118208900E+00  1.600478411E+03  1.600490018E+03  2.157918644E-05  0.00000E+00  9.000E+00
</event>
<event>
      5  10001  2.40292E+09  2.19566E+00 -1.00000E+00  3.44965E-01
       2    -1     0     0   512     0  0.000000000E+00  0.000000000E+00  1.256271928E+03  1.256271928E+03  0.000000000E+00  0.00000E+00  9.000E+00
       1    -1     0     0   511     0  0.000000000E+00  0.000000000E+00 -4.513573488E-01  4.513573488E-01  0.000000000E+00  0.00000E+00  9.000E+00
       1     1     1     2   514     0 -4.472945006E-01 -8.405300788E+00  6.929199538E+01  6.980213949E+01  3.300000131E-01  0.00000E+00  9.000E+00
       2     1     1     2   511     0  1.751812341E+00  1.185044901E+01  1.166194343E+03  1.166255914E+03  3.300000131E-01  0.00000E+00  9.000E+00
      21     1     1     2   512   514 -1.304517841E+00 -3.445148218E+00  2.033423248E+01  2.066523224E+01  5.331201500E-07  0.00000E+00  9.000E+00
</event>
<event>
      5  10001  2.40292E+09  6.56231E+00 -1.00000E+00  2.19520E-01
      21    -1     0     0   513   511  0.000000000E+00  0.000000000E+00  1.421482648E+01  1.421482648E+01  0.000000000E+00  0.00000E+00  9.000E+00
      21    -1     0     0   515   516  0.000000000E+00  0.000000000E+00 -1.870363271E+02  1.870363271E+02  0.000000000E+00  0.00000E+00  9.000E+00
      21     1     1     2   513   514  1.167814552E+01 -6.505553159E+00 -1.544001235E-01  1.336881236E+01  1.913816905E-07  0.00000E+00  9.000E+00
      21     1     1     2   515   511 -5.155137259E+00  7.222672875E+00  4.938629841E+00  1.015541768E+01  1.032382731E-07  0.00000E+00  9.000E+00
      21     1     1     2   514   516 -6.523008258E+00 -7.171197168E-01 -1.776057304E+02  1.777269236E+02  3.303624740E-06  0.00000E+00  9.000E+00
</event>
<event>
      5  10001  2.40292E+09  6.20711E+00 -1.00000E+00  2.23130E-01
      21    -1     0     0   512   511  0.000000000E+00  0.000000000E+00  2.266343359E+01  2.266343359E+01  0.000000000E+00  0.00000E+00  9.000E+00
       1    -1     0     0   514     0  0.000000000E+00  0.000000000E+00 -1.082406698E+01  1.082406698E+01  0.000000000E+00  0.00000E+00  9.000E+00
      21     1     1     2   514   511 -8.889162010E+00  9.472414016E-01  1.626327873E+01  1.855825160E+01  3.371747881E-07  0.00000E+00  9.000E+00
       1     1     1     2   513     0  8.945337171E+00  3.159534870E+00 -5.085614351E+00  1.076912675E+01  3.300000131E-01  0.00000E+00  9.000E+00
      21     1     1     2   512   513 -5.617516071E-02 -4.106776272E+00  6.617022386E-01  4.160122216E+00  9.064022497E-08  0.00000E+00  9.000E+00
</event>
<event>
      5  10001  2.40292E+09  1.08763E+01 -1.00000E+00  1.91576E-01
      21    -1     0     0   515   511  0.000000000E+00  0.000000000E+00  1.635457102E+01  1.635457102E+01  0.000000000E+00  0.00000E+00  9.000E+00
      21    -1     0     0   516   515  0.000000000E+00  0.000000000E+00 -1.405500852E+01  1.405500852E+01  0.000000000E+00  0.00000E+00  9.000E+00
      21     1     1     2   516   514  4.400065078E+00  1.063644156E+01  4.253583842E+00  1.227140730E+01  1.032382731E-07  0.00000E+00  9.000E+00
      21     1     1     2   514   517  2.519703474E+00 -1.027640722E+01 -3.291898050E+00  1.108106691E+01  1.519626234E-07  0.00000E+00  9.000E+00
      21     1     1     2   517   511 -6.919768552E+00 -3.600343313E-01  1.337876712E+00  7.057105330E+00  1.534168443E-07  0.00000E+00  9.000E+00
</event>
<event>
      5  10001  2.40292E+09  2.04268E+01 -1.00000E+00  1.65575E-01
       1    -1     0     0   514     0  0.000000000E+00  0.000000000E+00  3.707005838E+01  3.707005838E+01  0.000000000E+00  0.00000E+00  9.000E+00
      21    -1     0     0   513   514  0.000000000E+00  0.000000000E+00 -1.431980184E+02  1.431980184E+02  0.000000000E+00  0.00000E+00  9.000E+00
      21     1     1     2   513   512  1.330683421E+01  9.079241106E+00 -1.404812387E+02  1.414018490E+02  0.000000000E+00  0.00000E+00  9.000E+00
      21     1     1     2   512   515  4.512273447E-01 -3.075438328E+00  4.819645358E+00  5.735059581E+00  2.731427965E-07  0.00000E+00  9.000E+00
       1     1     1     2   515     0 -1.375806156E+01 -6.003802779E+00  2.953363339E+01  3.313116820E+01  3.300000131E-01  0.00000E+00  9.000E+00
</event>
<event>
      5  10001  2.40292E+09  3.64484E+00 -1.00000E+00  2.73246E-01
      21    -1     0     0   514   513  0.000000000E+00  0.000000000E+00  1.962596447E+02  1.962596447E+02  0.000000000E+00  0.00000E+00  9.000E+00
       2    -1     0     0   513     0  0.000000000E+00  0.000000000E+00 -1.278248941E+03  1.278248941E+03  0.000000000E+00  0.00000E+00  9.000E+00
      21     1     1     2   512   511  2.531344702E+00  1.201737924E+01  1.469923639E+01  1.915444231E+01  3.781021005E-06  0.00000E+00  9.000E+00
       2     1     1     2   511     0  2.141850210E-01 -9.620112034E+00 -1.275984654E+03  1.276020979E+03  3.300000131E-01  0.00000E+00  9.000E+00
      21     1     1     2   514   512 -2.745529723E+00 -2.397267201E+00  1.792961212E+02  1.793331646E+02  3.303624740E-06  0.00000E+00  9.000E+00
</event>
<event>
      5  10001  2.40292E+09  1.22066E+01 -1.00000E+00  1.86199E-01
      -2    -1     0     0     0   512  0.000000000E+00  0.000000000E+00  8.407798627E+02  8.407798627E+02  0.000000000E+00  0.00000E+00  9.000E+00
      21    -1     0     0   512   514  0.000000000E+00  0.000000000E+00 -8.473537177E+00  8.473537177E+00  0.000000000E+00  0.00000E+00  9.000E+00
      -2     1     1     2     0   511 -4.961427640E+00  5.138951624E+00  7.467860571E+02  7.468202920E+02  3.300000131E-01  0.00000E+00  9.000E+00
      21     1     1     2   513   514  1.368793229E+01  8.657939647E-01 -2.359891290E+00  1.391683069E+01  1.611255883E-06  0.00000E+00  9.000E+00
      21     1     1     2   511   513 -8.726504651E+00 -6.004745588E+00  8.788015971E+01  8.851627717E+01  1.651812370E-06  0.00000E+00  9.000E+00
</event>
<event>
      5  10001  2.40292E+09  3.85067E+00 -1.00000E+00  2.67314E-01
      21    -1     0     0   516   514  0.000000000E+00  0.000000000E+00  6.776821485E+01  6.776821485E+01  0.000000000E+00  0.00000E+00  9.000E+00
      21    -1     0     0   512   515  0.000000000E+00  0.000000000E+00 -6.952061693E+01  6.952061693E+01  0.000000000E+00  0.00000E+00  9.000E+00
      21     1     1     2   513   514  1.052973076E+01  6.460251212E+00  5.223401850E+00  1.341245699E+01  4.768371582E-07  0.00000E+00  9.000E+00
      21     1     1     2   512   513 -1.113035350E+01 -2.656713695E+00 -6.486128503E+01  6.586295767E+01  9.536743164E-07  0.00000E+00  9.000E+00
      21     1     1     2   516   515  6.006227435E-01 -3.803537516E+00  5.788548110E+01  5.801341713E+01  6.743495762E-07  0.00000E+00  9.000E+00
</event>
<event>
      5  10001  2.40292E+09  6.84216E+00 -1.00000E+00  2.16891E-01
      21    -1     0     0   513   512  0.000000000E+00  0.000000000E+00  1.661462119E+01  1.661462119E+01  0.000000000E+00  0.00000E+00  9.000E+00
      -3    -1     0     0     0   511  0.000000000E+00  0.000000000E+00 -2.061615776E+02  2.061615776E+02  0.000000000E+00  0.00000E+00  9.000E+00
      -3     1     1     2     0   512 -6.259715453E+00 -9.029424404E+00 -2.037530896E+02  2.040497147E+02  5.000000000E-01  0.00000E+00  9.000E+00
      21     1     1     2   514   511  4.759650474E+00  4.165706494E+00  4.486225849E+00  7.754586101E+00  3.625608999E-07  0.00000E+00  9.000E+00
      21     1     1     2   513   514  1.500064979E+00  4.863717909E+00  9.719907344E+00  1.097189799E+01  7.907449699E-07  0.00000E+00  9.000E+00
</event>
<event>
      5  10001  2.40292E+09  9.52995E+00 -1.00000E+00  1.98146E-01
      21    -1     0     0   515   514  0.000000000E+00  0.000000000E+00  3.879912857E+01  3.879912857E+01  0.000000000E+00  0.00000E+00  9.000E+00
      21    -1     0     0   512   516  0.000000000E+00  0.000000000E+00 -1.079326927E+01  1.079326927E+01  0.000000000E+00  0.00000E+00  9.000E+00
      21     1     1     2   515   516  9.303069788E+00 -4.243131088E+00  3.181758062E+01  3.342019906E+01  3.371747881E-07  0.00000E+00  9.000E+00
      21     1     1     2   512   511 -1.591683077E+00  5.855209369E+00 -5.415028054E+00  8.132617082E+00  1.192092896E-07  0.00000E+00  9.000E+00
      21     1     1     2   511   514 -7.711386711E+00 -1.612078280E+00  1.603306733E+00  8.039581698E+00  1.413648275E-07  0.00000E+00  9.000E+00
</event>
<event>
      5  10001  2.40292E+09  6.89935E+00 -1.00000E+00  2.16375E-01
      21    -1     0     0   513   511  0.000000000E+00  0.000000000E+00  8.399370363E+02  8.399370363E+02  0.000000000E+00  0.00000E+00  9.000E+00
      21    -1     0     0   515   513  0.000000000E+00  0.000000000E+00 -5.168085512E+00  5.168085512E+00  0.000000000E+00  0.00000E+00  9.000E+00
      21     1     1     2   512   511  3.436468900E+00 -1.112392255E+01  8.216523672E+02  8.217348499E+02  0.000000000E+00  0.00000E+00  9.000E+00
      21     1     1     2   514   512  3.125858350E+00  8.993929769E+00  1.343106937E+01  1.646375982E+01  5.057621821E-07  0.00000E+00  9.000E+00
      21     1     1     2   515   514 -6.562327250E+00  2.129992778E+00 -3.144857887E-01  6.906512107E+00  6.043243036E-07  0.00000E+00  9.000E+00
</event>
<event>
      5  10001  2.40292E+09  6.51945E+00 -1.00000E+00  2.19939E-01
      21    -1     0     0   516   511  0.000000000E+00  0.000000000E+00  3.910570926E+01  3.910570926E+01  0.000000000E+00  0.00000E+00  9.000E+00
      21    -1     0     0   515   516  0.000000000E+00  0.000000000E+00 -3.615758842E+02  3.615758842E+02  0.000000000E+00  0.00000E+00  9.000E+00
      21     1     1     2   515   517 -1.739104139E+00 -1.088583284E+01 -3.592192979E+02  3.593884108E+02  0.000000000E+00  0.00000E+00  9.000E+00
      21     1     1     2   517   512 -1.693392120E+00  4.835982974E+00  3.299210403E+01  3.338762100E+01  6.743495762E-07  0.00000E+00  9.000E+00
      21     1     1     2   512   511  3.432496259E+00  6.049849861E+00  3.757018927E+00  7.905561658E+00  2.858538343E-07  0.00000E+00  9.000E+00
</event>
<event>
      5  10001  2.40292E+09  6.15140E+00 -1.00000E+00  2.23727E-01
      21    -1     0     0   513   512  0.000000000E+00  0.000000000E+00  4.115738142E+01  4.115738142E+01  0.000000000E+00  0.00000E+00  9.000E+00
      21    -1     0     0   511   513  0.000000000E+00  0.000000000E+00 -5.468511333E+01  5.468511333E+01  0.000000000E+00  0.00000E+00  9.000E+00
      21     1     1     2   514   512 -1.288562931E+01 -1.408504343E+00  3.864850741E+01  4.076432818E+01  4.768371582E-07  0.00000E+00  9.000E+00
      21     1     1     2   515   514  1.063565048E+01 -3.637197502E+00 -4.223280870E+01  4.370304792E+01  8.259061849E-07  0.00000E+00  9.000E+00
      21     1     1     2   511   515  2.249978828E+00  5.045701845E+00 -9.943430613E+00  1.137511864E+01  1.685873940E-07  0.00000E+00  9.000E+00
</event>
<event>
      5  10001  2.40292E+09  1.16850E+01 -1.00000E+00  1.88197E-01
      21    -1     0     0   516   512  0.000000000E+00  0.000000000E+00  1.902438171E+01  1.902438171E+01  0.000000000E+00  0.00000E+00  9.000E+00
      21    -1     0     0   511   517  0.000000000E+00  0.000000000E+00 -3.824844919E+01  3.824844919E+01  0.000000000E+00  0.00000E+00  9.000E+00
      21     1     1     2   516   517 -7.385133596E+00  8.848020162E+00 -3.462439204E+01  3.649213865E+01  4.768371582E-07  0.00000E+00  9.000E+00
      21     1     1     2   511   513  3.915451829E+00 -5.367497045E+00  2.715984004E+00  7.177559241E+00  8.940696716E-08  0.00000E+00  9.000E+00
      21     1     1     2   513   512  3.469681766E+00 -3.480523117E+00  1.268434055E+01  1.360313302E+01  1.685873940E-07  0.00000E+00  9.000E+00
</event>
<event>
      5  10001  2.40292E+09  2.44157E+00 -1.00000E+00  3.26775E-01
      21    -1     0     0   514   511  0.000000000E+00  0.000000000E+00  1.703550479E+01  1.703550479E+01  0.000000000E+00  0.00000E+00  9.000E+00
      21    -1     0     0   512   514  0.000000000E+00  0.000000000E+00 -1.124762943E+01  1.124762943E+01  0.000000000E+00  0.00000E+00  9.000E+00
      21     1     1     2   512   515 -8.441409771E+00  6.764676371E+00 -5.841195093E+00  1.229381167E+01  2.064765462E-07  0.00000E+00  9.000E+00
      21     1     1     2   515   516  2.753040867E+00 -1.953996125E+00  4.899761169E+00  5.950209609E+00  5.960464478E-08  0.00000E+00  9.000E+00
      21     1     1     2   516   511  5.688368905E+00 -4.810680246E+00  6.729309278E+00  1.003911294E+01  1.884864366E-07  0.00000E+00  9.000E+00
</event>
<event>
      5  10001  2.40292E+09  1.20742E+01 -1.00000E+00  1.86694E-01
      21    -1     0     0   514   515  0.000000000E+00  0.000000000E+00  1.274475630E+03  1.274475630E+03  0.000000000E+00  0.00000E+00  9.000E+00
      21    -1     0     0   512   511  0.000000000E+00  0.000000000E+00 -5.069061745E+00  5.069061745E+00  0.000000000E+00  0.00000E+00  9.000E+00
      21     1     1     2   513   511 -1.749903850E+01  3.598295628E+00  9.435460227E+02  9.437151376E+02  1.525878906E-05  0.00000E+00  9.000E+00
      21     1     1     2   512   515  2.147362960E+01 -1.499960046E+01  3.042362583E+01  4.014600592E+01  3.180900589E-06  0.00000E+00  9.000E+00
      21     1     1     2   514   513 -3.974591102E+00  1.140130483E+01  2.954369199E+02  2.956835484E+02  3.814697266E-06  0.00000E+00  9.000E+00
</event>
<event>
      5  10001  2.40292E+09  8.13726E+00 -1.00000E+00  2.06644E-01
      21    -1     0     0   512   513  0.000000000E+00  0.000000000E+00  2.530749175E+00  2.530749175E+00  0.000000000E+00  0.00000E+00  9.000E+00
       2    -1     0     0   513     0  0.000000000E+00  0.000000000E+00 -1.705404677E+02  1.705404677E+02  0.000000000E+00  0.00000E+00  9.000E+00
      21     1     1     2   512   516  2.453290322E+00  9.718999102E+00 -8.877571760E+00  1.338987891E+01  6.078504936E-07  0.00000E+00  9.000E+00
       2     1     1     2   511     0  2.592040724E+00 -3.915753664E+00 -8.995671904E+01  9.007980907E+01  3.300000131E-01  0.00000E+00  9.000E+00
      21     1     1     2   516   511 -5.045331046E+00 -5.803245439E+00 -6.917542775E+01  6.960152892E+01  9.536743164E-07  0.00000E+00  9.000E+00
</event>
<event>
      5  10001  2.40292E+09  4.08005E+00 -1.00000E+00  2.61352E-01
      21    -1     0     0   514   511  0.000000000E+00  0.000000000E+00  3.984872887E+01  3.984872887E+01  0.000000000E+00  0.00000E+00  9.000E+00
      21    -1     0     0   513   515  0.000000000E+00  0.000000000E+00 -2.081653381E+01  2.081653381E+01  0.000000000E+00  0.00000E+00  9.000E+00
      21     1     1     2   514   515  2.133435436E+01 -1.241247610E+01  2.425193599E+01  3.460318827E+01  3.371747881E-07  0.00000E+00  9.000E+00
      21     1     1     2   513   512 -1.475217071E+01  1.168326475E+01 -2.873805284E+00  1.903638550E+01  1.519626234E-07  0.00000E+00  9.000E+00
      21     1     1     2   512   511 -6.582183644E+00  7.292113531E-01 -2.345935654E+00  7.025688921E+00  1.460009660E-07  0.00000E+00  9.000E+00
</event>
<event>
      5  10001  2.40292E+09  4.39813E+00 -1.00000E+00  2.54024E-01
       2    -1     0     0   514     0  0.000000000E+00  0.000000000E+00  3.229938030E+02  3.229938030E+02  0.000000000E+00  0.00000E+00  9.000E+00
      21    -1     0     0   512   516  0.000000000E+00  0.000000000E+00 -2.644625996E+00  2.644625996E+00  0.000000000E+00  0.00000E+00  9.000E+00
      21     1     1     2   513   516  5.208076442E+00  2.434296313E+01  9.793557870E+01  1.010498960E+02  2.336015456E-06  0.00000E+00  9.000E+00
       2     1     1     2   512     0 -1.211233535E+00 -2.617801072E+01  1.722341123E+02  1.742166860E+02  3.300000131E-01  0.00000E+00  9.000E+00
      21     1     1     2   514   513 -3.996842907E+00  1.835047590E+00  5.017948600E+01  5.037184698E+01  6.743495762E-07  0.00000E+00  9.000E+00
</event>
<event>
      5  10001  2.40292E+09  1.63087E+01 -1.00000E+00  1.73983E-01
      21    -1     0     0   511   512  0.000000000E+00  0.000000000E+00  2.721917227E+01  2.721917227E+01  0.000000000E+00  0.00000E+00  9.000E+00
      21    -1     0     0   515   513  0.000000000E+00  0.000000000E+00 -2.390966064E+02  2.390966064E+02  0.000000000E+00  0.00000E+00  9.000E+00
      21     1     1     2   511   513  1.493213357E+01 -6.329879971E+00  2.373665938E+01  2.874830416E+01  8.920806376E-07  0.00000E+00  9.000E+00
      21     1     1     2   515   516 -2.548881601E+00  1.239229243E+01 -1.725789880E+02  1.730421128E+02  0.000000000E+00  0.00000E+00  9.000E+00
      21     1     1     2   516   512 -1.238325197E+01 -6.062412454E+00 -6.303510550E+01  6.452536167E+01  9.536743164E-07  0.00000E+00  9.000E+00
</event>
<event>
      5  10001  2.40292E+09  1.27117E+01 -1.00000E+00  1.84384E-01
      21    -1     0     0   514   513  0.000000000E+00  0.000000000E+00  2.577108201E+01  2.577108201E+01  0.000000000E+00  0.00000E+00  9.000E+00
      21    -1     0     0   517   512  0.000000000E+00  0.000000000E+00 -6.110255700E+00  6.110255700E+00  0.000000000E+00  0.00000E+00  9.000E+00
      21     1     1     2   514   512 -9.304600190E+00  3.681100741E+00  7.644437590E+00  1.259220050E+01  1.192092896E-07  0.00000E+00  9.000E+00
      21     1     1     2   511   513  4.492218856E+00  1.193241677E+00 -8.386721346E-01  4.723052710E+00  9.657056180E-08  0.00000E+00  9.000E+00
      21     1     1     2   517   511  4.812381333E+00 -4.874342418E+00  1.285506086E+01  1.456608450E+01  2.384185791E-07  0.00000E+00  9.000E+00
</event>
<event>
      5  10001  2.40292E+09  2.01435E+00 -1.00000E+00  3.61416E-01
       1    -1     0     0   512     0  0.000000000E+00  0.000000000E+00  1.147546968E+02  1.147546968E+02  0.000000000E+00  0.00000E+00  9.000E+00
      21    -1     0     0   515   511  0.000000000E+00  0.000000000E+00 -2.796748808E+00  2.796748808E+00  0.000000000E+00  0.00000E+00  9.000E+00
      21     1     1     2   512   511  2.777349624E+00 -1.060144209E+01  9.603491185E+00  1.457159182E+01  2.665600750E-07  0.00000E+00  9.000E+00
       1     1     1     2   513     0 -1.393480613E+00  8.169050866E+00  6.625114424E+01  6.676824240E+01  3.300000131E-01  0.00000E+00  9.000E+00
      21     1     1     2   515   513 -1.383869012E+00  2.432391226E+00  3.610331259E+01  3.621161140E+01  4.768371582E-07  0.00000E+00  9.000E+00
</event>
<event>
      5  10001  2.40292E+09  7.07428E+00 -1.00000E+00  2.14837E-01
      21    -1     0     0   515   513  0.000000000E+00  0.000000000E+00  8.778217107E-01  8.778217107E-01  0.000000000E+00  0.00000E+00  9.000E+00
      -2    -1     0     0     0   514  0.000000000E+00  0.000000000E+00 -1.900055653E+02  1.900055653E+02  0.000000000E+00  0.00000E+00  9.000E+00
      -2     1     1     2     0   511 -3.207915558E+00 -6.394095203E+00 -2.606533967E+01  2.703120433E+01  3.300000131E-01  0.00000E+00  9.000E+00
      21     1     1     2   515   514 -1.368081931E+00  9.419969876E+00 -1.290119197E+02  1.293626024E+02  0.000000000E+00  0.00000E+00  9.000E+00
      21     1     1     2   511   513  4.575997489E+00 -3.025874673E+00 -3.405048429E+01  3.448958032E+01  4.768371582E-07  0.00000E+00  9.000E+00
</event>
<event>
      5  10001  2.40292E+09  1.93124E+00 -1.00000E+00  3.70088E-01
      21    -1     0     0   512   516  0.000000000E+00  0.000000000E+00  3.734615657E+02  3.734615657E+02  0.000000000E+00  0.00000E+00  9.000E+00
      21    -1     0     0   511   514  0.000000000E+00  0.000000000E+00 -2.762427075E+01  2.762427075E+01  0.000000000E+00  0.00000E+00  9.000E+00
      21     1     1     2   512   513  2.580147580E-01  9.935806381E+00  1.105048445E+01  1.486270590E+01  6.078504936E-07  0.00000E+00  9.000E+00
      21     1     1     2   511   516 -2.143237439E+00 -1.035490156E+01  3.603910552E+02  3.605461553E+02  7.629394531E-06  0.00000E+00  9.000E+00
      21     1     1     2   513   514  1.885222682E+00  4.190951801E-01 -2.560424475E+01  2.567697518E+01  8.920806376E-07  0.00000E+00  9.000E+00
</event>
<event>
      5  10001  2.40292E+09  8.19580E+00 -1.00000E+00  2.06242E-01
      21    -1     0     0   515   511  0.000000000E+00  0.000000000E+00  5.236869275E+00  5.236869275E+00  0.000000000E+00  0.00000E+00  9.000E+00
      21    -1     0     0   517   515  0.000000000E+00  0.000000000E+00 -7.187682059E+01  7.187682059E+01  0.000000000E+00  0.00000E+00  9.000E+00
      21     1     1     2   517   514 -1.241480621E+01  2.683430316E+00 -4.919416921E+01  5.080742559E+01  0.000000000E+00  0.00000E+00  9.000E+00
      21     1     1     2   512   511  9.416305605E+00 -5.853243516E+00 -3.397754673E+00  1.159620661E+01  1.931411236E-07  0.00000E+00  9.000E+00
      21     1     1     2   514   512  2.998500607E+00  3.169813200E+00 -1.404802744E+01  1.471005766E+01  1.685873940E-07  0.00000E+00  9.000E+00
</event>
<event>
      5  10001  2.40292E+09  1.89399E+01 -1.00000E+00  1.68302E-01
      21    -1     0     0   513   511  0.000000000E+00  0.000000000E+00  7.140797600E+02  7.140797600E+02  0.000000000E+00  0.00000E+00  9.000E+00
       1    -1     0     0   516     0  0.000000000E+00  0.000000000E+00 -1.386541703E+02  1.386541703E+02  0.000000000E+00  0.00000E+00  9.000E+00
      21     1     1     2   512   511  5.851600340E+00  1.857436858E+01  7.111575254E+02  7.114241170E+02  1.078959322E-05  0.00000E+00  9.000E+00
      21     1     1     2   516   512  1.012071892E+01 -8.395796901E+00 -1.934347090E+01  2.338991714E+01  1.752011592E-06  0.00000E+00  9.000E+00
       1     1     1     2   513     0 -1.597231926E+01 -1.017857168E+01 -1.163884647E+02  1.179198962E+02  3.300000131E-01  0.00000E+00  9.000E+00
</event>
<event>
      5  10001  2.40292E+09  4.01849E+00 -1.00000E+00  2.62891E-01
      21    -1     0     0   514   511  0.000000000E+00  0.000000000E+00  4.305385256E+01  4.305385256E+01  0.000000000E+00  0.00000E+00  9.000E+00
      21    -1     0     0   515   514  0.000000000E+00  0.000000000E+00 -9.827749509E+00  9.827749509E+00  0.000000000E+00  0.00000E+00  9.000E+00
      21     1     1     2   515   517 -2.662736898E+00 -1.025046388E+01 -5.601209547E+00  1.198063963E+01  3.674277069E-07  0.00000E+00  9.000E+00
      21     1     1     2   517   512  4.859951563E+00  7.010302057E+00  3.095689580E+01  3.211063471E+01  3.371747881E-07  0.00000E+00  9.000E+00
      21     1     1     2   512   511 -2.197214665E+00  3.240161826E+00  7.870416804E+00  8.790327731E+00  8.429369702E-08  0.00000E+00  9.000E+00
</event>
<event>
      5  10001  2.40292E+09  1.59307E+01 -1.00000E+00  1.74909E-01
      21    -1     0     0   513   512  0.000000000E+00  0.000000000E+00  3.078397396E+02  3.078397396E+02  0.000000000E+00  0.00000E+00  9.000E+00
      21    -1     0     0   514   513  0.000000000E+00  0.000000000E+00 -3.116877093E+00  3.116877093E+00  0.000000000E+00  0.00000E+00  9.000E+00
      21     1     1     2   516   512 -1.030956307E+01 -1.515041376E+00  1.946351432E+02  1.949138821E+02  2.697398305E-06  0.00000E+00  9.000E+00
      21     1     1     2   511   516  8.133632030E+00 -1.426631917E+01  8.307316643E+01  8.468078184E+01  2.697398305E-06  0.00000E+00  9.000E+00
      21     1     1     2   514   511  2.175931043E+00  1.578136055E+01  2.701455279E+01  3.136195273E+01  4.768371582E-07  0.00000E+00  9.000E+00
</event>
<event>
      5  10001  2.40292E+09  4.27159E+00 -1.00000E+00  2.56822E-01
      -2    -1     0     0     0   512  0.000000000E+00  0.000000000E+00  7.989651697E+00  7.989651697E+00  0.000000000E+00  0.00000E+00  9.000E+00
      21    -1     0     0   515   513  0.000000000E+00  0.000000000E+00 -2.202385247E+01  2.202385247E+01  0.000000000E+00  0.00000E+00  9.000E+00
      -2     1     1     2     0   514 -1.053997095E+01 -3.778276190E+00 -5.470519158E+00  1.246602737E+01  3.300000131E-01  0.00000E+00  9.000E+00
      21     1     1     2   514   513  7.064421066E+00  6.260279181E+00 -9.256969744E+00  1.322076508E+01  4.460403188E-07  0.00000E+00  9.000E+00
      21     1     1     2   515   512  3.475549881E+00 -2.482002991E+00  6.932881335E-01  4.326711714E+00  5.913715015E-08  0.00000E+00  9.000E+00
</event>
<event>
      5  10001  2.40292E+09  7.74837E+00 -1.00000E+00  2.09435E-01
      21    -1     0     0   511   514  0.000000000E+00  0.000000000E+00  1.605584192E+01  1.605584192E+01  0.000000000E+00  0.00000E+00  9.000E+00
      21    -1     0     0   515   512  0.000000000E+00  0.000000000E+00 -8.830006193E+00  8.830006193E+00  0.000000000E+00  0.00000E+00  9.000E+00
      21     1     1     2   511   512  8.912749863E+00 -3.930594933E+00  5.774221537E+00  1.132379446E+01  2.064765462E-07  0.00000E+00  9.000E+00
      21     1     1     2   515   513 -6.181261083E+00  4.775606580E+00  4.792905114E+00  9.164406484E+00  2.230201594E-07  0.00000E+00  9.000E+00
      21     1     1     2   513   514 -2.731488779E+00 -8.450116466E-01 -3.341290920E+00  4.397647172E+00  1.519626234E-07  0.00000E+00  9.000E+00
</event>
<event>
      5  10001  2.40292E+09  3.31716E+00 -1.00000E+00  2.84096E-01
      21    -1     0     0   516   512  0.000000000E+00  0.000000000E+00  1.919202367E+01  1.919202367E+01  0.000000000E+00  0.00000E+00  9.000E+00
      21    -1     0     0   511   514  0.000000000E+00  0.000000000E+00 -6.258925724E+01  6.258925724E+01  0.000000000E+00  0.00000E+00  9.000E+00
      21     1     1     2   516   514 -3.018552927E+00 -1.211690937E+01  1.267384836E+01  1.779206527E+01  4.460403188E-07  0.00000E+00  9.000E+00
      21     1     1     2   517   512  4.416238571E+00  9.108585162E+00 -2.648117645E+00  1.046336532E+01  3.475518164E-07  0.00000E+00  9.000E+00
      21     1     1     2   511   517 -1.397685644E+00  3.008324208E+00 -5.342296428E+01  5.352585032E+01  0.000000000E+00  0.00000E+00  9.000E+00
</event>
<event>
      5  10001  2.40292E+09  1.80016E+01 -1.00000E+00  1.70188E-01
       5    -1     0     0   514     0  0.000000000E+00  0.000000000E+00  5.397524743E+00  5.397524743E+00  0.000000000E+00  0.00000E+00  9.000E+00
      21    -1     0     0   515   514  0.000000000E+00  0.000000000E+00 -4.804081142E+01  4.804081142E+01  0.000000000E+00  0.00000E+00  9.000E+00
      21     1     1     2   515   513 -3.403314295E+00  9.631065122E+00 -1.965662080E+01  2.215226184E+01  2.384185791E-07  0.00000E+00  9.000E+00
      21     1     1     2   513   512  6.717115622E-01 -7.869786634E+00 -2.411926480E+01  2.537959166E+01  3.371747881E-07  0.00000E+00  9.000E+00
       5     1     1     2   512     0  2.731602733E+00 -1.761278487E+00  1.132598915E+00  5.906482670E+00  4.800000191E+00  0.00000E+00  9.000E+00
</event>
<event>
      5  10001  2.40292E+09  6.66608E+00 -1.00000E+00  2.18525E-01
      21    -1     0     0   511   514  0.000000000E+00  0.000000000E+00  4.136328515E+02  4.136328515E+02  0.000000000E+00  0.00000E+00  9.000E+00
      21    -1     0     0   516   511  0.000000000E+00  0.000000000E+00 -6.190116107E+00  6.190116107E+00  0.000000000E+00  0.00000E+00  9.000E+00
      21     1     1     2   516   515  1.065503075E+01  5.768862689E+00  1.137036661E+00  1.216972922E+01  2.589545726E-07  0.00000E+00  9.000E+00
      21     1     1     2   515   513 -9.448693013E+00  7.871516891E-01  3.425888113E+01  3.554670651E+01  4.768371582E-07  0.00000E+00  9.000E+00
      21     1     1     2   513   514 -1.206337736E+00 -6.556014379E+00  3.720468176E+02  3.721065319E+02  7.629394531E-06  0.00000E+00  9.000E+00
</event>
<event>
      5  10001  2.40292E+09  2.88588E+00 -1.00000E+00  3.01929E-01
      -1    -1     0     0     0   512  0.000000000E+00  0.000000000E+00  2.093840254E+00  2.093840254E+00  0.000000000E+00  0.00000E+00  9.000E+00
      21    -1     0     0   513   511  0.000000000E+00  0.000000000E+00 -1.710294591E+02  1.710294591E+02  0.000000000E+00  0.00000E+00  9.000E+00
      -1     1     1     2     0   515 -4.835568494E+00  1.366883576E+01 -3.728077503E+01  4.000231094E+01  3.300000131E-01  0.00000E+00  9.000E+00
      21     1     1     2   513   512  7.578966102E+00 -1.395175341E+01 -1.234083899E+02  1.244255715E+02  3.015782986E-06  0.00000E+00  9.000E+00
      21     1     1     2   515   511 -2.743397608E+00  2.829176537E-01 -8.246453963E+00  8.695416942E+00  0.000000000E+00  0.00000E+00  9.000E+00
</event>
<event>
      5  10001  2.40292E+09  4.98712E+00 -1.00000E+00  2.42677E-01
      -3    -1     0     0     0   514  0.000000000E+00  0.000000000E+00  2.028863387E+02  2.028863387E+02  0.000000000E+00  0.00000E+00  9.000E+00
      21    -1     0     0   512   511  0.000000000E+00  0.000000000E+00 -5.892197914E+00  5.892197914E+00  0.000000000E+00  0.00000E+00  9.000E+00
      -3     1     1     2     0   513  1.691362773E+01  1.447369992E+00  1.351048565E+02  1.361680504E+02  5.000000000E-01  0.00000E+00  9.000E+00
      21     1     1     2   512   514 -2.216705748E+01  2.906363085E+00  1.947114424E+01  2.964710512E+01  2.384185791E-07  0.00000E+00  9.000E+00
      21     1     1     2   513   511  5.253429753E+00 -4.353733077E+00  4.241814004E+01  4.296338115E+01  4.768371582E-07  0.00000E+00  9.000E+00
</event>
<event>
      5  10001  2.40292E+09  5.62566E+00 -1.00000E+00  2.29825E-01
      21    -1     0     0   515   511  0.000000000E+00  0.000000000E+00  2.316666448E+01  2.316666448E+01  0.000000000E+00  0.00000E+00  9.000E+00
      21    -1     0     0   513   516  0.000000000E+00  0.000000000E+00 -6.685098367E+00  6.685098367E+00  0.000000000E+00  0.00000E+00  9.000E+00
      21     1     1     2   515   516 -7.858055042E+00  6.970421383E+00  2.373962239E+00  1.076900645E+01  1.032382731E-07  0.00000E+00  9.000E+00
      21     1     1     2   513   512  7.846177845E+00 -2.297493239E+00  8.831306563E+00  1.203465652E+01  1.192092896E-07  0.00000E+00  9.000E+00
      21     1     1     2   512   511  1.187719636E-02 -4.672928143E+00  5.276297315E+00  7.048099876E+00  5.960464478E-08  0.00000E+00  9.000E+00
</event>
<event>
      5  10001  2.40292E+09  8.73924E+00 -1.00000E+00  2.02713E-01
      21    -1     0     0   512   513  0.000000000E+00  0.000000000E+00  6.993273670E+01  6.993273670E+01  0.000000000E+00  0.00000E+00  9.000E+00
      -3    -1     0     0     0   514  0.000000000E+00  0.000000000E+00 -4.166359580E+01  4.166359580E+01  0.000000000E+00  0.00000E+00  9.000E+00
      -3     1     1     2     0   511  2.680259905E+01  3.708347061E+01  4.841367909E+00  4.601360615E+01  5.000000000E-01  0.00000E+00  9.000E+00
      21     1     1     2   512   514 -2.850741473E+01 -2.851234765E+01 -2.752810380E-01  4.032000053E+01  1.125771387E-06  0.00000E+00  9.000E+00
      21     1     1     2   511   513  1.704815685E+00 -8.571122960E+00  2.370305402E+01  2.526272581E+01  3.371747881E-07  0.00000E+00  9.000E+00
</event>
<event>
      5  10001  2.40292E+09  6.08883E+00 -1.00000E+00  2.24407E-01
      21    -1     0     0   515   513  0.000000000E+00  0.000000000E+00  1.218079431E+02  1.218079431E+02  0.000000000E+00  0.00000E+00  9.000E+00
      -2    -1     0     0     0   515  0.000000000E+00  0.000000000E+00 -3.533163062E+01  3.533163062E+01  0.000000000E+00  0.00000E+00  9.000E+00
      -2     1     1     2     0   514  2.992796027E+00 -1.145530138E+01 -3.315173092E+01  3.520407534E+01  3.300000131E-01  0.00000E+00  9.000E+00
      21     1     1     2   512   513 -2.714730160E+00  1.581010891E+01  1.120371828E+02  1.131797669E+02  1.348699152E-06  0.00000E+00  9.000E+00
      21     1     1     2   514   512 -2.780658662E-01 -4.354807533E+00  7.590860581E+00  8.755731473E+00  1.460009660E-07  0.00000E+00  9.000E+00
</event>
<event>
      5  10001  2.40292E+09  1.17860E+01 -1.00000E+00  1.87800E-01
      21    -1     0     0   511   512  0.000000000E+00  0.000000000E+00  2.111277410E+00  2.111277410E+00  0.000000000E+00  0.00000E+00  9.000E+00
       1    -1     0     0   513     0  0.000000000E+00  0.000000000E+00 -8.944842053E+02  8.944842053E+02  0.000000000E+00  0.00000E+00  9.000E+00
      21     1     1     2   513   515 -2.364552510E+00  1.669490782E+01 -4.132739131E+01  4.463478831E+01  2.431401974E-06  0.00000E+00  9.000E+00
       1     1     1     2   511     0 -4.632506022E+00 -1.285379927E+01 -8.116297499E+02  8.117448122E+02  3.300000131E-01  0.00000E+00  9.000E+00
      21     1     1     2   515   512  6.997058532E+00 -3.841108550E+00 -3.941578660E+01  4.021588214E+01  6.743495762E-07  0.00000E+00  9.000E+00
</event>
<event>
      5  10001  2.40292E+09  2.27807E+01 -1.00000E+00  1.61796E-01
      21    -1     0     0   514   515  0.000000000E+00  0.000000000E+00  1.710635087E+01  1.710635087E+01  0.000000000E+00  0.00000E+00  9.000E+00
      21    -1     0     0   511   512  0.000000000E+00  0.000000000E+00 -1.690746902E+02  1.690746902E+02  0.000000000E+00  0.00000E+00  9.000E+00
      21     1     1     2   514   512  5.929720241E+00  1.029741837E+01  1.130209210E+01  1.639925891E+01  4.129530925E-07  0.00000E+00  9.000E+00
      21     1     1     2   513   515 -2.282379933E+01  4.984919143E+00 -7.119043194E+01  7.492564871E+01  1.348699152E-06  0.00000E+00  9.000E+00
      21     1     1     2   511   513  1.689407909E+01 -1.528233751E+01 -9.207999951E+01  9.485613348E+01  0.000000000E+00  0.00000E+00  9.000E+00
</event>
<event>
      5  10001  2.40292E+09  9.22443E+00 -1.00000E+00  1.99838E-01
      -2    -1     0     0     0   513  0.000000000E+00  0.000000000E+00  7.598186310E+01  7.598186310E+01  0.000000000E+00  0.00000E+00  9.000E+00
      -4    -1     0     0     0   512  0.000000000E+00  0.000000000E+00 -8.960702062E+00  8.960702062E+00  0.000000000E+00  0.00000E+00  9.000E+00
      -4     1     1     2     0   514  1.467934603E+00 -1.614280112E+01  5.275999140E-01  1.628721037E+01  1.500000000E+00  0.00000E+00  9.000E+00
      -2     1     1     2     0   512  7.990590549E-01  1.334789870E+01  5.543856065E+01  5.702935912E+01  3.300000131E-01  0.00000E+00  9.000E+00
      21     1     1     2   514   513 -2.266993657E+00  2.794902419E+00  1.105500047E+01  1.162599567E+01  1.192092896E-07  0.00000E+00  9.000E+00
</event>
<event>
      5  10001  2.40292E+09  1.28037E+01 -1.00000E+00  1.84064E-01
      21    -1     0     0   511   512  0.000000000E+00  0.000000000E+00  6.873968072E+00  6.873968072E+00  0.000000000E+00  0.00000E+00  9.000E+00
      21    -1     0     0   513   511  0.000000000E+00  0.000000000E+00 -2.240694637E+01  2.240694637E+01  0.000000000E+00  0.00000E+00  9.000E+00
      21     1     1     2   515   512  7.713153572E+00  5.607141048E+00 -4.001600430E+00  1.034144936E+01  0.000000000E+00  0.00000E+00  9.000E+00
      21     1     1     2   516   515 -1.503184333E+00 -2.382970397E+00 -1.160488935E+01  1.194200853E+01  1.685873940E-07  0.00000E+00  9.000E+00
      21     1     1     2   513   516 -6.209969239E+00 -3.224170651E+00  7.351147540E-02  6.997456557E+00  1.345205112E-07  0.00000E+00  9.000E+00
</event>
<event>
      5  10001  2.40292E+09  9.60407E+00 -1.00000E+00  1.97748E-01
      21    -1     0     0   514   513  0.000000000E+00  0.000000000E+00  3.404419106E+00  3.404419106E+00  0.000000000E+00  0.00000E+00  9.000E+00
      21    -1     0     0   512   517  0.000000000E+00  0.000000000E+00 -7.302736147E+01  7.302736147E+01  0.000000000E+00  0.00000E+00  9.000E+00
      21     1     1     2   514   517 -9.268552991E+00  1.166252245E+01 -4.390114464E+01  4.635979945E+01  1.168007728E-06  0.00000E+00  9.000E+00
      21     1     1     2   511   513  7.795368819E-01 -1.808027515E+00 -1.176984683E+00  2.293890622E+00  2.107342426E-08  0.00000E+00  9.000E+00
      21     1     1     2   512   511  8.489016109E+00 -9.854494932E+00 -2.454481305E+01  2.777809051E+01  0.000000000E+00  0.00000E+00  9.000E+00
</event>
<event>
      5  10001  2.40292E+09  2.94158E+01 -1.00000E+00  1.53600E-01
      21    -1     0     0   512   511  0.000000000E+00  0.000000000E+00  4.164236331E+00  4.164236331E+00  0.000000000E+00  0.00000E+00  9.000E+00
       2    -1     0     0   513     0  0.000000000E+00  0.000000000E+00 -8.583849458E+01  8.583849458E+01  0.000000000E+00  0.00000E+00  9.000E+00
      21     1     1     2   513   511  3.825973402E+00  4.606343748E+00 -1.144404180E+01  1.291598110E+01  3.371747881E-07  0.00000E+00  9.000E+00
       2     1     1     2   514     0 -5.770102108E+00 -3.431392677E+00 -7.311031276E+01  7.341863023E+01  3.300000131E-01  0.00000E+00  9.000E+00
      21     1     1     2   512   514  1.944128706E+00 -1.174951071E+00  2.880096308E+00  3.668119572E+00  3.125693942E-07  0.00000E+00  9.000E+00
</event>
<event>
      5  10001  2.40292E+09  2.86908E+00 -1.00000E+00  3.02729E-01
       2    -1     0     0   515     0  0.000000000E+00  0.000000000E+00  4.352443776E+00  4.352443776E+00  0.000000000E+00  0.00000E+00  9.000E+00
      21    -1     0     0   511   514  0.000000000E+00  0.000000000E+00 -1.426295688E+02  1.426295688E+02  0.000000000E+00  0.00000E+00  9.000E+00
      21     1     1     2   515   514  5.773788873E+00 -8.172176211E+00 -7.645057186E+01  7.710260073E+01  1.348699152E-06  0.00000E+00  9.000E+00
       2     1     1     2   512     0 -6.915086471E+00  1.080434966E+01 -6.329361028E+00  1.430811321E+01  3.300000131E-01  0.00000E+00  9.000E+00
      21     1     1     2   511   512  1.141297598E+00 -2.632173450E+00 -5.549719209E+01  5.557129859E+01  6.743495762E-07  0.00000E+00  9.000E+00
</event>
<event>
      5  10001  2.40292E+09  4.46292E+00 -1.00000E+00  2.52646E-01
      21    -1     0     0   511   512  0.000000000E+00  0.000000000E+00  1.345256547E+00  1.345256547E+00  0.000000000E+00  0.00000E+00  9.000E+00
       1    -1     0     0   513     0  0.000000000E+00  0.000000000E+00 -9.531273231E+01  9.531273231E+01  0.000000000E+00  0.00000E+00  9.000E+00
      21     1     1     2   514   512  6.789444449E+00 -1.985020772E+00 -1.694666859E+01  1.836372619E+01  3.371747881E-07  0.00000E+00  9.000E+00
       1     1     1     2   511     0 -8.103301550E+00  5.821689470E+00 -5.683201765E+01  5.770218968E+01  3.300000131E-01  0.00000E+00  9.000E+00
      21     1     1     2   513   514  1.313857101E+00 -3.836668698E+00 -2.018878953E+01  2.059207299E+01  3.371747881E-07  0.00000E+00  9.000E+00
</event>
<event>
      5  10001  2.40292E+09  1.07164E+01 -1.00000E+00  1.92290E-01
      21    -1     0     0   515   511  0.000000000E+00  0.000000000E+00  5.513613471E+00  5.513613471E+00  0.000000000E+00  0.00000E+00  9.000E+00
       2    -1     0     0   512     0  0.000000000E+00  0.000000000E+00 -2.956167339E+02  2.956167339E+02  0.000000000E+00  0.00000E+00  9.000E+00
      21     1     1     2   515   513 -1.038767141E+01 -1.207860875E+01 -9.818885138E+00  1.871381875E+01  2.064765462E-07  0.00000E+00  9.000E+00
       2     1     1     2   513     0  9.905851183E-02  9.081666134E+00 -2.521002631E+02  2.522640244E+02  3.300000131E-01  0.00000E+00  9.000E+00
      21     1     1     2   512   511  1.028861290E+01  2.996942619E+00 -2.818397226E+01  3.015250425E+01  7.539457465E-07  0.00000E+00  9.000E+00
</event>
<event>
      5  10001  2.40292E+09  7.62306E+00 -1.00000E+00  2.10381E-01
      21    -1     0     0   514   513  0.000000000E+00  0.000000000E+00  1.808366253E+02  1.808366253E+02  0.000000000E+00  0.00000E+00  9.000E+00
      21    -1     0     0   512   511  0.000000000E+00  0.000000000E+00 -9.813057523E-01  9.813057523E-01  0.000000000E+00  0.00000E+00  9.000E+00
      21     1     1     2   514   511  3.964373075E+00  9.647947132E+00  3.637243525E+01  3.783851456E+01  9.536743164E-07  0.00000E+00  9.000E+00
      21     1     1     2   515   513  1.296554658E+00 -3.958837488E+00  5.535721818E+01  5.551373751E+01  6.743495762E-07  0.00000E+00  9.000E+00
      21     1     1     2   512   515 -5.260927734E+00 -5.689109644E+00  8.812566616E+01  8.846567902E+01  0.000000000E+00  0.00000E+00  9.000E+00
</event>
<event>
      5  10001  2.40292E+09  5.95006E+00 -1.00000E+00  2.25958E-01
       1    -1     0     0   511     0  0.000000000E+00  0.000000000E+00  1.732953374E+01  1.732953374E+01  0.000000000E+00  0.00000E+00  9.000E+00
      21    -1     0     0   515   511  0.000000000E+00  0.000000000E+00 -2.332684715E+01  2.332684715E+01  0.000000000E+00  0.00000E+00  9.000E+00
      21     1     1     2   515   516 -1.163530136E+01 -9.360241234E-02 -1.775382343E+01  2.122704043E+01  0.000000000E+00  0.00000E+00  9.000E+00
       1     1     1     2   513     0  6.914423050E+00  2.717942846E+00  1.189255999E+01  1.402634459E+01  3.300000131E-01  0.00000E+00  9.000E+00
      21     1     1     2   516   513  4.720878313E+00 -2.624340433E+00 -1.360499765E-01  5.402995868E+00  5.640463505E-08  0.00000E+00  9.000E+00
</event>
<event>
      5  10001  2.40292E+09  6.98357E+00 -1.00000E+00  2.15627E-01
      21    -1     0     0   512   513  0.000000000E+00  0.000000000E+00  4.455271397E+01  4.455271397E+01  0.000000000E+00  0.00000E+00  9.000E+00
      21    -1     0     0   515   511  0.000000000E+00  0.000000000E+00 -6.780263090E+01  6.780263090E+01  0.000000000E+00  0.00000E+00  9.000E+00
      21     1     1     2   512   514 -7.000799438E-01  1.155973971E+01  4.052527404E+01  4.214754477E+01  4.768371582E-07  0.00000E+00  9.000E+00
      21     1     1     2   515   513  6.347573241E+00 -7.451688966E+00 -4.949276224E+00  1.096880530E+01  2.230201594E-07  0.00000E+00  9.000E+00
      21     1     1     2   514   511 -5.647493297E+00 -4.108050740E+00 -5.882591473E+01  5.923899481E+01  0.000000000E+00  0.00000E+00  9.000E+00
</event>
<event>
      5  10001  2.40292E+09  1.51136E+01 -1.00000E+00  1.77028E-01
      21    -1     0     0   516   511  0.000000000E+00  0.000000000E+00  8.470433603E+00  8.470433603E+00  0.000000000E+00  0.00000E+00  9.000E+00
      21    -1     0     0   514   517  0.000000000E+00  0.000000000E+00 -1.359324486E+01  1.359324486E+01  0.000000000E+00  0.00000E+00  9.000E+00
      21     1     1     2   516   517 -4.190990327E+00 -1.840238854E+00 -6.047597535E-01  4.616991804E+00  1.029690725E-07  0.00000E+00  9.000E+00
      21     1     1     2   514   512  1.904485455E+00  4.949103337E+00 -9.658697131E+00  1.101867138E+01  0.000000000E+00  0.00000E+00  9.000E+00
      21     1     1     2   512   511  2.286504872E+00 -3.108864483E+00  5.140645631E+00  6.428015277E+00  1.032382731E-07  0.00000E+00  9.000E+00
</event>
<event>
      5  10001  2.40292E+09  4.42262E+00 -1.00000E+00  2.53499E-01
      21    -1     0     0   512   511  0.000000000E+00  0.000000000E+00  1.935381195E+01  1.935381195E+01  0.000000000E+00  0.00000E+00  9.000E+00
       1    -1     0     0   513     0  0.000000000E+00  0.000000000E+00 -1.019098856E+02  1.019098856E+02  0.000000000E+00  0.00000E+00  9.000E+00
      21     1     1     2   513   511  7.894840091E+00  1.268789903E+01  1.568375743E+01  2.166313756E+01  2.920019320E-07  0.00000E+00  9.000E+00
       1     1     1     2   514     0 -3.132665658E+00 -7.305023053E+00 -7.039802390E+01  7.084608405E+01  3.300000131E-01  0.00000E+00  9.000E+00
      21     1     1     2   512   514 -4.762174433E+00 -5.382875975E+00 -2.784180717E+01  2.875447593E+01  3.371747881E-07  0.00000E+00  9.000E+00
</event>
<event>
      5  10001  2.40292E+09  3.87119E+00 -1.00000E+00  2.66754E-01
      21    -1     0     0   514   511  0.000000000E+00  0.000000000E+00  6.843320449E+01  6.843320449E+01  0.000000000E+00  0.00000E+00  9.000E+00
       1    -1     0     0   511     0  0.000000000E+00  0.000000000E+00 -6.105782558E+00  6.105782558E+00  0.000000000E+00  0.00000E+00  9.000E+00
      21     1     1     2   514   515 -1.444144205E+01  1.659364619E+00  5.703601375E+01  5.885928648E+01  0.000000000E+00  0.00000E+00  9.000E+00
       1     1     1     2   513     0  4.912505342E+00  5.083252769E-03  2.904142906E+00  5.716264567E+00  3.300000131E-01  0.00000E+00  9.000E+00
      21     1     1     2   515   513  9.528936710E+00 -1.664447872E+00  2.387265272E+00  9.963436005E+00  4.182955279E-07  0.00000E+00  9.000E+00
</event>
<event>
      5  10001  2.40292E+09  9.26505E+00 -1.00000E+00  1.99608E-01
      21    -1     0     0   512   513  0.000000000E+00  0.000000000E+00  3.925933713E+02  3.925933713E+02  0.000000000E+00  0.00000E+00  9.000E+00
      21    -1     0     0   514   512  0.000000000E+00  0.000000000E+00 -1.181817871E+02  1.181817871E+02  0.000000000E+00  0.00000E+00  9.000E+00
      21     1     1     2   511   516 -4.087006135E-01 -1.388880816E+01 -5.689313605E+01  5.856530507E+01  1.348699152E-06  0.00000E+00  9.000E+00
      21     1     1     2   516   513  6.469761026E+00  6.881332040E+00  3.913449766E+02  3.914589394E+02  5.394796609E-06  0.00000E+00  9.000E+00
      21     1     1     2   514   511 -6.061060412E+00  7.007476125E+00 -6.004025627E+01  6.075091397E+01  1.168007728E-06  0.00000E+00  9.000E+00
</event>
<event>
      5  10001  2.40292E+09  4.60596E+00 -1.00000E+00  2.49727E-01
      21    -1     0     0   515   516  0.000000000E+00  0.000000000E+00  4.106899326E+01  4.106899326E+01  0.000000000E+00  0.00000E+00  9.000E+00
      21    -1     0     0   514   512  0.000000000E+00  0.000000000E+00 -3.967858662E+01  3.967858662E+01  0.000000000E+00  0.00000E+00  9.000E+00
      21     1     1     2   514   511  3.518624988E+00 -1.026979567E+01 -6.356040714E+00  1.257969310E+01  4.042583694E-07  0.00000E+00  9.000E+00
      21     1     1     2   511   516 -7.163316406E+00  1.308600793E+01  3.629960829E+01  3.924561463E+01  6.743495762E-07  0.00000E+00  9.000E+00
      21     1     1     2   515   512  3.644691417E+00 -2.816212261E+00 -2.855316094E+01  2.892227216E+01  4.768371582E-07  0.00000E+00  9.000E+00
</event>
<event>
      5  10001  2.40292E+09  1.05183E+01 -1.00000E+00  1.93197E-01
      21    -1     0     0   513   514  0.000000000E+00  0.000000000E+00  1.280778653E+01  1.280778653E+01  0.000000000E+00  0.00000E+00  9.000E+00
       2    -1     0     0   517     0  0.000000000E+00  0.000000000E+00 -8.136168960E+02  8.136168960E+02  0.000000000E+00  0.00000E+00  9.000E+00
      21     1     1     2   512   514  6.922024285E+00 -9.840541778E-01  1.062079326E+01  1.271550362E+01  3.153981341E-07  0.00000E+00  9.000E+00
      21     1     1     2   517   512 -1.715168301E+01 -1.463157795E+00 -6.609082269E+01  6.829581177E+01  1.348699152E-06  0.00000E+00  9.000E+00
       2     1     1     2   513     0  1.022965873E+01  2.447211973E+00 -7.453390801E+02  7.454133672E+02  3.300000131E-01  0.00000E+00  9.000E+00
</event>
<event>
      5  10001  2.40292E+09  3.23982E+00 -1.00000E+00  2.86958E-01
      21    -1     0     0   511   516  0.000000000E+00  0.000000000E+00  3.280559583E+01  3.280559583E+01  0.000000000E+00  0.00000E+00  9.000E+00
      21    -1     0     0   514   512  0.000000000E+00  0.000000000E+00 -3.698543978E+01  3.698543978E+01  0.000000000E+00  0.00000E+00  9.000E+00
      21     1     1     2   511   515 -3.156613943E+00  1.437505005E+01  2.005066377E+01  2.487238213E+01  4.129530925E-07  0.00000E+00  9.000E+00
      21     1     1     2   514   516  1.501552931E+00 -1.716023060E+01  3.009447903E+00  1.748670787E+01  5.794233708E-07  0.00000E+00  9.000E+00
      21     1     1     2   515   512  1.655061011E+00  2.785180544E+00 -2.723995562E+01  2.743194561E+01  3.371747881E-07  0.00000E+00  9.000E+00
</event>
<event>
      5  10001  2.40292E+09  1.37747E+01 -1.00000E+00  1.80893E-01
      21    -1     0     0   513   512  0.000000000E+00  0.000000000E+00  2.972350873E+00  2.972350873E+00  0.000000000E+00  0.00000E+00  9.000E+00
      21    -1     0     0   515   517  0.000000000E+00  0.000000000E+00 -3.677692998E+02  3.677692998E+02  0.000000000E+00  0.00000E+00  9.000E+00
      21     1     1     2   513   517  2.129720383E+01 -1.259663931E+01 -2.875351199E+02  2.885978022E+02  0.000000000E+00  0.00000E+00  9.000E+00
      21     1     1     2   515   511 -1.442914821E+01  5.003397233E+00 -6.135243024E+01  6.322463917E+01  9.536743164E-07  0.00000E+00  9.000E+00
      21     1     1     2   511   512 -6.868055627E+00  7.593242081E+00 -1.590939870E+01  1.891920930E+01  4.460403188E-07  0.00000E+00  9.000E+00
</event>
<event>
      5  10001  2.40292E+09  9.68594E+00 -1.00000E+00  1.97314E-01
      -1    -1     0     0     0   512  0.000000000E+00  0.000000000E+00  1.834838956E+02  1.834838956E+02  0.000000000E+00  0.00000E+00  9.000E+00
      21    -1     0     0   512   514  0.000000000E+00  0.000000000E+00 -7.145219823E+01  7.145219823E+01  0.000000000E+00  0.00000E+00  9.000E+00
      -1     1     1     2     0   511 -9.578459480E+00 -7.805346958E+00  1.682480526E+02  1.687014714E+02  3.300000131E-01  0.00000E+00  9.000E+00
      21     1     1     2   511   513  1.190801860E+01 -1.596254850E+00  1.220779654E+01  1.712831669E+01  8.596304120E-07  0.00000E+00  9.000E+00
      21     1     1     2   513   514 -2.329559115E+00  9.401601808E+00 -6.842415175E+01  6.910630583E+01  0.000000000E+00  0.00000E+00  9.000E+00
</event>
<event>
      5  10001  2.40292E+09  7.52261E+00 -1.00000E+00  2.11158E-01
       1    -1     0     0   513     0  0.000000000E+00  0.000000000E+00  7.249433372E+02  7.249433372E+02  0.000000000E+00  0.00000E+00  9.000E+00
      21    -1     0     0   515   514  0.000000000E+00  0.000000000E+00 -1.926970029E+00  1.926970029E+00  0.000000000E+00  0.00000E+00  9.000E+00
      -5     1     1     2     0   514 -1.029614876E+01  3.343802311E+00  8.125923077E+01  8.211756377E+01  4.800000191E+00  0.00000E+00  9.000E+00
       5     1     1     2   513     0  1.019008560E+01  4.042672806E+00  2.278720512E+01  2.573864346E+01  4.800000191E+00  0.00000E+00  9.000E+00
       1     1     1     2   515     0  1.060631579E-01 -7.386475117E+00  6.189699313E+02  6.190141000E+02  3.300000131E-01  0.00000E+00  9.000E+00
</event>
<event>
      5  10001  2.40292E+09  1.24241E+01 -1.00000E+00  1.85404E-01
      21    -1     0     0   511   516  0.000000000E+00  0.000000000E+00  1.467402702E+02  1.467402702E+02  0.000000000E+00  0.00000E+00  9.000E+00
      21    -1     0     0   512   511  0.000000000E+00  0.000000000E+00 -7.186828822E+00  7.186828822E+00  0.000000000E+00  0.00000E+00  9.000E+00
      21     1     1     2   515   516  1.092229900E+01  1.898727153E+00  1.409756578E+02  1.414108831E+02  3.303624740E-06  0.00000E+00  9.000E+00
      21     1     1     2   512   513 -3.636993421E+00 -8.698790363E-01  2.175260912E+00  4.326218986E+00  2.980232239E-08  0.00000E+00  9.000E+00
      21     1     1     2   513   515 -7.285305583E+00 -1.028848117E+00 -3.597477333E+00  8.189996889E+00  4.440446027E-07  0.00000E+00  9.000E+00
</event>
<event>
      5  10001  2.40292E+09  1.07877E+01 -1.00000E+00  1.91970E-01
      21    -1     0     0   512   514  0.000000000E+00  0.000000000E+00  6.082385414E-01  6.082385414E-01  0.000000000E+00  0.00000E+00  9.000E+00
       1    -1     0     0   514     0  0.000000000E+00  0.000000000E+00 -2.220996533E+02  2.220996533E+02  0.000000000E+00  0.00000E+00  9.000E+00
      21     1     1     2   512   513  4.201485980E+00 -8.602782530E+00 -8.643033609E+01  8.695897509E+01  0.000000000E+00  0.00000E+00  9.000E+00
       1     1     1     2   511     0 -4.536994590E+00  1.779873133E+00 -9.372322800E+01  9.385043759E+01  3.300000131E-01  0.00000E+00  9.000E+00
      21     1     1     2   513   511  3.355086103E-01  6.822909397E+00 -4.133785065E+01  4.189847915E+01  9.536743164E-07  0.00000E+00  9.000E+00
</event>
<event>
      5  10001  2.40292E+09  1.54092E+01 -1.00000E+00  1.76243E-01
      21    -1     0     0   515   511  0.000000000E+00  0.000000000E+00  3.209587121E+01  3.209587121E+01  0.000000000E+00  0.00000E+00  9.000E+00
      21    -1     0     0   513   516  0.000000000E+00  0.000000000E+00 -1.049583747E+02  1.049583747E+02  0.000000000E+00  0.00000E+00  9.000E+00
      21     1     1     2   515   516 -5.133144834E+00 -1.952210039E+01  2.706291769E+01  3.376185856E+01  6.743495762E-07  0.00000E+00  9.000E+00
      21     1     1     2   513   512  1.059397551E+01  1.284350880E+01 -5.211238564E+01  5.470730090E+01  6.743495762E-07  0.00000E+00  9.000E+00
      21     1     1     2   512   511 -5.460830672E+00  6.678591585E+00 -4.781303551E+01  4.858508641E+01  1.348699152E-06  0.00000E+00  9.000E+00
</event>
<event>
      5  10001  2.40292E+09  5.22974E+00 -1.00000E+00  2.35071E-01
      21    -1     0     0   514   513  0.000000000E+00  0.000000000E+00  2.116526915E+01  2.116526915E+01  0.000000000E+00  0.00000E+00  9.000E+00
      21    -1     0     0   515   514  0.000000000E+00  0.000000000E+00 -1.895231754E+02  1.895231754E+02  0.000000000E+00  0.00000E+00  9.000E+00
      21     1     1     2   511   517  1.093584119E+00 -1.200111837E+01 -3.100603793E+00  1.244333204E+01  9.424321831E-08  0.00000E+00  9.000E+00
      21     1     1     2   517   513  2.952665232E+00  8.687810945E+00  1.517690716E+01  1.773512903E+01  1.685873940E-07  0.00000E+00  9.000E+00
      21     1     1     2   515   511 -4.046249351E+00  3.313307422E+00 -1.804342096E+02  1.805099834E+02  0.000000000E+00  0.00000E+00  9.000E+00
</event>
<event>
      5  10001  2.40292E+09  2.06649E+01 -1.00000E+00  1.65165E-01
      21    -1     0     0   512   516  0.000000000E+00  0.000000000E+00  3.662060258E+00  3.662060258E+00  0.000000000E+00  0.00000E+00  9.000E+00
      21    -1     0     0   515   511  0.000000000E+00  0.000000000E+00 -7.590945832E+01  7.590945832E+01  0.000000000E+00  0.00000E+00  9.000E+00
      21     1     1     2   512   511  7.914585397E+00  7.301019742E+00 -1.757556293E+01  2.061179186E+01  4.768371582E-07  0.00000E+00  9.000E+00
      21     1     1     2   515   513  1.898152100E+00 -4.802114598E+00 -4.379762072E+01  4.410096219E+01  1.168007728E-06  0.00000E+00  9.000E+00
      21     1     1     2   513   516 -9.812737498E+00 -2.498905143E+00 -1.087421442E+01  1.485876453E+01  0.000000000E+00  0.00000E+00  9.000E+00
</event>
<event>
      5  10001  2.40292E+09  6.88137E+00 -1.00000E+00  2.16536E-01
      -4    -1     0     0     0   514  0.000000000E+00  0.000000000E+00  2.081673828E+00  2.081673828E+00  0.000000000E+00  0.00000E+00  9.000E+00
      21    -1     0     0   512   513  0.000000000E+00  0.000000000E+00 -1.025241673E+02  1.025241673E+02  0.000000000E+00  0.00000E+00  9.000E+00
      -4     1     1     2     0   513  9.374530671E+00 -2.572553030E+00 -1.341448049E+01  1.663424604E+01  1.500000000E+00  0.00000E+00  9.000E+00
      21     1     1     2   512   511 -5.269677139E+00  5.645244473E+00 -5.215626942E+01  5.272489660E+01  6.743495762E-07  0.00000E+00  9.000E+00
      21     1     1     2   511   514 -4.104853532E+00 -3.072691443E+00 -3.487174361E+01  3.524669853E+01  0.000000000E+00  0.00000E+00  9.000E+00
</event>
<event>
      5  10001  2.40292E+09  5.05179E+00 -1.00000E+00  2.37649E-01
      21    -1     0     0   512   514  0.000000000E+00  0.000000000E+00  7.101556858E+01  7.101556858E+01  0.000000000E+00  0.00000E+00  9.000E+00
       2    -1     0     0   513     0  0.000000000E+00  0.000000000E+00 -2.999627066E+01  2.999627066E+01  0.000000000E+00  0.00000E+00  9.000E+00
      21     1     1     2   512   511 -6.968494994E+00  1.093472777E+01  6.655247021E+01  6.780383090E+01  9.536743164E-07  0.00000E+00  9.000E+00
       2     1     1     2   511     0  4.707687738E+00 -6.417418566E+00 -8.474974549E-01  8.010788778E+00  3.300000131E-01  0.00000E+00  9.000E+00
      21     1     1     2   513   514  2.260807255E+00 -4.517309209E+00 -2.468567483E+01  2.519721956E+01  3.371747881E-07  0.00000E+00  9.000E+00
</event>
<event>
      5  10001  2.40292E+09  1.38224E+01 -1.00000E+00  1.80746E-01
       1    -1     0     0   511     0  0.000000000E+00  0.000000000E+00  2.674014157E+02  2.674014157E+02  0.000000000E+00  0.00000E+00  9.000E+00
      21    -1     0     0   515   516  0.000000000E+00  0.000000000E+00 -4.263639453E+00  4.263639453E+00  0.000000000E+00  0.00000E+00  9.000E+00
      21     1     1     2   511   516 -1.028196082E+01  1.214828019E+00  3.321988632E+00  1.087336810E+01  2.665600750E-07  0.00000E+00  9.000E+00
       1     1     1     2   512     0  5.802130457E+00 -9.771666161E+00  1.859292994E+02  1.862765779E+02  3.300000131E-01  0.00000E+00  9.000E+00
      21     1     1     2   515   512  4.479830366E+00  8.556838142E+00  7.388648821E+01  7.451510920E+01  9.536743164E-07  0.00000E+00  9.000E+00
</event>
<event>
      5  10001  2.40292E+09  4.07530E+00 -1.00000E+00  2.61470E-01
      21    -1     0     0   513   512  0.000000000E+00  0.000000000E+00  7.105912638E+01  7.105912638E+01  0.000000000E+00  0.00000E+00  9.000E+00
      21    -1     0     0   515   511  0.000000000E+00  0.000000000E+00 -1.632104367E+01  1.632104367E+01  0.000000000E+00  0.00000E+00  9.000E+00
      21     1     1     2   513   514  6.953665334E+00 -1.305021767E+01  6.223888456E+01  6.397140294E+01  6.743495762E-07  0.00000E+00  9.000E+00
      21     1     1     2   515   512 -6.655881587E+00  8.985813665E+00  3.467650554E+00  1.170769863E+01  4.951133646E-07  0.00000E+00  9.000E+00
      21     1     1     2   514   511 -2.977837474E-01  4.064404006E+00 -1.096845241E+01  1.170106847E+01  2.920019320E-07  0.00000E+00  9.000E+00
</event>
<event>
      5  10001  2.40292E+09  3.14400E+00 -1.00000E+00  2.90690E-01
      21    -1     0     0   516   514  0.000000000E+00  0.000000000E+00  4.164669968E+02  4.164669968E+02  0.000000000E+00  0.00000E+00  9.000E+00
      21    -1     0     0   517   516  0.000000000E+00  0.000000000E+00 -7.695800853E-01  7.695800853E-01  0.000000000E+00  0.00000E+00  9.000E+00
      21     1     1     2   517   511 -5.943465866E+00  1.445151889E+01  1.062652652E+02  1.074079968E+02  1.348699152E-06  0.00000E+00  9.000E+00
      21     1     1     2   512   514  3.428988001E-01 -1.790417730E+00  3.699348645E+01  3.703837490E+01  6.743495762E-07  0.00000E+00  9.000E+00
      21     1     1     2   511   512  5.600567066E+00 -1.266110116E+01  2.724386651E+02  2.727902052E+02  0.000000000E+00  0.00000E+00  9.000E+00
</event>
<event>
      5  10001  2.40292E+09  3.94920E+00 -1.00000E+00  2.64676E-01
      21    -1     0     0   513   516  0.000000000E+00  0.000000000E+00  8.319683979E+00  8.319683979E+00  0.000000000E+00  0.00000E+00  9.000E+00
      -1    -1     0     0     0   513  0.000000000E+00  0.000000000E+00 -1.120855597E+02  1.120855597E+02  0.000000000E+00  0.00000E+00  9.000E+00
      -1     1     1     2     0   514  1.523032682E+01 -8.908971843E+00 -7.994487627E+01  8.186955952E+01  3.300000131E-01  0.00000E+00  9.000E+00
      21     1     1     2   514   515 -1.758111207E+01  1.208212307E+01 -2.630696660E+01  3.386930308E+01  6.743495762E-07  0.00000E+00  9.000E+00
      21     1     1     2   515   516  2.350785249E+00 -3.173151227E+00  2.485967128E+00  4.666381098E+00  1.659323085E-07  0.00000E+00  9.000E+00
</event>
<event>
      5  10001  2.40292E+09  5.05484E+00 -1.00000E+00  2.37604E-01
      -1    -1     0     0     0   511  0.000000000E+00  0.000000000E+00  1.919147289E+02  1.919147289E+02  0.000000000E+00  0.00000E+00  9.000E+00
      21    -1     0     0   511   514  0.000000000E+00  0.000000000E+00 -3.403253622E+01  3.403253622E+01  0.000000000E+00  0.00000E+00  9.000E+00
      -1     1     1     2     0   513  5.048236701E-01 -1.610037945E+01  1.892545466E+02  1.899391202E+02  3.300000131E-01  0.00000E+00  9.000E+00
      21     1     1     2   513   512  9.475212122E-01  1.125869926E+01 -1.442564052E+01  1.832362436E+01  4.768371582E-07  0.00000E+00  9.000E+00
      21     1     1     2   512   514 -1.452344882E+00  4.841680188E+00 -1.694671341E+01  1.768452058E+01  3.371747881E-07  0.00000E+00  9.000E+00
</event>
<event>
      5  10001  2.40292E+09  6.43959E+00 -1.00000E+00  2.20731E-01
      21    -1     0     0   515   512  0.000000000E+00  0.000000000E+00  4.700185865E+01  4.700185865E+01  0.000000000E+00  0.00000E+00  9.000E+00
      21    -1     0     0   513   515  0.000000000E+00  0.000000000E+00 -6.312102322E+01  6.312102322E+01  0.000000000E+00  0.00000E+00  9.000E+00
      21     1     1     2   514   512  6.386066965E+00  9.398948451E+00  4.374820869E+01  4.519986556E+01  0.000000000E+00  0.00000E+00  9.000E+00
      21     1     1     2   511   514 -5.922543943E+00 -1.582183872E+01 -3.058232303E+01  3.493831120E+01  7.539457465E-07  0.00000E+00  9.000E+00
      21     1     1     2   513   511 -4.635230218E-01  6.422890273E+00 -2.928505024E+01  2.998470511E+01  4.768371582E-07  0.00000E+00  9.000E+00
</event>
<event>
      5  10001  2.40292E+09  1.45312E+01 -1.00000E+00  1.78644E-01
      21    -1     0     0   516   511  0.000000000E+00  0.000000000E+00  6.664201936E+00  6.664201936E+00  0.000000000E+00  0.00000E+00  9.000E+00
       1    -1     0     0   513     0  0.000000000E+00  0.000000000E+00 -3.694087861E+02  3.694087861E+02  0.000000000E+00  0.00000E+00  9.000E+00
      21     1     1     2   513   517  2.718839446E+00  5.725952033E+00 -1.800403528E+02  1.801519005E+02  1.907348633E-06  0.00000E+00  9.000E+00
      21     1     1     2   517   511  5.337514306E-02 -1.998991304E+01 -9.543179584E+00  2.215111168E+01  5.057621821E-07  0.00000E+00  9.000E+00
       1     1     1     2   516     0 -2.772214589E+00  1.426396100E+01 -1.731610517E+02  1.737699758E+02  3.300000131E-01  0.00000E+00  9.000E+00
</event>
<event>
      5  10001  2.40292E+09  9.11136E+00 -1.00000E+00  2.00487E-01
      21    -1     0     0   512   515  0.000000000E+00  0.000000000E+00  7.342016691E+01  7.342016691E+01  0.000000000E+00  0.00000E+00  9.000E+00
      21    -1     0     0   513   514  0.000000000E+00  0.000000000E+00 -2.655911394E+00  2.655911394E+00  0.000000000E+00  0.00000E+00  9.000E+00
      21     1     1     2   512   514  1.531931158E+00  1.162383727E+01  2.179747747E+01  2.475056424E+01  2.384185791E-07  0.00000E+00  9.000E+00
      21     1     1     2   511   515  1.437950330E+00 -5.747010435E+00  3.854690076E+01  3.899947934E+01  0.000000000E+00  0.00000E+00  9.000E+00
      21     1     1     2   513   511 -2.969881488E+00 -5.876826831E+00  1.041987728E+01  1.232603473E+01  2.384185791E-07  0.00000E+00  9.000E+00
</event>
<event>
      5  10001  2.40292E+09  6.04502E+00 -1.00000E+00  2.24891E-01
      21    -1     0     0   516   511  0.000000000E+00  0.000000000E+00  1.064120262E+02  1.064120262E+02  0.000000000E+00  0.00000E+00  9.000E+00
      21    -1     0     0   513   517  0.000000000E+00  0.000000000E+00 -2.084118878E+00  2.084118878E+00  0.000000000E+00  0.00000E+00  9.000E+00
      21     1     1     2   516   517  8.231158894E+00  6.890689214E+00  1.593049144E+01  1.920974055E+01  4.460403188E-07  0.00000E+00  9.000E+00
      21     1     1     2   513   512 -6.497668143E+00 -1.200027231E+00  4.844310935E+01  4.889166186E+01  6.743495762E-07  0.00000E+00  9.000E+00
      21     1     1     2   512   511 -1.733490752E+00 -5.690661984E+00  3.995430654E+01  4.039474267E+01  4.768371582E-07  0.00000E+00  9.000E+00
</event>
<event>
      5  10001  2.40292E+09  3.02957E+00 -1.00000E+00  2.95443E-01
      21    -1     0     0   514   512  0.000000000E+00  0.000000000E+00  3.236025703E+00  3.236025703E+00  0.000000000E+00  0.00000E+00  9.000E+00
      21    -1     0     0   511   514  0.000000000E+00  0.000000000E+00 -7.589367748E+01  7.589367748E+01  0.000000000E+00  0.00000E+00  9.000E+00
      21     1     1     2   513   512 -7.849114368E+00 -8.322974157E+00 -9.710422591E+00  1.500575896E+01  2.384185791E-07  0.00000E+00  9.000E+00
      21     1     1     2   511   515  4.747703522E+00  7.386661183E+00 -4.024987560E+01  4.119655250E+01  4.768371582E-07  0.00000E+00  9.000E+00
      21     1     1     2   515   513  3.101410846E+00  9.363129732E-01 -2.269735358E+01  2.292739172E+01  3.371747881E-07  0.00000E+00  9.000E+00
</event>
<event>
      5  10001  2.40292E+09  1.31007E+01 -1.00000E+00  1.83057E-01
      21    -1     0     0   516   511  0.000000000E+00  0.000000000E+00  4.509326469E+01  4.509326469E+01  0.000000000E+00  0.00000E+00  9.000E+00
      21    -1     0     0   512   513  0.000000000E+00  0.000000000E+00 -4.722944825E+00  4.722944825E+00  0.000000000E+00  0.00000E+00  9.000E+00
      21     1     1     2   516   513 -6.885379689E+00 -9.009482593E+00  6.488524542E+00  1.306446251E+01  1.460009660E-07  0.00000E+00  9.000E+00
      21     1     1     2   512   514  3.168255495E+00  3.179018347E+00  3.785795765E+00  5.871647989E+00  9.424321831E-08  0.00000E+00  9.000E+00
      21     1     1     2   514   511  3.717124194E+00  5.830464247E+00  3.009599956E+01  3.088009902E+01  4.768371582E-07  0.00000E+00  9.000E+00
</event>
<event>
      5  10001  2.40292E+09  4.89318E+00 -1.00000E+00  2.44325E-01
      21    -1     0     0   515   512  0.000000000E+00  0.000000000E+00  1.130885779E+01  1.130885779E+01  0.000000000E+00  0.00000E+00  9.000E+00
      21    -1     0     0   517   511  0.000000000E+00  0.000000000E+00 -1.731030873E+01  1.731030873E+01  0.000000000E+00  0.00000E+00  9.000E+00
      21     1     1     2   515   511  8.049332048E+00  7.415083101E+00 -9.743414714E+00  1.465296332E+01  1.685873940E-07  0.00000E+00  9.000E+00
      21     1     1     2   517   513 -4.480405891E+00 -8.598005305E+00  2.649698881E+00  1.005090226E+01  2.858538343E-07  0.00000E+00  9.000E+00
      21     1     1     2   513   512 -3.568926158E+00  1.182922204E+00  1.092264893E+00  3.915300941E+00  9.185692672E-08  0.00000E+00  9.000E+00
</event>
<event>
      5  10001  2.40292E+09  1.11983E+01 -1.00000E+00  1.90186E-01
      21    -1     0     0   513   512  0.000000000E+00  0.000000000E+00  1.250182844E+00  1.250182844E+00  0.000000000E+00  0.00000E+00  9.000E+00
      -2    -1     0     0     0   514  0.000000000E+00  0.000000000E+00 -2.027582136E+02  2.027582136E+02  0.000000000E+00  0.00000E+00  9.000E+00
      21     1     1     2   511   512  3.991514350E+00 -8.056990880E+00 -2.347794673E+01  2.514082878E+01  3.371747881E-07  0.00000E+00  9.000E+00
      21     1     1     2   513   514  2.731748736E+00  9.432515389E+00 -1.266538054E+02  1.270339373E+02  1.348699152E-06  0.00000E+00  9.000E+00
      -2     1     1     2     0   511 -6.723263086E+00 -1.375524509E+00 -5.137627861E+01  5.183363038E+01  3.300000131E-01  0.00000E+00  9.000E+00
</event>
<event>
      5  10001  2.40292E+09  2.70348E+00 -1.00000E+00  3.11139E-01
      21    -1     0     0   514   515  0.000000000E+00  0.000000000E+00  9.799407122E-01  9.799407122E-01  0.000000000E+00  0.00000E+00  9.000E+00
      -4    -1     0     0     0   511  0.000000000E+00  0.000000000E+00 -2.640147270E+02  2.640147270E+02  0.000000000E+00  0.00000E+00  9.000E+00
      -4     1     1     2     0   515  7.653972505E+00  6.542690376E+00 -2.282835330E+02  2.285104189E+02  1.500000000E+00  0.00000E+00  9.000E+00
      21     1     1     2   512   511 -6.029286060E+00 -3.288029648E+00 -1.646743584E+01  1.784208151E+01  0.000000000E+00  0.00000E+00  9.000E+00
      21     1     1     2   514   512 -1.624686445E+00 -3.254660728E+00 -1.828381737E+01  1.864216726E+01  3.371747881E-07  0.00000E+00  9.000E+00
</event>
<event>
      5  10001  2.40292E+09  7.96308E+00 -1.00000E+00  2.07867E-01
       4    -1     0     0   512     0  0.000000000E+00  0.000000000E+00  2.512975995E+00  2.512975995E+00  0.000000000E+00  0.00000E+00  9.000E+00
      21    -1     0     0   513   511  0.000000000E+00  0.000000000E+00 -1.353150567E+02  1.353150567E+02  0.000000000E+00  0.00000E+00  9.000E+00
      21     1     1     2   512   511 -3.816024601E+00 -9.608842612E+00 -9.684055238E+00  1.416590364E+01  2.064765462E-07  0.00000E+00  9.000E+00
      21     1     1     2   513   515  3.120628949E+00  2.059561592E+00 -3.223822006E+01  3.245432100E+01  4.768371582E-07  0.00000E+00  9.000E+00
       4     1     1     2   515     0  6.953956524E-01  7.549281020E+00 -9.087980539E+01  9.120780804E+01  1.500000000E+00  0.00000E+00  9.000E+00
</event>
<event>
      5  10001  2.40292E+09  3.84937E+00 -1.00000E+00  2.67349E-01
       1    -1     0     0   512     0  0.000000000E+00  0.000000000E+00  6.356271795E+01  6.356271795E+01  0.000000000E+00  0.00000E+00  9.000E+00
      21    -1     0     0   514   515  0.000000000E+00  0.000000000E+00 -2.208271771E+01  2.208271771E+01  0.000000000E+00  0.00000E+00  9.000E+00
      21     1     1     2   511   515  2.872801455E-01 -1.387878171E+01 -1.871855561E+01  2.330423643E+01  6.743495762E-07  0.00000E+00  9.000E+00
       1     1     1     2   514     0  2.332488112E+00  1.105853203E+01  5.284551172E+01  5.404154550E+01  3.300000131E-01  0.00000E+00  9.000E+00
      21     1     1     2   512   511 -2.619768257E+00  2.820249675E+00  7.353044126E+00  8.299653720E+00  8.429369702E-08  0.00000E+00  9.000E+00
</event>
<event>
      5  10001  2.40292E+09  2.38800E+01 -1.00000E+00  1.60218E-01
      21    -1     0     0   513   514  0.000000000E+00  0.000000000E+00  8.316606972E+01  8.316606972E+01  0.000000000E+00  0.00000E+00  9.000E+00
      21    -1     0     0   516   511  0.000000000E+00  0.000000000E+00 -6.327119301E+01  6.327119301E+01  0.000000000E+00  0.00000E+00  9.000E+00
      21     1     1     2   513   511  2.744061294E+00  1.603215938E+01 -6.009099574E+01  6.225341578E+01  9.536743164E-07  0.00000E+00  9.000E+00
      21     1     1     2   516   515  3.581198134E+00  1.994856226E+00  3.594240116E+01  3.617541476E+01  6.743495762E-07  0.00000E+00  9.000E+00
      21     1     1     2   515   514 -6.325259428E+00 -1.802701560E+01  4.404347129E+01  4.800843219E+01  1.348699152E-06  0.00000E+00  9.000E+00
</event>
<event>
      5  10001  2.40292E+09  7.34071E+00 -1.00000E+00  2.12608E-01
      21    -1     0     0   512   511  0.000000000E+00  0.000000000E+00  1.658411908E+01  1.658411908E+01  0.000000000E+00  0.00000E+00  9.000E+00
      21    -1     0     0   517   514  0.000000000E+00  0.000000000E+00 -1.403851704E+02  1.403851704E+02  0.000000000E+00  0.00000E+00  9.000E+00
      21     1     1     2   512   514 -4.438257822E+00  8.972177219E+00  1.419731280E+01  1.737129205E+01  1.685873940E-07  0.00000E+00  9.000E+00
      21     1     1     2   513   511  5.823816453E+00 -2.873724136E+00 -1.250494153E+02  1.252179356E+02  1.348699152E-06  0.00000E+00  9.000E+00
      21     1     1     2   517   513 -1.385558631E+00 -6.098453083E+00 -1.294894879E+01  1.438006180E+01  0.000000000E+00  0.00000E+00  9.000E+00
</event>
<event>
      5  10001  2.40292E+09  1.09115E+01 -1.00000E+00  1.91422E-01
      21    -1     0     0   515   512  0.000000000E+00  0.000000000E+00  1.438946027E+01  1.438946027E+01  0.000000000E+00  0.00000E+00  9.000E+00
       2    -1     0     0   513     0  0.000000000E+00  0.000000000E+00 -1.171776415E+03  1.171776415E+03  0.000000000E+00  0.00000E+00  9.000E+00
      21     1     1     2   513   511  4.398013853E+00  1.163715313E+01 -4.987011025E+00  1.340284066E+01  1.528949182E-06  0.00000E+00  9.000E+00
       2     1     1     2   515     0 -1.352474990E+01 -5.657014224E+00 -1.159598350E+03  1.159691064E+03  3.300000131E-01  0.00000E+00  9.000E+00
      21     1     1     2   511   512  9.126736042E+00 -5.980138902E+00  7.198406351E+00  1.307197101E+01  1.140303997E-06  0.00000E+00  9.000E+00
</event>
<event>
      5  10001  2.40292E+09  1.93249E+01 -1.00000E+00  1.67567E-01
      21    -1     0     0   514   513  0.000000000E+00  0.000000000E+00  1.114600990E+02  1.114600990E+02  0.000000000E+00  0.00000E+00  9.000E+00
      21    -1     0     0   511   512  0.000000000E+00  0.000000000E+00 -9.997787475E+00  9.997787475E+00  0.000000000E+00  0.00000E+00  9.000E+00
      21     1     1     2   514   512 -9.834387194E+00 -1.729703128E+01  9.271412706E+01  9.482516448E+01  1.348699152E-06  0.00000E+00  9.000E+00
      21     1     1     2   515   513 -3.034310919E+00  5.263077897E+00 -1.490160481E+00  6.255206628E+00  1.750490088E-07  0.00000E+00  9.000E+00
      21     1     1     2   511   515  1.286869811E+01  1.203395338E+01  1.023834494E+01  2.037751536E+01  2.384185791E-07  0.00000E+00  9.000E+00
</event>
<event>
      5  10001  2.40292E+09  4.45940E+00 -1.00000E+00  2.52720E-01
       1    -1     0     0   511     0  0.000000000E+00  0.000000000E+00  7.315695001E+01  7.315695001E+01  0.000000000E+00  0.00000E+00  9.000E+00
      21    -1     0     0   516   515  0.000000000E+00  0.000000000E+00 -1.645729985E+01  1.645729985E+01  0.000000000E+00  0.00000E+00  9.000E+00
      21     1     1     2   511   515  8.572117933E+00 -5.588733966E+00 -1.426445912E+01  1.755533957E+01  3.769728732E-07  0.00000E+00  9.000E+00
       1     1     1     2   512     0 -4.077665859E+00  1.957746080E+00  5.288159191E+01  5.307571753E+01  3.300000131E-01  0.00000E+00  9.000E+00
      21     1     1     2   516   512 -4.494452075E+00  3.630987886E+00  1.808251738E+01  1.898319276E+01  0.000000000E+00  0.00000E+00  9.000E+00
</event>
<event>
      5  10001  2.40292E+09  2.50537E+01 -1.00000E+00  1.58643E-01
      21    -1     0     0   514   512  0.000000000E+00  0.000000000E+00  2.046275422E-01  2.046275422E-01  0.000000000E+00  0.00000E+00  9.000E+00
      -3    -1     0     0     0   513  0.000000000E+00  0.000000000E+00 -9.159188181E+02  9.159188181E+02  0.000000000E+00  0.00000E+00  9.000E+00
      -3     1     1     2     0   511 -2.345519284E+00  1.121516167E+00 -6.553360059E+02  6.553413537E+02  5.000000000E-01  0.00000E+00  9.000E+00
      21     1     1     2   514   513 -2.796005796E+00 -3.327904462E+00 -2.171304338E+02  2.171739346E+02  3.814697266E-06  0.00000E+00  9.000E+00
      21     1     1     2   511   512  5.141525080E+00  2.206388295E+00 -4.324775087E+01  4.360815732E+01  1.907348633E-06  0.00000E+00  9.000E+00
</event>
<event>
      5  10001  2.40292E+09  7.34541E+00 -1.00000E+00  2.12570E-01
      21    -1     0     0   515   511  0.000000000E+00  0.000000000E+00  1.242914876E+02  1.242914876E+02  0.000000000E+00  0.00000E+00  9.000E+00
      21    -1     0     0   512   515  0.000000000E+00  0.000000000E+00 -2.595146962E+01  2.595146962E+01  0.000000000E+00  0.00000E+00  9.000E+00
      21     1     1     2   512   516 -5.221649381E+00 -1.102611562E+01 -2.394167322E+01  2.687088693E+01  5.840038640E-07  0.00000E+00  9.000E+00
      21     1     1     2   513   511  8.080513517E+00  5.303671966E+00  8.471883840E+01  8.526843036E+01  9.536743164E-07  0.00000E+00  9.000E+00
      21     1     1     2   516   513 -2.858864136E+00  5.722443652E+00  3.756285283E+01  3.810363996E+01  6.743495762E-07  0.00000E+00  9.000E+00
</event>
<event>
      5  10001  2.40292E+09  2.09506E+01 -1.00000E+00  1.64681E-01
      -3    -1     0     0     0   511  0.000000000E+00  0.000000000E+00  9.076533028E-01  9.076533028E-01  0.000000000E+00  0.00000E+00  9.000E+00
       2    -1     0     0   511     0  0.000000000E+00  0.000000000E+00 -3.104408417E+02  3.104408417E+02  0.000000000E+00  0.00000E+00  9.000E+00
      21     1     1     2   514   512  7.803184818E+00 -4.155493574E+00 -1.349620486E+02  1.352512934E+02  2.697398305E-06  0.00000E+00  9.000E+00
       2     1     1     2   512     0 -6.309169417E+00  6.131653630E+00 -1.727689900E+02  1.729931664E+02  3.300000131E-01  0.00000E+00  9.000E+00
      -3     1     1     2     0   514 -1.494015401E+00 -1.976160055E+00 -1.802149773E+00  3.104035178E+00  5.000000000E-01  0.00000E+00  9.000E+00
</event>
<event>
      5  10001  2.40292E+09  5.74801E+00 -1.00000E+00  2.28325E-01
      21    -1     0     0   513   512  0.000000000E+00  0.000000000E+00  1.710086980E+01  1.710086980E+01  0.000000000E+00  0.00000E+00  9.000E+00
      21    -1     0     0   511   514  0.000000000E+00  0.000000000E+00 -9.025959309E+00  9.025959309E+00  0.000000000E+00  0.00000E+00  9.000E+00
      21     1     1     2   513   514  5.415645010E+00 -1.072435472E+01  5.650566301E+00  1.327666729E+01  8.429369702E-08  0.00000E+00  9.000E+00
      21     1     1     2   511   515 -2.662761262E+00  2.400206040E+00 -4.737847869E-01  3.616041841E+00  7.068241373E-08  0.00000E+00  9.000E+00
      21     1     1     2   515   512 -2.752883748E+00  8.324148675E+00  2.898128976E+00  9.234119972E+00  0.000000000E+00  0.00000E+00  9.000E+00
</event>
<event>
      5  10001  2.40292E+09  1.10106E+01 -1.00000E+00  1.90989E-01
      21    -1     0     0   516   515  0.000000000E+00  0.000000000E+00  3.407201074E+00  3.407201074E+00  0.000000000E+00  0.00000E+00  9.000E+00
      21    -1     0     0   512   516  0.000000000E+00  0.000000000E+00 -6.225764749E+01  6.225764749E+01  0.000000000E+00  0.00000E+00  9.000E+00
      21     1     1     2   511   515  3.468813374E+00  9.501478705E+00 -7.835281407E+00  1.279462381E+01  8.429369702E-08  0.00000E+00  9.000E+00
      21     1     1     2   513   511  3.099424317E-01 -6.874789552E+00 -1.432172157E+01  1.588932045E+01  2.384185791E-07  0.00000E+00  9.000E+00
      21     1     1     2   512   513 -3.778755806E+00 -2.626689154E+00 -3.669344343E+01  3.698090429E+01  0.000000000E+00  0.00000E+00  9.000E+00
</event>
<event>
      5  10001  2.40292E+09  1.11780E+01 -1.00000E+00  1.90272E-01
       2    -1     0     0   512     0  0.000000000E+00  0.000000000E+00  1.432749523E+02  1.432749523E+02  0.000000000E+00  0.00000E+00  9.000E+00
      21    -1     0     0   514   513  0.000000000E+00  0.000000000E+00 -1.216980256E+00  1.216980256E+00  0.000000000E+00  0.00000E+00  9.000E+00
      21     1     1     2   512   511  4.465357509E+00 -2.393834733E+00  1.742772127E+01  1.814925153E+01  2.384185791E-07  0.00000E+00  9.000E+00
       2     1     1     2   514     0 -1.056366167E+00  9.238526152E+00  1.026400649E+02  1.030609436E+02  3.300000131E-01  0.00000E+00  9.000E+00
      21     1     1     2   511   513 -3.408991341E+00 -6.844691419E+00  2.199018594E+01  2.328173749E+01  4.129530925E-07  0.00000E+00  9.000E+00
</event>
<event>
      5  10001  2.40292E+09  1.98248E+01 -1.00000E+00  1.66643E-01
      21    -1     0     0   515   514  0.000000000E+00  0.000000000E+00  1.994907055E+02  1.994907055E+02  0.000000000E+00  0.00000E+00  9.000E+00
      21    -1     0     0   512   515  0.000000000E+00  0.000000000E+00 -5.102855361E+02  5.102855361E+02  0.000000000E+00  0.00000E+00  9.000E+00
      21     1     1     2   513   514 -1.320551451E+01 -6.401963135E+00  1.437535333E+02  1.445006889E+02  0.000000000E+00  0.00000E+00  9.000E+00
      21     1     1     2   516   513 -2.982619525E+00  1.784599486E+01  5.368686506E+01  5.665381745E+01  0.000000000E+00  0.00000E+00  9.000E+00
      21     1     1     2   512   516  1.618813404E+01 -1.144403172E+01 -5.082352290E+02  5.086217352E+02  0.000000000E+00  0.00000E+00  9.000E+00
</event>
<event>
      5  10001  2.40292E+09  8.03218E+00 -1.00000E+00  2.07377E-01
       1    -1     0     0   512     0  0.000000000E+00  0.000000000E+00  3.532674323E+02  3.532674323E+02  0.000000000E+00  0.00000E+00  9.000E+00
      21    -1     0     0   513   515  0.000000000E+00  0.000000000E+00 -2.844559684E+02  2.844559684E+02  0.000000000E+00  0.00000E+00  9.000E+00
      21     1     1     2   512   515  5.910076199E+00 -1.372101358E+01 -6.381665522E+01  6.554205289E+01  1.507891493E-06  0.00000E+00  9.000E+00
       1     1     1     2   511     0 -2.167479794E+00  6.614053077E+00  3.522968830E+02  3.523657848E+02  3.300000131E-01  0.00000E+00  9.000E+00
      21     1     1     2   513   511 -3.742596405E+00  7.106960505E+00 -2.196687638E+02  2.198155630E+02  2.697398305E-06  0.00000E+00  9.000E+00
</event>
<event>
      5  10001  2.40292E+09  1.57320E+01 -1.00000E+00  1.75410E-01
      21    -1     0     0   514   511  0.000000000E+00  0.000000000E+00  1.097951786E+01  1.097951786E+01  0.000000000E+00  0.00000E+00  9.000E+00
      21    -1     0     0   513   516  0.000000000E+00  0.000000000E+00 -1.304795529E+01  1.304795529E+01  0.000000000E+00  0.00000E+00  9.000E+00
      21     1     1     2   514   516  3.312348994E+00 -3.711073183E+00  4.764741990E-01  4.997073912E+00  1.864878984E-07  0.00000E+00  9.000E+00
      21     1     1     2   513   512 -7.073955301E+00  2.127523845E+00 -8.844937184E+00  1.152389323E+01  1.685873940E-07  0.00000E+00  9.000E+00
      21     1     1     2   512   511  3.761606307E+00  1.583549338E+00  6.300025555E+00  7.506506012E+00  1.192092896E-07  0.00000E+00  9.000E+00
</event>
<event>
      5  10001  2.40292E+09  1.63691E+01 -1.00000E+00  1.73837E-01
      21    -1     0     0   515   512  0.000000000E+00  0.000000000E+00  2.995849672E+01  2.995849672E+01  0.000000000E+00  0.00000E+00  9.000E+00
      21    -1     0     0   511   515  0.000000000E+00  0.000000000E+00 -1.042545223E+01  1.042545223E+01  0.000000000E+00  0.00000E+00  9.000E+00
      21     1     1     2   513   512  1.024749329E+01 -7.474417331E+00  1.427281052E+01  1.909427017E+01  2.920019320E-07  0.00000E+00  9.000E+00
      21     1     1     2   511   514 -4.901716131E+00 -1.150011808E+00 -4.832060404E+00  6.978406404E+00  2.457562462E-07  0.00000E+00  9.000E+00
      21     1     1     2   514   513 -5.345777155E+00  8.624429139E+00  1.009229437E+01  1.431127238E+01  2.064765462E-07  0.00000E+00  9.000E+00
</event>
<event>
      5  10001  2.40292E+09  7.11742E+00 -1.00000E+00  2.14467E-01
       1    -1     0     0   516     0  0.000000000E+00  0.000000000E+00  6.048171804E+02  6.048171804E+02  0.000000000E+00  0.00000E+00  9.000E+00
      21    -1     0     0   517   516  0.000000000E+00  0.000000000E+00 -1.181454529E+01  1.181454529E+01  0.000000000E+00  0.00000E+00  9.000E+00
      21     1     1     2   517   513  1.794273634E+01  8.768028520E+00 -2.740301884E+00  2.015761310E+01  7.557107409E-07  0.00000E+00  9.000E+00
      21     1     1     2   513   511 -1.097206736E+01 -1.020568560E+01  1.667307758E+02  1.674027893E+02  3.303624740E-06  0.00000E+00  9.000E+00
       1     1     1     2   511     0 -6.970668980E+00  1.437657081E+00  4.290121612E+02  4.290713233E+02  3.300000131E-01  0.00000E+00  9.000E+00
</event>
<event>
      5  10001  2.40292E+09  6.53020E+00 -1.00000E+00  2.19834E-01
      21    -1     0     0   513   511  0.000000000E+00  0.000000000E+00  4.801433001E+01  4.801433001E+01  0.000000000E+00  0.00000E+00  9.000E+00
      21    -1     0     0   514   512  0.000000000E+00  0.000000000E+00 -1.125763487E+02  1.125763487E+02  0.000000000E+00  0.00000E+00  9.000E+00
      21     1     1     2   515   511 -2.666221725E+00 -6.592097514E+00  4.322162278E+01  4.380266160E+01  1.348699152E-06  0.00000E+00  9.000E+00
      21     1     1     2   514   515  7.650262753E+00  1.081144469E+01 -1.092873177E+02  1.100869278E+02  1.348699152E-06  0.00000E+00  9.000E+00
      21     1     1     2   513   512 -4.984041027E+00 -4.219347175E+00  1.503676262E+00  6.701089303E+00  1.010645923E-07  0.00000E+00  9.000E+00
</event>
<event>
      5  10001  2.40292E+09  4.76911E+00 -1.00000E+00  2.46588E-01
      21    -1     0     0   516   512  0.000000000E+00  0.000000000E+00  2.553984040E+01  2.553984040E+01  0.000000000E+00  0.00000E+00  9.000E+00
      -3    -1     0     0     0   517  0.000000000E+00  0.000000000E+00 -2.792822466E+01  2.792822466E+01  0.000000000E+00  0.00000E+00  9.000E+00
      21     1     1     2   516   517  6.722703853E+00  5.762161334E+00  1.900158362E+01  2.096323998E+01  2.384185791E-07  0.00000E+00  9.000E+00
      21     1     1     2   511   512 -1.083723962E+01 -8.172346743E+00 -3.547212917E+00  1.402910309E+01  3.526258339E-07  0.00000E+00  9.000E+00
      -3     1     1     2     0   511  4.114535770E+00  2.410185409E+00 -1.784275497E+01  1.847572199E+01  5.000000000E-01  0.00000E+00  9.000E+00
</event>
<event>
      5  10001  2.40292E+09  2.28726E+01 -1.00000E+00  1.61660E-01
      21    -1     0     0   513   511  0.000000000E+00  0.000000000E+00  5.432853173E+02  5.432853173E+02  0.000000000E+00  0.00000E+00  9.000E+00
      21    -1     0     0   515   514  0.000000000E+00  0.000000000E+00 -7.838762469E+00  7.838762469E+00  0.000000000E+00  0.00000E+00  9.000E+00
      21     1     1     2   513   514  1.409473643E+01 -2.777874258E-01  5.267989323E+02  5.269875272E+02  7.629394531E-06  0.00000E+00  9.000E+00
      21     1     1     2   512   511 -6.420872595E+00  8.461174750E+00  7.183857466E+00  1.282290494E+01  3.953724850E-07  0.00000E+00  9.000E+00
      21     1     1     2   515   512 -7.673863837E+00 -8.183387325E+00  1.463765066E+00  1.131364762E+01  8.913336056E-07  0.00000E+00  9.000E+00
</event>
<event>
      5  10001  2.40292E+09  4.87519E+00 -1.00000E+00  2.44646E-01
       3    -1     0     0   515     0  0.000000000E+00  0.000000000E+00  8.845486097E+00  8.845486097E+00  0.000000000E+00  0.00000E+00  9.000E+00
       2    -1     0     0   512     0  0.000000000E+00  0.000000000E+00 -3.107716720E+02  3.107716720E+02  0.000000000E+00  0.00000E+00  9.000E+00
      21     1     1     2   512   511  1.082645795E+01 -1.979291120E-01 -2.325723504E+01  2.565444112E+01  8.920806376E-07  0.00000E+00  9.000E+00
       2     1     1     2   515     0 -1.245543104E+01  4.792724424E+00 -2.853582822E+02  2.856703801E+02  3.300000131E-01  0.00000E+00  9.000E+00
       3     1     1     2   511     0  1.628973088E+00 -4.594795312E+00  6.689331308E+00  8.292336861E+00  5.000000000E-01  0.00000E+00  9.000E+00
</event>
<event>
      5  10001  2.40292E+09  1.25040E+01 -1.00000E+00  1.85117E-01
       1    -1     0     0   511     0  0.000000000E+00  0.000000000E+00  1.176445584E+02  1.176445584E+02  0.000000000E+00  0.00000E+00  9.000E+00
      21    -1     0     0   513   512  0.000000000E+00  0.000000000E+00 -2.384097629E+01  2.384097629E+01  0.000000000E+00  0.00000E+00  9.000E+00
      21     1     1     2   511   514 -1.685269689E+01 -5.276525828E+00  1.821683694E+01  2.537140646E+01  2.384185791E-07  0.00000E+00  9.000E+00
       1     1     1     2   513     0  1.105885362E+01 -5.804016860E+00  9.346546563E+01  9.429680282E+01  3.300000131E-01  0.00000E+00  9.000E+00
      21     1     1     2   514   512  5.793843273E+00  1.108054269E+01 -1.787872042E+01  2.181732546E+01  4.129530925E-07  0.00000E+00  9.000E+00
</event>
<event>
      5  10001  2.40292E+09  2.38813E+01 -1.00000E+00  1.60216E-01
      21    -1     0     0   515   512  0.000000000E+00  0.000000000E+00  6.906268812E+00  6.906268812E+00  0.000000000E+00  0.00000E+00  9.000E+00
      21    -1     0     0   514   516  0.000000000E+00  0.000000000E+00 -4.908443747E+01  4.908443747E+01  0.000000000E+00  0.00000E+00  9.000E+00
      21     1     1     2   515   516 -9.396255037E+00 -1.595151899E+00 -3.719550134E+01  3.839712800E+01  4.768371582E-07  0.00000E+00  9.000E+00
      21     1     1     2   514   511  4.450134256E+00  1.809979459E+00 -9.656245240E+00  1.078530448E+01  1.685873940E-07  0.00000E+00  9.000E+00
      21     1     1     2   511   512  4.946120781E+00 -2.148275604E-01  4.673577923E+00  6.808273810E+00  8.429369702E-08  0.00000E+00  9.000E+00
</event>
<event>
      5  10001  2.40292E+09  1.14242E+01 -1.00000E+00  1.89247E-01
       1    -1     0     0   514     0  0.000000000E+00  0.000000000E+00  1.719381964E+01  1.719381964E+01  0.000000000E+00  0.00000E+00  9.000E+00
      21    -1     0     0   511   513  0.000000000E+00  0.000000000E+00 -1.075974462E+01  1.075974462E+01  0.000000000E+00  0.00000E+00  9.000E+00
      21     1     1     2   514   513  8.146943085E+00  7.454877824E+00 -2.297288348E+00  1.127942458E+01  2.346637211E-07  0.00000E+00  9.000E+00
      21     1     1     2   511   515 -5.645263812E+00  4.647949863E-01  2.100379182E+00  6.041244126E+00  1.115100797E-07  0.00000E+00  9.000E+00
       1     1     1     2   515     0 -2.501679273E+00 -7.919672810E+00  6.630984192E+00  1.063289556E+01  3.300000131E-01  0.00000E+00  9.000E+00
</event>
<event>
      5  10001  2.40292E+09  1.47731E+01 -1.00000E+00  1.77961E-01
      21    -1     0     0   512   511  0.000000000E+00  0.000000000E+00  1.126568034E+02  1.126568034E+02  0.000000000E+00  0.00000E+00  9.000E+00
      21    -1     0     0   517   516  0.000000000E+00  0.000000000E+00 -2.724052620E+01  2.724052620E+01  0.000000000E+00  0.00000E+00  9.000E+00
      21     1     1     2   512   516 -7.797114668E+00  6.804007936E+00  1.044251021E+02  1.049366070E+02  1.348699152E-06  0.00000E+00  9.000E+00
      21     1     1     2   517   513 -1.664092084E+00 -1.258977489E+01 -2.014384163E+01  2.381272748E+01  6.307962682E-07  0.00000E+00  9.000E+00
      21     1     1     2   513   511  9.461206751E+00  5.785766955E+00  1.135016656E+00  1.114799512E+01  1.365713982E-07  0.00000E+00  9.000E+00
</event>
<event>
      5  10001  2.40292E+09  6.79823E+00 -1.00000E+00  2.17292E-01
      21    -1     0     0   514   516  0.000000000E+00  0.000000000E+00  1.756759462E+00  1.756759462E+00  0.000000000E+00  0.00000E+00  9.000E+00
      21    -1     0     0   511   514  0.000000000E+00  0.000000000E+00 -6.211273970E+02  6.211273970E+02  0.000000000E+00  0.00000E+00  9.000E+00
      21     1     1     2   511   515  7.469967669E+00 -7.601754473E+00 -5.774959979E+02  5.775943340E+02  7.629394531E-06  0.00000E+00  9.000E+00
      21     1     1     2   515   512 -1.401553943E+00  6.335054087E+00 -5.851366468E+00  8.737033437E+00  6.078504936E-07  0.00000E+00  9.000E+00
      21     1     1     2   512   516 -6.068413726E+00  1.266700387E+00 -3.602327317E+01  3.655278902E+01  0.000000000E+00  0.00000E+00  9.000E+00
</event>
<event>
      5  10001  2.40292E+09  1.55495E+01 -1.00000E+00  1.75877E-01
      21    -1     0     0   512   513  0.000000000E+00  0.000000000E+00  3.289244480E-01  3.289244480E-01  0.000000000E+00  0.00000E+00  9.000E+00
       2    -1     0     0   515     0  0.000000000E+00  0.000000000E+00 -1.649726224E+03  1.649726224E+03  0.000000000E+00  0.00000E+00  9.000E+00
      21     1     1     2   515   513  1.288772379E+01 -1.215879887E+01 -3.012357506E+02  3.017563707E+02  3.814697266E-06  0.00000E+00  9.000E+00
      21     1     1     2   512   511 -3.600839372E+00  2.684916503E+00 -1.597377169E+02  1.598008543E+02  3.303624740E-06  0.00000E+00  9.000E+00
       2     1     1     2   511     0 -9.286884422E+00  9.473882367E+00 -1.188423832E+03  1.188497924E+03  3.300000131E-01  0.00000E+00  9.000E+00
</event>
<event>
      5  10001  2.40292E+09  6.35683E+00 -1.00000E+00  2.21569E-01
      21    -1     0     0   514   513  0.000000000E+00  0.000000000E+00  2.193857293E+02  2.193857293E+02  0.000000000E+00  0.00000E+00  9.000E+00
      21    -1     0     0   516   512  0.000000000E+00  0.000000000E+00 -1.386799181E+02  1.386799181E+02  0.000000000E+00  0.00000E+00  9.000E+00
      21     1     1     2   516   515  1.058204387E+01 -1.112995006E+01  6.251547919E+01  6.437422294E+01  6.743495762E-07  0.00000E+00  9.000E+00
      21     1     1     2   515   513 -1.400510488E+01  1.648644000E+01  1.551165864E+02  1.566176907E+02  1.907348633E-06  0.00000E+00  9.000E+00
      21     1     1     2   514   512  3.423061012E+00 -5.356489940E+00 -1.369262544E+02  1.370737337E+02  1.907348633E-06  0.00000E+00  9.000E+00
</event>
<event>
      5  10001  2.40292E+09  1.73454E+01 -1.00000E+00  1.71595E-01
      21    -1     0     0   511   512  0.000000000E+00  0.000000000E+00  7.779551777E+01  7.779551777E+01  0.000000000E+00  0.00000E+00  9.000E+00
      -1    -1     0     0     0   511  0.000000000E+00  0.000000000E+00 -2.045556131E+01  2.045556131E+01  0.000000000E+00  0.00000E+00  9.000E+00
      -1     1     1     2     0   513  9.362079512E+00  2.827832764E+00 -1.759127645E+01  2.012975604E+01  3.300000131E-01  0.00000E+00  9.000E+00
      21     1     1     2   515   512  2.935097188E-01 -9.522089580E+00  4.432969030E+01  4.534178845E+01  0.000000000E+00  0.00000E+00  9.000E+00
      21     1     1     2   513   515 -9.655589231E+00  6.694256817E+00  3.060154262E+01  3.277953460E+01  4.768371582E-07  0.00000E+00  9.000E+00
</event>
<event>
      5  10001  2.40292E+09  6.04755E+00 -1.00000E+00  2.24863E-01
      21    -1     0     0   514   515  0.000000000E+00  0.000000000E+00  6.948323167E+00  6.948323167E+00  0.000000000E+00  0.00000E+00  9.000E+00
      21    -1     0     0   513   516  0.000000000E+00  0.000000000E+00 -3.049743947E+02  3.049743947E+02  0.000000000E+00  0.00000E+00  9.000E+00
      21     1     1     2   514   516  1.380404574E+01 -4.880372438E+00 -2.859937686E+02  2.863683038E+02  3.814697266E-06  0.00000E+00  9.000E+00
      -2     1     1     2     0   515 -1.713947306E+01  2.485376432E+00 -6.166858401E+00  1.838688868E+01  3.300000131E-01  0.00000E+00  9.000E+00
       2     1     1     2   513     0  3.335427326E+00  2.394996006E+00 -5.865444526E+00  7.167525432E+00  3.300000131E-01  0.00000E+00  9.000E+00
</event>
<event>
      5  10001  2.40292E+09  8.32004E+00 -1.00000E+00  2.05403E-01
      21    -1     0     0   514   516  0.000000000E+00  0.000000000E+00  1.199468698E+02  1.199468698E+02  0.000000000E+00  0.00000E+00  9.000E+00
      21    -1     0     0   512   511  0.000000000E+00  0.000000000E+00 -9.010442265E+01  9.010442265E+01  0.000000000E+00  0.00000E+00  9.000E+00
      21     1     1     2   512   513  1.608707254E+01  8.808252303E+00 -8.764240560E+01  8.954088714E+01  1.907348633E-06  0.00000E+00  9.000E+00
      21     1     1     2   513   516 -8.841120054E+00 -4.719331758E+00  1.051819483E+02  1.056583160E+02  1.348699152E-06  0.00000E+00  9.000E+00
      21     1     1     2   514   511 -7.245952486E+00 -4.088920544E+00  1.230290446E+01  1.485208931E+01  1.685873940E-07  0.00000E+00  9.000E+00
</event>
<event>
      5  10001  2.40292E+09  4.71807E+00 -1.00000E+00  2.47549E-01
      21    -1     0     0   513   511  0.000000000E+00  0.000000000E+00  6.699663806E+02  6.699663806E+02  0.000000000E+00  0.00000E+00  9.000E+00
      21    -1     0     0   512   517  0.000000000E+00  0.000000000E+00 -3.772160504E+00  3.772160504E+00  0.000000000E+00  0.00000E+00  9.000E+00
      21     1     1     2   515   517 -5.210907387E-01  1.179354553E+01  6.714439943E+00  1.358097771E+01  1.884864366E-07  0.00000E+00  9.000E+00
      21     1     1     2   512   511  3.784452779E+00 -8.386100722E+00  6.388625124E+01  6.454534736E+01  1.348699152E-06  0.00000E+00  9.000E+00
      21     1     1     2   513   515 -3.263362040E+00 -3.407444808E+00  5.955935289E+02  5.956122161E+02  7.629394531E-06  0.00000E+00  9.000E+00
</event>
<event>
      5  10001  2.40292E+09  5.15139E+00 -1.00000E+00  2.36188E-01
      21    -1     0     0   514   512  0.000000000E+00  0.000000000E+00  3.020321726E+02  3.020321726E+02  0.000000000E+00  0.00000E+00  9.000E+00
      21    -1     0     0   516   514  0.000000000E+00  0.000000000E+00 -1.919942656E+01  1.919942656E+01  0.000000000E+00  0.00000E+00  9.000E+00
      21     1     1     2   516   515  6.666552881E+00  1.142668951E+01 -1.659697521E+01  2.122431970E+01  9.536743164E-07  0.00000E+00  9.000E+00
      21     1     1     2   515   511 -1.742021664E+00 -8.594298242E+00  2.622017841E+02  2.623483794E+02  5.394796609E-06  0.00000E+00  9.000E+00
      21     1     1     2   511   512 -4.924531217E+00 -2.832391263E+00  3.722793718E+01  3.765890007E+01  4.768371582E-07  0.00000E+00  9.000E+00
</event>
<event>
      5  10001  2.40292E+09  1.11410E+01 -1.00000E+00  1.90429E-01
      21    -1     0     0   513   515  0.000000000E+00  0.000000000E+00  6.724662170E+00  6.724662170E+00  0.000000000E+00  0.00000E+00  9.000E+00
      21    -1     0     0   512   513  0.000000000E+00  0.000000000E+00 -4.573748865E+01  4.573748865E+01  0.000000000E+00  0.00000E+00  9.000E+00
      21     1     1     2   512   516 -1.503870147E+01  3.327582166E+00 -2.323279103E+01  2.787468249E+01  0.000000000E+00  0.00000E+00  9.000E+00
      21     1     1     2   514   515  8.211183122E+00 -3.070250914E+00 -1.542967887E+01  1.774612518E+01  2.384185791E-07  0.00000E+00  9.000E+00
      21     1     1     2   516   514  6.827518351E+00 -2.573312514E-01 -3.503565723E-01  6.841343138E+00  2.250025998E-07  0.00000E+00  9.000E+00
</event>
<event>
      5  10001  2.40292E+09  5.04140E+00 -1.00000E+00  2.37805E-01
      21    -1     0     0   511   514  0.000000000E+00  0.000000000E+00  6.972381140E+01  6.972381140E+01  0.000000000E+00  0.00000E+00  9.000E+00
      21    -1     0     0   512   517  0.000000000E+00  0.000000000E+00 -7.703180915E+00  7.703180915E+00  0.000000000E+00  0.00000E+00  9.000E+00
      21     1     1     2   511   517 -9.280479803E+00  3.239312563E+00  6.374185495E+01  6.449530621E+01  9.536743164E-07  0.00000E+00  9.000E+00
      21     1     1     2   513   514  1.019811668E+01 -1.317940057E+00 -1.475021656E-01  1.028398302E+01  2.025064517E-07  0.00000E+00  9.000E+00
      21     1     1     2   512   513 -9.176368745E-01 -1.921372506E+00 -1.573722300E+00  2.647703084E+00  6.989264130E-08  0.00000E+00  9.000E+00
</event>
<event>
      5  10001  2.40292E+09  4.38091E+00 -1.00000E+00  2.54396E-01
      -1    -1     0     0     0   513  0.000000000E+00  0.000000000E+00  2.650978239E+02  2.650978239E+02  0.000000000E+00  0.00000E+00  9.000E+00
      -1    -1     0     0     0   511  0.000000000E+00  0.000000000E+00 -1.146743526E+01  1.146743526E+01  0.000000000E+00  0.00000E+00  9.000E+00
      -1     1     1     2     0   513 -7.957452544E+00  6.355993716E+00 -9.006682766E+00  1.359959343E+01  3.300000131E-01  0.00000E+00  9.000E+00
      -1     1     1     2     0   514  2.907743833E+00 -5.251719557E+00  2.074369852E+02  2.075240884E+02  3.300000131E-01  0.00000E+00  9.000E+00
      21     1     1     2   514   511  5.049708711E+00 -1.104274159E+00  5.520008611E+01  5.544157724E+01  9.536743164E-07  0.00000E+00  9.000E+00
</event>
<event>
      5  10001  2.40292E+09  6.38977E+00 -1.00000E+00  2.21233E-01
      21    -1     0     0   512   511  0.000000000E+00  0.000000000E+00  2.956860096E+00  2.956860096E+00  0.000000000E+00  0.00000E+00  9.000E+00
      21    -1     0     0   516   515  0.000000000E+00  0.000000000E+00 -3.492811109E+02  3.492811109E+02  0.000000000E+00  0.00000E+00  9.000E+00
      21     1     1     2   512   515  9.335012475E+00 -1.556893007E+00 -5.594489392E+00  1.099384761E+01  4.915124924E-07  0.00000E+00  9.000E+00
      21     1     1     2   513   511 -9.133751147E+00  7.943493761E+00 -1.960579581E+02  1.964312792E+02  3.814697266E-06  0.00000E+00  9.000E+00
      21     1     1     2   516   513 -2.012613285E-01 -6.386600754E+00 -1.446718033E+02  1.448128442E+02  2.697398305E-06  0.00000E+00  9.000E+00
</event>
<event>
      5  10001  2.40292E+09  4.61132E+00 -1.00000E+00  2.49621E-01
      21    -1     0     0   514   512  0.000000000E+00  0.000000000E+00  3.471050946E+01  3.471050946E+01  0.000000000E+00  0.00000E+00  9.000E+00
      21    -1     0     0   516   514  0.000000000E+00  0.000000000E+00 -7.999681738E+01  7.999681738E+01  0.000000000E+00  0.00000E+00  9.000E+00
      21     1     1     2   513   511 -1.372603867E+00  8.442842283E+00 -1.681723117E+00  8.717443423E+00  5.114377231E-07  0.00000E+00  9.000E+00
      21     1     1     2   516   513  4.403106521E+00 -1.191851214E+01 -7.408295995E+01  7.516464085E+01  2.132480600E-06  0.00000E+00  9.000E+00
      21     1     1     2   511   512 -3.030502653E+00  3.475669862E+00  3.047837515E+01  3.082524256E+01  0.000000000E+00  0.00000E+00  9.000E+00
</event>
<event>
      5  10001  2.40292E+09  7.52749E+00 -1.00000E+00  2.11120E-01
      21    -1     0     0   515   511  0.000000000E+00  0.000000000E+00  1.384589794E+02  1.384589794E+02  0.000000000E+00  0.00000E+00  9.000E+00
      21    -1     0     0   512   515  0.000000000E+00  0.000000000E+00 -4.335889374E+01  4.335889374E+01  0.000000000E+00  0.00000E+00  9.000E+00
      21     1     1     2   512   517 -9.675740116E+00  8.231903928E+00 -4.197548488E+01  4.385573531E+01  0.000000000E+00  0.00000E+00  9.000E+00
      21     1     1     2   513   511  6.464970023E+00 -9.255736324E+00  8.069841085E+01  8.148434209E+01  1.348699152E-06  0.00000E+00  9.000E+00
      21     1     1     2   517   513  3.210770093E+00  1.023832396E+00  5.637715967E+01  5.647779572E+01  6.743495762E-07  0.00000E+00  9.000E+00
</event>
<event>
      5  10001  2.40292E+09  5.93022E+00 -1.00000E+00  2.26185E-01
      21    -1     0     0   514   513  0.000000000E+00  0.000000000E+00  5.024219985E+02  5.024219985E+02  0.000000000E+00  0.00000E+00  9.000E+00
      21    -1     0     0   516   514  0.000000000E+00  0.000000000E+00 -2.090010014E+00  2.090010014E+00  0.000000000E+00  0.00000E+00  9.000E+00
      21     1     1     2   516   512 -6.687258668E+00 -9.759084479E+00  1.548033082E+01  1.948332109E+01  6.307962682E-07  0.00000E+00  9.000E+00
      21     1     1     2   512   511  5.823129436E+00  3.748456485E+00  2.274130997E+02  2.275185216E+02  3.814697266E-06  0.00000E+00  9.000E+00
      21     1     1     2   511   513  8.641292313E-01  6.010627994E+00  2.574385580E+02  2.575101658E+02  3.814697266E-06  0.00000E+00  9.000E+00
</event>
<event>
      5  10001  2.40292E+09  3.26073E+00 -1.00000E+00  2.86171E-01
       2    -1     0     0   514     0  0.000000000E+00  0.000000000E+00  1.113092167E+03  1.113092167E+03  0.000000000E+00  0.00000E+00  9.000E+00
      21    -1     0     0   515   514  0.000000000E+00  0.000000000E+00 -9.744523731E+01  9.744523731E+01  0.000000000E+00  0.00000E+00  9.000E+00
      21     1     1     2   512   511 -1.235329585E+01 -2.098302652E+00 -7.072903746E+00  1.438863300E+01  1.590450295E-06  0.00000E+00  9.000E+00
       2     1     1     2   511     0  1.409827473E+01 -6.562205200E-01  1.109358721E+03  1.109448545E+03  3.300000131E-01  0.00000E+00  9.000E+00
      21     1     1     2   515   512 -1.744978881E+00  2.754523172E+00 -8.663888800E+01  8.670022643E+01  2.523185073E-06  0.00000E+00  9.000E+00
</event>
<event>
      5  10001  2.40292E+09  7.07670E+00 -1.00000E+00  2.14816E-01
       1    -1     0     0   513     0  0.000000000E+00  0.000000000E+00  9.478674074E+01  9.478674074E+01  0.000000000E+00  0.00000E+00  9.000E+00
      21    -1     0     0   515   513  0.000000000E+00  0.000000000E+00 -4.090265664E+02  4.090265664E+02  0.000000000E+00  0.00000E+00  9.000E+00
      21     1     1     2   516   512  1.191341362E+01 -3.606927393E+01 -9.745282400E+00  3.921597220E+01  1.332800375E-06  0.00000E+00  9.000E+00
      21     1     1     2   515   516 -1.845089828E+01  3.877867218E+01 -3.831873602E+02  3.855862732E+02  1.078959322E-05  0.00000E+00  9.000E+00
       1     1     1     2   512     0  6.537484653E+00 -2.709398244E+00  7.869281692E+01  7.901106175E+01  3.300000131E-01  0.00000E+00  9.000E+00
</event>
<event>
      5  10001  2.40292E+09  6.22752E+00 -1.00000E+00  2.22914E-01
      21    -1     0     0   511   516  0.000000000E+00  0.000000000E+00  2.502234803E+02  2.502234803E+02  0.000000000E+00  0.00000E+00  9.000E+00
      21    -1     0     0   514   511  0.000000000E+00  0.000000000E+00 -4.250760056E+01  4.250760056E+01  0.000000000E+00  0.00000E+00  9.000E+00
      21     1     1     2   515   516  1.292126549E-01  1.099097208E+01  2.477794741E+02  2.480231561E+02  0.000000000E+00  0.00000E+00  9.000E+00
      21     1     1     2   513   515  2.896360748E-01 -4.416651166E+00 -3.730393040E+01  3.756559489E+01  8.259061849E-07  0.00000E+00  9.000E+00
      21     1     1     2   514   513 -4.188487297E-01 -6.574320918E+00 -2.759664027E+00  7.142329825E+00  8.940696716E-08  0.00000E+00  9.000E+00
</event>
<event>
      5  10001  2.40292E+09  2.43768E+01 -1.00000E+00  1.59538E-01
      21    -1     0     0   512   514  0.000000000E+00  0.000000000E+00  1.180512281E+01  1.180512281E+01  0.000000000E+00  0.00000E+00  9.000E+00
      -2    -1     0     0     0   512  0.000000000E+00  0.000000000E+00 -1.492684022E+02  1.492684022E+02  0.000000000E+00  0.00000E+00  9.000E+00
      -2     1     1     2     0   511  1.095124904E+01  1.595052202E+01 -1.118801627E+02  1.135413084E+02  3.300000131E-01  0.00000E+00  9.000E+00
       3     1     1     2   511     0  1.341409363E+00 -2.429121190E+01 -1.098222121E+01  2.669684508E+01  5.000000000E-01  0.00000E+00  9.000E+00
      -3     1     1     2     0   514 -1.229265840E+01  8.340689876E+00 -1.460089550E+01  2.083537155E+01  5.000000000E-01  0.00000E+00  9.000E+00
</event>
<event>
      5  10001  2.40292E+09  4.59383E+00 -1.00000E+00  2.49968E-01
       2    -1     0     0   511     0  0.000000000E+00  0.000000000E+00  7.202724916E+02  7.202724916E+02  0.000000000E+00  0.00000E+00  9.000E+00
      21    -1     0     0   513   512  0.000000000E+00  0.000000000E+00 -3.018527976E-01  3.018527976E-01  0.000000000E+00  0.00000E+00  9.000E+00
      21     1     1     2   511   512  1.107599756E+01  1.353721771E-01  1.527123010E+02  1.531134968E+02  0.000000000E+00  0.00000E+00  9.000E+00
       2     1     1     2   515     0 -1.140681280E+01  2.465866255E+00  5.190194097E+02  5.191507030E+02  3.300000131E-01  0.00000E+00  9.000E+00
      21     1     1     2   513   515  3.308152328E-01 -2.601238432E+00  4.823892807E+01  4.831014450E+01  0.000000000E+00  0.00000E+00  9.000E+00
</event>
<event>
      5  10001  2.40292E+09  7.49106E+00 -1.00000E+00  2.11406E-01
       1    -1     0     0   511     0  0.000000000E+00  0.000000000E+00  3.180251256E+01  3.180251256E+01  0.000000000E+00  0.00000E+00  9.000E+00
      -2    -1     0     0     0   511  0.000000000E+00  0.000000000E+00 -1.389220593E+02  1.389220593E+02  0.000000000E+00  0.00000E+00  9.000E+00
      -2     1     1     2     0   513  1.450110131E+01  3.601681449E+00 -1.347622806E+02  1.355884774E+02  3.300000131E-01  0.00000E+00  9.000E+00
       1     1     1     2   512     0 -6.240373131E+00 -3.015165916E+00  2.571301595E+01  2.663271619E+01  3.300000131E-01  0.00000E+00  9.000E+00
      21     1     1     2   513   512 -8.260728180E+00 -5.865155328E-01  1.929717869E+00  8.503378246E+00  1.548574097E-07  0.00000E+00  9.000E+00
</event>
<event>
      5  10001  2.40292E+09  8.05932E+00 -1.00000E+00  2.07186E-01
      21    -1     0     0   514   512  0.000000000E+00  0.000000000E+00  6.203127362E+01  6.203127362E+01  0.000000000E+00  0.00000E+00  9.000E+00
      21    -1     0     0   513   515  0.000000000E+00  0.000000000E+00 -3.130809500E+00  3.130809500E+00  0.000000000E+00  0.00000E+00  9.000E+00
      21     1     1     2   514   515 -5.695143734E+00  7.613853880E+00  4.571160181E+01  4.668999864E+01  9.536743164E-07  0.00000E+00  9.000E+00
      21     1     1     2   511   512  7.683244758E-01 -7.616439160E+00  1.003806965E+01  1.262391819E+01  2.064765462E-07  0.00000E+00  9.000E+00
      21     1     1     2   513   511  4.926819258E+00  2.585279468E-03  3.150792664E+00  5.848166302E+00  8.429369702E-08  0.00000E+00  9.000E+00
</event>
<event>
      5  10001  2.40292E+09  9.59102E+00 -1.00000E+00  1.97817E-01
      21    -1     0     0   516   511  0.000000000E+00  0.000000000E+00  4.069484688E+02  4.069484688E+02  0.000000000E+00  0.00000E+00  9.000E+00
      21    -1     0     0   513   516  0.000000000E+00  0.000000000E+00 -8.636170448E-01  8.636170448E-01  0.000000000E+00  0.00000E+00  9.000E+00
      21     1     1     2   513   517  1.196356675E+00 -1.097354744E+01  4.402772424E+01  4.539042316E+01  9.536743164E-07  0.00000E+00  9.000E+00
      -5     1     1     2     0   511  1.040888811E+00  3.035091743E+00  8.254033168E+01  8.274201826E+01  4.800000191E+00  0.00000E+00  9.000E+00
       5     1     1     2   517     0 -2.237245486E+00  7.938455699E+00  2.795167958E+02  2.796796444E+02  4.800000191E+00  0.00000E+00  9.000E+00
</event>
<event>
      5  10001  2.40292E+09  2.82511E+01 -1.00000E+00  1.54838E-01
      -2    -1     0     0     0   512  0.000000000E+00  0.000000000E+00  2.415281775E+02  2.415281775E+02  0.000000000E+00  0.00000E+00  9.000E+00
      21    -1     0     0   511   514  0.000000000E+00  0.000000000E+00 -8.576370484E-01  8.576370484E-01  0.000000000E+00  0.00000E+00  9.000E+00
      21     1     1     2   513   514  1.702638118E+00  3.785784665E-01  1.921072126E-01  1.754765910E+00  2.007513282E-07  0.00000E+00  9.000E+00
      21     1     1     2   511   512  6.549431571E-01  1.044791829E+00  5.512031275E+00  5.648276665E+00  5.960464478E-08  0.00000E+00  9.000E+00
      -2     1     1     2     0   513 -2.357581276E+00 -1.423370296E+00  2.349664020E+02  2.349827720E+02  3.300000131E-01  0.00000E+00  9.000E+00
</event>
<event>
      5  10001  2.40292E+09  1.88356E+01 -1.00000E+00  1.68505E-01
      21    -1     0     0   515   511  0.000000000E+00  0.000000000E+00  3.533186260E+00  3.533186260E+00  0.000000000E+00  0.00000E+00  9.000E+00
      21    -1     0     0   516   513  0.000000000E+00  0.000000000E+00 -1.397729190E+02  1.397729190E+02  0.000000000E+00  0.00000E+00  9.000E+00
      21     1     1     2   515   513  1.147374285E+01 -1.252753045E+01 -9.173389701E+01  9.329358850E+01  0.000000000E+00  0.00000E+00  9.000E+00
      21     1     1     2   512   511 -3.282577688E+00  8.967740353E+00 -3.739830728E+01  3.859830399E+01  6.743495762E-07  0.00000E+00  9.000E+00
      21     1     1     2   516   512 -8.191165163E+00  3.559790098E+00 -7.107528411E+00  1.141421274E+01  2.665600750E-07  0.00000E+00  9.000E+00
</event>
<event>
      5  10001  2.40292E+09  9.00882E+00 -1.00000E+00  2.01086E-01
      21    -1     0     0   514   511  0.000000000E+00  0.000000000E+00  2.812291726E+01  2.812291726E+01  0.000000000E+00  0.00000E+00  9.000E+00
      21    -1     0     0   516   514  0.000000000E+00  0.000000000E+00 -1.843164509E+01  1.843164509E+01  0.000000000E+00  0.00000E+00  9.000E+00
      21     1     1     2   512   511  9.004657874E+00 -5.351313710E+00  2.445917528E+01  2.660773717E+01  0.000000000E+00  0.00000E+00  9.000E+00
      21     1     1     2   513   512 -2.586959098E+00  6.313643326E+00 -6.376298926E+00  9.338717118E+00  1.192092896E-07  0.00000E+00  9.000E+00
      21     1     1     2   516   513 -6.417698776E+00 -9.623296154E-01 -8.391604185E+00  1.060810806E+01  1.685873940E-07  0.00000E+00  9.000E+00
</event>
<event>
      5  10001  2.40292E+09  5.74191E+00 -1.00000E+00  2.28398E-01
      21    -1     0     0   515   512  0.000000000E+00  0.000000000E+00  7.307882500E+01  7.307882500E+01  0.000000000E+00  0.00000E+00  9.000E+00
      21    -1     0     0   511   517  0.000000000E+00  0.000000000E+00 -5.834414303E+01  5.834414303E+01  0.000000000E+00  0.00000E+00  9.000E+00
      21     1     1     2   515   517  5.174158670E+00  1.090392201E+01 -1.281293308E+01  1.760223529E+01  0.000000000E+00  0.00000E+00  9.000E+00
      21     1     1     2   511   513 -1.087525573E+01 -1.022052571E+01 -4.172336625E+01  4.431218370E+01  6.743495762E-07  0.00000E+00  9.000E+00
      21     1     1     2   513   512  5.701097064E+00 -6.833962933E-01  6.927098130E+01  6.950854903E+01  9.536743164E-07  0.00000E+00  9.000E+00
</event>
<event>
      5  10001  2.40292E+09  1.14916E+01 -1.00000E+00  1.88972E-01
      21    -1     0     0   514   511  0.000000000E+00  0.000000000E+00  4.958828186E+00  4.958828186E+00  0.000000000E+00  0.00000E+00  9.000E+00
      21    -1     0     0   516   512  0.000000000E+00  0.000000000E+00 -2.028879916E+02  2.028879916E+02  0.000000000E+00  0.00000E+00  9.000E+00
      21     1     1     2   514   512  6.957593497E+00 -7.213236303E+00 -5.779390287E-01  1.003857055E+01  3.983796950E-07  0.00000E+00  9.000E+00
      21     1     1     2   516   515 -6.653448851E+00  3.436868262E+00 -6.976226379E+01  7.016305220E+01  9.536743164E-07  0.00000E+00  9.000E+00
      21     1     1     2   515   511 -3.041446456E-01  3.776368041E+00 -1.275889606E+02  1.276451970E+02  1.907348633E-06  0.00000E+00  9.000E+00
</event>
<event>
      5  10001 -2.40292E+09  3.23520E+01 -1.00000E+00  1.50763E-01
      21    -1     0     0   513   512  0.000000000E+00  0.000000000E+00  1.105472143E+03  1.105472143E+03  0.000000000E+00  0.00000E+00  9.000E+00
      21    -1     0     0   517   511  0.000000000E+00  0.000000000E+00 -2.371632418E+01  2.371632418E+01  0.000000000E+00  0.00000E+00  9.000E+00
      21     1     1     2   513   511  3.479435011E+00 -1.080690631E+01  1.078839003E+03  1.078898739E+03  2.157918644E-05  0.00000E+00  9.000E+00
      21     1     1     2   517   514  1.319650862E+01  2.356881417E+01 -5.674368653E+00  2.760136411E+01  1.621421636E-06  0.00000E+00  9.000E+00
      21     1     1     2   514   512 -1.667594363E+01 -1.276190786E+01  8.591184371E+00  2.268836348E+01  3.153981341E-07  0.00000E+00  9.000E+00
</event>
<event>
      5  10001  2.40292E+09  5.47332E+00 -1.00000E+00  2.31769E-01
      21    -1     0     0   515   511  0.000000000E+00  0.000000000E+00  1.315650154E+02  1.315650154E+02  0.000000000E+00  0.00000E+00  9.000E+00
      21    -1     0     0   512   515  0.000000000E+00  0.000000000E+00 -2.218930047E+02  2.218930047E+02  0.000000000E+00  0.00000E+00  9.000E+00
      21     1     1     2   516   514 -5.490270236E+00  1.154080095E+01  4.288105536E+01  4.474503395E+01  2.023048729E-06  0.00000E+00  9.000E+00
      21     1     1     2   512   516  8.095108060E+00 -6.727068828E+00 -2.207501550E+02  2.210009392E+02  2.697398305E-06  0.00000E+00  9.000E+00
      21     1     1     2   514   511 -2.604837824E+00 -4.813732126E+00  8.754111027E+01  8.771204698E+01  0.000000000E+00  0.00000E+00  9.000E+00
</event>
<event>
      5  10001  2.40292E+09  1.09140E+01 -1.00000E+00  1.91411E-01
      21    -1     0     0   513   511  0.000000000E+00  0.000000000E+00  4.168616607E-01  4.168616607E-01  0.000000000E+00  0.00000E+00  9.000E+00
       2    -1     0     0   512     0  0.000000000E+00  0.000000000E+00 -5.456575178E+02  5.456575178E+02  0.000000000E+00  0.00000E+00  9.000E+00
      21     1     1     2   515   511 -1.235320549E+00  7.514561830E+00 -4.522343353E+01  4.586015261E+01  1.261592536E-06  0.00000E+00  9.000E+00
       2     1     1     2   513     0  6.323608568E+00 -5.942574101E+00 -3.250075887E+02  3.251235824E+02  3.300000131E-01  0.00000E+00  9.000E+00
      21     1     1     2   512   515 -5.088288020E+00 -1.571987729E+00 -1.750096339E+02  1.750906444E+02  3.303624740E-06  0.00000E+00  9.000E+00
</event>
<event>
      5  10001  2.40292E+09  3.24410E+01 -1.00000E+00  1.50683E-01
       2    -1     0     0   512     0  0.000000000E+00  0.000000000E+00  9.185876598E+02  9.185876598E+02  0.000000000E+00  0.00000E+00  9.000E+00
      21    -1     0     0   514   513  0.000000000E+00  0.000000000E+00 -1.184734488E+00  1.184734488E+00  0.000000000E+00  0.00000E+00  9.000E+00
      21     1     1     2   512   513 -8.497340133E+00  1.327854117E+00  1.949974499E+01  2.131215710E+01  8.596304120E-07  0.00000E+00  9.000E+00
      21     1     1     2   514   511  7.312661656E+00 -1.510242438E+01  3.765643572E+02  3.769380232E+02  0.000000000E+00  0.00000E+00  9.000E+00
       2     1     1     2   511     0  1.184678477E+00  1.377457027E+01  5.213388232E+02  5.215222140E+02  3.300000131E-01  0.00000E+00  9.000E+00
</event>
<event>
      5  10001  2.40292E+09  1.13784E+01 -1.00000E+00  1.89435E-01
      21    -1     0     0   515   512  0.000000000E+00  0.000000000E+00  1.496227641E+02  1.496227641E+02  0.000000000E+00  0.00000E+00  9.000E+00
      21    -1     0     0   517   516  0.000000000E+00  0.000000000E+00 -1.239943197E+01  1.239943197E+01  0.000000000E+00  0.00000E+00  9.000E+00
      21     1     1     2   515   516 -1.938788552E+01  7.539298595E+00  3.287949633E+01  3.890748523E+01  0.000000000E+00  0.00000E+00  9.000E+00
      21     1     1     2   517   513  8.192018063E+00 -5.509327551E+00 -6.414675951E+00  1.177327132E+01  3.264680848E-07  0.00000E+00  9.000E+00
      21     1     1     2   513   512  1.119586745E+01 -2.029971045E+00  1.107585118E+02  1.113414395E+02  0.000000000E+00  0.00000E+00  9.000E+00
</event>
<event>
      5  10001  2.40292E+09  4.55026E+00 -1.00000E+00  2.50844E-01
      21    -1     0     0   511   515  0.000000000E+00  0.000000000E+00  7.077934767E+01  7.077934767E+01  0.000000000E+00  0.00000E+00  9.000E+00
      21    -1     0     0   512   511  0.000000000E+00  0.000000000E+00 -2.076235343E+01  2.076235343E+01  0.000000000E+00  0.00000E+00  9.000E+00
      21     1     1     2   512   514 -1.311362057E+01 -1.086640460E+01 -1.544326362E+01  2.299000184E+01  6.307962682E-07  0.00000E+00  9.000E+00
      21     1     1     2   514   516  9.417733277E+00  8.212110295E+00  6.067551479E+01  6.194877360E+01  9.536743164E-07  0.00000E+00  9.000E+00
      21     1     1     2   516   515  3.695887295E+00  2.654294307E+00  4.784743066E+00  6.602925668E+00  8.429369702E-08  0.00000E+00  9.000E+00
</event>
<event>
      5  10001  2.40292E+09  7.99827E+00 -1.00000E+00  2.07617E-01
      21    -1     0     0   511   514  0.000000000E+00  0.000000000E+00  7.526168541E+01  7.526168541E+01  0.000000000E+00  0.00000E+00  9.000E+00
      21    -1     0     0   515   513  0.000000000E+00  0.000000000E+00 -6.916545004E+01  6.916545004E+01  0.000000000E+00  0.00000E+00  9.000E+00
      21     1     1     2   515   512 -1.377643704E+01 -9.993627315E+00 -6.663433918E+01  6.877352661E+01  1.348699152E-06  0.00000E+00  9.000E+00
      21     1     1     2   512   514  6.010310207E+00  8.080637528E+00  5.822091193E+01  5.908548991E+01  6.743495762E-07  0.00000E+00  9.000E+00
      21     1     1     2   511   513  7.766126829E+00  1.912989787E+00  1.450966262E+01  1.656811894E+01  3.371747881E-07  0.00000E+00  9.000E+00
</event>
<event>
      5  10001  2.40292E+09  4.76565E+00 -1.00000E+00  2.46653E-01
      21    -1     0     0   514   512  0.000000000E+00  0.000000000E+00  4.605790685E+01  4.605790685E+01  0.000000000E+00  0.00000E+00  9.000E+00
      21    -1     0     0   515   517  0.000000000E+00  0.000000000E+00 -6.230671121E+01  6.230671121E+01  0.000000000E+00  0.00000E+00  9.000E+00
      21     1     1     2   516   517 -1.485602238E+00  1.218119833E+01 -5.985816877E+01  6.110310119E+01  1.168007728E-06  0.00000E+00  9.000E+00
      21     1     1     2   515   512 -3.129030601E+00 -1.099099610E+01  1.881700051E+01  2.201527506E+01  7.907449699E-07  0.00000E+00  9.000E+00
      21     1     1     2   514   516  4.614632839E+00 -1.190202233E+00  2.479236391E+01  2.524624181E+01  0.000000000E+00  0.00000E+00  9.000E+00
</event>
<event>
      5  10001  2.40292E+09  1.19907E+01 -1.00000E+00  1.87010E-01
      21    -1     0     0   511   515  0.000000000E+00  0.000000000E+00  4.470494663E+01  4.470494663E+01  0.000000000E+00  0.00000E+00  9.000E+00
       1    -1     0     0   516     0  0.000000000E+00  0.000000000E+00 -4.291165282E+02  4.291165282E+02  0.000000000E+00  0.00000E+00  9.000E+00
      21     1     1     2   511   513  2.506347135E+01  2.717584933E+00  3.697471703E+01  4.475145319E+01  8.259061849E-07  0.00000E+00  9.000E+00
      21     1     1     2   516   515 -1.429585392E+01 -7.993528886E+00 -1.411402083E+01  2.162113613E+01  3.371747881E-07  0.00000E+00  9.000E+00
       1     1     1     2   513     0 -1.076761742E+01  5.275943953E+00 -4.072722778E+02  4.074488855E+02  3.300000131E-01  0.00000E+00  9.000E+00
</event>
<event>
      5  10001  2.40292E+09  9.53116E+00 -1.00000E+00  1.98139E-01
      21    -1     0     0   511   513  0.000000000E+00  0.000000000E+00  2.353116636E+02  2.353116636E+02  0.000000000E+00  0.00000E+00  9.000E+00
      21    -1     0     0   514   512  0.000000000E+00  0.000000000E+00 -2.310268855E+01  2.310268855E+01  0.000000000E+00  0.00000E+00  9.000E+00
      21     1     1     2   514   517  1.973489125E+01 -4.092550378E+00 -1.694146584E+01  2.632922646E+01  2.384185791E-07  0.00000E+00  9.000E+00
      21     1     1     2   517   513 -1.091437409E+01  4.812536203E-01  2.060604878E+01  2.332304468E+01  2.384185791E-07  0.00000E+00  9.000E+00
      21     1     1     2   511   512 -8.820517164E+00  3.611296758E+00  2.085443921E+02  2.087620810E+02  0.000000000E+00  0.00000E+00  9.000E+00
</event>
<event>
      5  10001  2.40292E+09  7.49080E+00 -1.00000E+00  2.11408E-01
      21    -1     0     0   515   513  0.000000000E+00  0.000000000E+00  2.830642485E+01  2.830642485E+01  0.000000000E+00  0.00000E+00  9.000E+00
      21    -1     0     0   516   514  0.000000000E+00  0.000000000E+00 -2.851272338E+02  2.851272338E+02  0.000000000E+00  0.00000E+00  9.000E+00
      21     1     1     2   512   513 -2.500003238E+00  1.434241313E+01  2.341183261E+01  2.756934415E+01  4.768371582E-07  0.00000E+00  9.000E+00
      21     1     1     2   516   512  2.056203617E+00 -6.864772741E+00 -1.876931024E+00  7.407830193E+00  2.904771073E-07  0.00000E+00  9.000E+00
      21     1     1     2   515   514  4.437996214E-01 -7.477640393E+00 -2.783557106E+02  2.784564843E+02  3.814697266E-06  0.00000E+00  9.000E+00
</event>
<event>
      5  10001  2.40292E+09  2.11647E+01 -1.00000E+00  1.64325E-01
      21    -1     0     0   511   514  0.000000000E+00  0.000000000E+00  4.072926428E-01  4.072926428E-01  0.000000000E+00  0.00000E+00  9.000E+00
      21    -1     0     0   513   517  0.000000000E+00  0.000000000E+00 -3.204571411E+02  3.204571411E+02  0.000000000E+00  0.00000E+00  9.000E+00
      21     1     1     2   511   517 -1.601882477E+00  3.873041065E-01 -3.240996193E+01  3.245183607E+01  4.768371582E-07  0.00000E+00  9.000E+00
      21     1     1     2   513   512  2.460973074E+00 -3.963971213E+00 -2.787855632E+02  2.788246038E+02  0.000000000E+00  0.00000E+00  9.000E+00
      21     1     1     2   512   514 -8.590905969E-01  3.576667106E+00 -8.854323335E+00  9.587993844E+00  6.951036328E-07  0.00000E+00  9.000E+00
</event>
<event>
      5  10001  2.40292E+09  6.88586E+00 -1.00000E+00  2.16496E-01
      21    -1     0     0   515   512  0.000000000E+00  0.000000000E+00  1.446252891E+01  1.446252891E+01  0.000000000E+00  0.00000E+00  9.000E+00
       2    -1     0     0   514     0  0.000000000E+00  0.000000000E+00 -1.332385648E+02  1.332385648E+02  0.000000000E+00  0.00000E+00  9.000E+00
      21     1     1     2   513   512  1.057441811E+01  1.064751681E+01  9.126326217E+00  1.756353503E+01  3.769728732E-07  0.00000E+00  9.000E+00
      21     1     1     2   514   513 -3.951349604E+00 -8.763791071E+00 -2.197091322E+01  2.398203964E+01  4.129530925E-07  0.00000E+00  9.000E+00
       2     1     1     2   515     0 -6.623068509E+00 -1.883725739E+00 -1.059314489E+02  1.061555191E+02  3.300000131E-01  0.00000E+00  9.000E+00
</event>
<event>
      5  10001  2.40292E+09  2.32747E+00 -1.00000E+00  3.34715E-01
      21    -1     0     0   511   513  0.000000000E+00  0.000000000E+00  4.518289889E+01  4.518289889E+01  0.000000000E+00  0.00000E+00  9.000E+00
      21    -1     0     0   512   516  0.000000000E+00  0.000000000E+00 -4.193106018E+01  4.193106018E+01  0.000000000E+00  0.00000E+00  9.000E+00
      21     1     1     2   511   516  7.766781173E+00  7.805217490E+00 -3.289809449E+01  3.469191449E+01  4.768371582E-07  0.00000E+00  9.000E+00
      21     1     1     2   512   514 -8.893675195E+00 -5.768740139E+00 -4.635720078E+00  1.157003552E+01  1.192092896E-07  0.00000E+00  9.000E+00
      21     1     1     2   514   513  1.126894022E+00 -2.036477351E+00  4.078565329E+01  4.085200906E+01  8.259061849E-07  0.00000E+00  9.000E+00
</event>
<event>
      5  10001  2.40292E+09  7.14367E+00 -1.00000E+00  2.14244E-01
      21    -1     0     0   515   512  0.000000000E+00  0.000000000E+00  3.873614547E+00  3.873614547E+00  0.000000000E+00  0.00000E+00  9.000E+00
      21    -1     0     0   513   515  0.000000000E+00  0.000000000E+00 -4.119149848E+01  4.119149848E+01  0.000000000E+00  0.00000E+00  9.000E+00
      21     1     1     2   513   517 -2.261734912E+00  7.855656772E+00 -2.469013969E+01  2.600826380E+01  0.000000000E+00  0.00000E+00  9.000E+00
      21     1     1     2   511   512 -1.665647989E+00 -8.935876782E+00 -4.912342593E+00  1.033224984E+01  3.816559456E-07  0.00000E+00  9.000E+00
      21     1     1     2   517   511  3.927382901E+00  1.080220011E+00 -7.715401656E+00  8.724599386E+00  8.429369702E-08  0.00000E+00  9.000E+00
</event>
<event>
      5  10001  2.40292E+09  1.13319E+01 -1.00000E+00  1.89628E-01
      21    -1     0     0   514   512  0.000000000E+00  0.000000000E+00  1.460952678E+00  1.460952678E+00  0.000000000E+00  0.00000E+00  9.000E+00
      21    -1     0     0   516   514  0.000000000E+00  0.000000000E+00 -7.868149016E+01  7.868149016E+01  0.000000000E+00  0.00000E+00  9.000E+00
      21     1     1     2   511   512  6.855014262E+00 -2.076422601E+00 -2.742191736E+01  2.834191778E+01  3.371747881E-07  0.00000E+00  9.000E+00
      21     1     1     2   513   511 -5.644824968E+00 -1.043288899E+00 -4.724181388E+01  4.758930005E+01  6.743495762E-07  0.00000E+00  9.000E+00
      21     1     1     2   516   513 -1.210189293E+00  3.119711500E+00 -2.556806242E+00  4.211225015E+00  9.424321831E-08  0.00000E+00  9.000E+00
</event>
<event>
      5  10001  2.40292E+09  5.88397E+00 -1.00000E+00  2.26718E-01
      21    -1     0     0   515   511  0.000000000E+00  0.000000000E+00  1.029349039E+01  1.029349039E+01  0.000000000E+00  0.00000E+00  9.000E+00
      21    -1     0     0   516   515  0.000000000E+00  0.000000000E+00 -1.926616174E+01  1.926616174E+01  0.000000000E+00  0.00000E+00  9.000E+00
      21     1     1     2   513   511 -4.911053202E+00  7.073748721E+00  5.092200026E+00  1.000434234E+01  2.149076030E-07  0.00000E+00  9.000E+00
       4     1     1     2   516     0  3.174001510E+00 -4.060036588E+00 -1.475852468E+01  1.570421069E+01  1.500000000E+00  0.00000E+00  9.000E+00
      -4     1     1     2     0   513  1.737051692E+00 -3.013712134E+00  6.936532984E-01  3.851099103E+00  1.500000000E+00  0.00000E+00  9.000E+00
</event>
<event>
      5  10001  2.40292E+09  6.13614E+00 -1.00000E+00  2.23892E-01
       2    -1     0     0   515     0  0.000000000E+00  0.000000000E+00  1.194709665E+02  1.194709665E+02  0.000000000E+00  0.00000E+00  9.000E+00
      21    -1     0     0   512   514  0.000000000E+00  0.000000000E+00 -1.049183081E+01  1.049183081E+01  0.000000000E+00  0.00000E+00  9.000E+00
      21     1     1     2   511   514 -7.761697572E+00 -6.880899500E+00 -6.937316745E+00  1.247866542E+01  4.768371582E-07  0.00000E+00  9.000E+00
       2     1     1     2   512     0  8.788778089E+00  1.040758296E+01  1.066382605E+02  1.075052925E+02  3.300000131E-01  0.00000E+00  9.000E+00
      21     1     1     2   515   511 -1.027080517E+00 -3.526683465E+00  9.278191939E+00  9.978839427E+00  1.192092896E-07  0.00000E+00  9.000E+00
</event>
<event>
      5  10001  2.40292E+09  6.09266E+00 -1.00000E+00  2.24365E-01
      -2    -1     0     0     0   511  0.000000000E+00  0.000000000E+00  3.205132342E+01  3.205132342E+01  0.000000000E+00  0.00000E+00  9.000E+00
      21    -1     0     0   513   515  0.000000000E+00  0.000000000E+00 -6.459948545E+01  6.459948545E+01  0.000000000E+00  0.00000E+00  9.000E+00
      -2     1     1     2     0   515  6.327379876E+00 -8.879565595E+00  3.046120053E+01  3.235546413E+01  3.300000131E-01  0.00000E+00  9.000E+00
      21     1     1     2   513   512 -4.965031932E-01  3.528984505E+00 -3.525839892E+01  3.543804370E+01  4.768371582E-07  0.00000E+00  9.000E+00
      21     1     1     2   512   511 -5.830876683E+00  5.350581090E+00 -2.775096364E+01  2.885730105E+01  4.768371582E-07  0.00000E+00  9.000E+00
</event>
<event>
      5  10001  2.40292E+09  7.03705E+00 -1.00000E+00  2.15159E-01
       3    -1     0     0   515     0  0.000000000E+00  0.000000000E+00  1.910336556E+00  1.910336556E+00  0.000000000E+00  0.00000E+00  9.000E+00
      21    -1     0     0   514   515  0.000000000E+00  0.000000000E+00 -4.890661806E+02  4.890661806E+02  0.000000000E+00  0.00000E+00  9.000E+00
      21     1     1     2   514   513  9.049852119E+00 -3.531683797E+00 -3.171115002E+02  3.172602657E+02  5.394796609E-06  0.00000E+00  9.000E+00
       3     1     1     2   512     0 -9.945916456E+00 -7.859557177E-01 -1.201447182E+01  1.562486844E+01  5.000000000E-01  0.00000E+00  9.000E+00
      21     1     1     2   513   512  8.960643369E-01  4.317639514E+00 -1.580298720E+02  1.580913830E+02  3.814697266E-06  0.00000E+00  9.000E+00
</event>
<event>
      5  10001  2.40292E+09  2.14120E+01 -1.00000E+00  1.63921E-01
      21    -1     0     0   511   512  0.000000000E+00  0.000000000E+00  2.980083634E+01  2.980083634E+01  0.000000000E+00  0.00000E+00  9.000E+00
      21    -1     0     0   513   516  0.000000000E+00  0.000000000E+00 -8.142901048E+00  8.142901048E+00  0.000000000E+00  0.00000E+00  9.000E+00
      21     1     1     2   511   516  1.147054086E+01 -2.067552291E-02  2.150605274E+00  1.167042579E+01  2.169641819E-07  0.00000E+00  9.000E+00
      21     1     1     2   514   512 -1.756843256E+00  4.106909510E+00  4.411554648E-01  4.488632542E+00  1.140936675E-07  0.00000E+00  9.000E+00
      21     1     1     2   513   514 -9.713697605E+00 -4.086233988E+00  1.906617455E+01  2.178467905E+01  4.129530925E-07  0.00000E+00  9.000E+00
</event>
<event>
      5  10001  2.40292E+09  8.69376E+00 -1.00000E+00  2.02995E-01
      21    -1     0     0   511   512  0.000000000E+00  0.000000000E+00  9.739990581E+01  9.739990581E+01  0.000000000E+00  0.00000E+00  9.000E+00
      21    -1     0     0   513   515  0.000000000E+00  0.000000000E+00 -5.633718675E+01  5.633718675E+01  0.000000000E+00  0.00000E+00  9.000E+00
      21     1     1     2   514   512  1.299224589E+01  1.338462148E+01 -1.157829713E+01  2.195457834E+01  6.529361695E-07  0.00000E+00  9.000E+00
      21     1     1     2   513   514 -8.864586982E+00 -2.103601931E+01 -3.604825567E+01  4.266815848E+01  4.768371582E-07  0.00000E+00  9.000E+00
      21     1     1     2   511   515 -4.127658909E+00  7.651397831E+00  8.868927187E+01  8.911435575E+01  1.348699152E-06  0.00000E+00  9.000E+00
</event>
<event>
      5  10001  2.40292E+09  9.69394E+00 -1.00000E+00  1.97271E-01
      21    -1     0     0   516   513  0.000000000E+00  0.000000000E+00  2.103647077E+00  2.103647077E+00  0.000000000E+00  0.00000E+00  9.000E+00
      21    -1     0     0   512   517  0.000000000E+00  0.000000000E+00 -5.904719402E+01  5.904719402E+01  0.000000000E+00  0.00000E+00  9.000E+00
      21     1     1     2   516   517  6.781968804E+00 -2.368444174E+00 -1.386222847E+01  1.561300762E+01  2.384185791E-07  0.00000E+00  9.000E+00
      21     1     1     2   514   513 -9.332271985E+00 -1.630453550E+00 -2.242505157E+01  2.434404685E+01  2.384185791E-07  0.00000E+00  9.000E+00
      21     1     1     2   512   514  2.550303181E+00  3.998897723E+00 -2.065626690E+01  2.119378662E+01  4.129530925E-07  0.00000E+00  9.000E+00
</event>
<event>
      5  10001  2.40292E+09  9.53034E+00 -1.00000E+00  1.98144E-01
      21    -1     0     0   511   514  0.000000000E+00  0.000000000E+00  9.050400296E-01  9.050400296E-01  0.000000000E+00  0.00000E+00  9.000E+00
      21    -1     0     0   512   515  0.000000000E+00  0.000000000E+00 -1.291602167E+02  1.291602167E+02  0.000000000E+00  0.00000E+00  9.000E+00
      21     1     1     2   511   515  5.603972770E-02 -6.536759782E+00 -2.983721073E+01  3.054490977E+01  3.371747881E-07  0.00000E+00  9.000E+00
      21     1     1     2   513   514 -1.835192738E+00  9.393789246E+00 -4.551876262E+01  4.651418019E+01  1.168007728E-06  0.00000E+00  9.000E+00
      21     1     1     2   512   513  1.779153010E+00 -2.857029463E+00 -5.289920333E+01  5.300616678E+01  0.000000000E+00  0.00000E+00  9.000E+00
</event>
<event>
      5  10001  2.40292E+09  1.86441E+01 -1.00000E+00  1.68882E-01
      21    -1     0     0   516   513  0.000000000E+00  0.000000000E+00  8.589085585E+00  8.589085585E+00  0.000000000E+00  0.00000E+00  9.000E+00
      21    -1     0     0   512   517  0.000000000E+00  0.000000000E+00 -9.383972535E+01  9.383972535E+01  0.000000000E+00  0.00000E+00  9.000E+00
      21     1     1     2   516   517  5.555854379E+00  2.180494394E+01 -3.977279698E+01  4.569681037E+01  6.743495762E-07  0.00000E+00  9.000E+00
      21     1     1     2   511   513 -1.035217312E+01 -1.542002984E+01 -1.153685109E+01  2.186421144E+01  1.685873940E-07  0.00000E+00  9.000E+00
      21     1     1     2   512   511  4.796318742E+00 -6.384914097E+00 -3.394099169E+01  3.486778913E+01  4.768371582E-07  0.00000E+00  9.000E+00
</event>
<event>
      5  10001  2.40292E+09  8.35965E+00 -1.00000E+00  2.05140E-01
      -2    -1     0     0     0   513  0.000000000E+00  0.000000000E+00  1.155449212E+02  1.155449212E+02  0.000000000E+00  0.00000E+00  9.000E+00
      21    -1     0     0   514   515  0.000000000E+00  0.000000000E+00 -2.028434021E+01  2.028434021E+01  0.000000000E+00  0.00000E+00  9.000E+00
      -2     1     1     2     0   512 -3.600623301E-01 -1.157450909E+01  9.360088506E+01  9.431507562E+01  3.300000131E-01  0.00000E+00  9.000E+00
      21     1     1     2   512   515  7.948467273E+00  8.067669870E+00 -1.736617433E+01  2.073281071E+01  4.768371582E-07  0.00000E+00  9.000E+00
      21     1     1     2   514   513 -7.588404942E+00  3.506839221E+00  1.902587030E+01  2.078137511E+01  0.000000000E+00  0.00000E+00  9.000E+00
</event>
<event>
      5  10001  2.40292E+09  5.10059E+00 -1.00000E+00  2.36928E-01
      21    -1     0     0   511   512  0.000000000E+00  0.000000000E+00  4.473501336E+01  4.473501336E+01  0.000000000E+00  0.00000E+00  9.000E+00
      21    -1     0     0   514   513  0.000000000E+00  0.000000000E+00 -2.487409234E+01  2.487409234E+01  0.000000000E+00  0.00000E+00  9.000E+00
      21     1     1     2   511   513  1.338784107E+01 -1.757537975E+01 -1.547616379E+01  2.697480135E+01  1.685873940E-07  0.00000E+00  9.000E+00
      21     1     1     2   514   515 -1.383519843E+01  1.235132147E+01  2.620461117E+01  3.210373037E+01  6.743495762E-07  0.00000E+00  9.000E+00
      21     1     1     2   515   512  4.473573574E-01  5.224058281E+00  9.132473645E+00  1.053057398E+01  0.000000000E+00  0.00000E+00  9.000E+00
</event>
<event>
      5  10001  2.40292E+09  4.34841E+00 -1.00000E+00  2.55105E-01
      21    -1     0     0   516   513  0.000000000E+00  0.000000000E+00  5.825002843E+00  5.825002843E+00  0.000000000E+00  0.00000E+00  9.000E+00
      21    -1     0     0   517   512  0.000000000E+00  0.000000000E+00 -4.912286423E+01  4.912286423E+01  0.000000000E+00  0.00000E+00  9.000E+00
      21     1     1     2   516   512 -5.528246034E+00  9.147183111E+00 -7.252368947E-01  1.071253619E+01  2.580956828E-08  0.00000E+00  9.000E+00
      21     1     1     2   517   511  1.491656567E+00 -4.821866908E+00 -2.890201857E+01  2.933942940E+01  0.000000000E+00  0.00000E+00  9.000E+00
      21     1     1     2   511   513  4.036589468E+00 -4.325316203E+00 -1.367060591E+01  1.489590148E+01  1.685873940E-07  0.00000E+00  9.000E+00
</event>
<event>
      5  10001  2.40292E+09  4.23759E+00 -1.00000E+00  2.57599E-01
      21    -1     0     0   516   512  0.000000000E+00  0.000000000E+00  6.196206607E+00  6.196206607E+00  0.000000000E+00  0.00000E+00  9.000E+00
      21    -1     0     0   513   514  0.000000000E+00  0.000000000E+00 -1.394379796E+02  1.394379796E+02  0.000000000E+00  0.00000E+00  9.000E+00
      21     1     1     2   513   515  9.013355719E+00  1.000535447E+01 -1.082841221E+02  1.091182790E+02  0.000000000E+00  0.00000E+00  9.000E+00
      21     1     1     2   515   512 -1.204470862E+01 -7.044266481E+00 -2.801025604E+01  3.129330822E+01  5.840038640E-07  0.00000E+00  9.000E+00
      21     1     1     2   516   514  3.031352904E+00 -2.961087984E+00  3.052605156E+00  5.222599038E+00  2.827296549E-07  0.00000E+00  9.000E+00
</event>
<event>
      5  10001  2.40292E+09  1.06158E+01 -1.00000E+00  1.92748E-01
       2    -1     0     0   514     0  0.000000000E+00  0.000000000E+00  8.125596568E+02  8.125596568E+02  0.000000000E+00  0.00000E+00  9.000E+00
      21    -1     0     0   512   514  0.000000000E+00  0.000000000E+00 -2.462462512E+00  2.462462512E+00  0.000000000E+00  0.00000E+00  9.000E+00
      21     1     1     2   515   511  9.517390985E+00  1.008853706E+01  2.248165080E+01  2.641560020E+01  1.215700987E-06  0.00000E+00  9.000E+00
       2     1     1     2   511     0 -1.045886815E+00 -1.648580931E+01  7.176548976E+02  7.178450645E+02  3.300000131E-01  0.00000E+00  9.000E+00
      21     1     1     2   512   515 -8.471504170E+00  6.397272254E+00  6.996064588E+01  7.076145453E+01  0.000000000E+00  0.00000E+00  9.000E+00
</event>
<event>
      5  10001  2.40292E+09  1.05758E+01 -1.00000E+00  1.92931E-01
      21    -1     0     0   513   511  0.000000000E+00  0.000000000E+00  1.305637351E+01  1.305637351E+01  0.000000000E+00  0.00000E+00  9.000E+00
      21    -1     0     0   512   514  0.000000000E+00  0.000000000E+00 -1.534006071E+02  1.534006071E+02  0.000000000E+00  0.00000E+00  9.000E+00
      21     1     1     2   512   515  1.321870909E+01  6.173963704E+00 -1.071353285E+01  1.810060452E+01  2.665600750E-07  0.00000E+00  9.000E+00
      21     1     1     2   515   511 -1.587247350E+01  4.063469354E+00  1.816200581E+00  1.648471361E+01  2.580956828E-07  0.00000E+00  9.000E+00
      21     1     1     2   513   514  2.653764416E+00 -1.023743306E+01 -1.314469014E+02  1.318716625E+02  1.907348633E-06  0.00000E+00  9.000E+00
</event>
<event>
      5  10001  2.40292E+09  6.33896E+00 -1.00000E+00  2.21752E-01
      21    -1     0     0   516   514  0.000000000E+00  0.000000000E+00  2.502868976E+01  2.502868976E+01  0.000000000E+00  0.00000E+00  9.000E+00
      21    -1     0     0   512   517  0.000000000E+00  0.000000000E+00 -1.186398100E+01  1.186398100E+01  0.000000000E+00  0.00000E+00  9.000E+00
      21     1     1     2   516   517  9.355568308E+00  7.596898864E+00  1.785625612E+01  2.154264175E+01  4.129530925E-07  0.00000E+00  9.000E+00
      21     1     1     2   511   514 -3.354847319E+00 -7.717030944E+00 -3.972183184E+00  9.305149455E+00  2.457562462E-07  0.00000E+00  9.000E+00
      21     1     1     2   512   511 -6.000720988E+00  1.201320805E-01 -7.193641814E-01  6.044879562E+00  5.771194914E-08  0.00000E+00  9.000E+00
</event>
<event>
      5  10001  2.40292E+09  1.66833E+00 -1.00000E+00  4.04046E-01
      21    -1     0     0   515   514  0.000000000E+00  0.000000000E+00  1.882484329E+01  1.882484329E+01  0.000000000E+00  0.00000E+00  9.000E+00
      21    -1     0     0   512   513  0.000000000E+00  0.000000000E+00 -1.002391906E+01  1.002391906E+01  0.000000000E+00  0.00000E+00  9.000E+00
      21     1     1     2   511   514  1.062995623E+01 -2.507305053E+00  9.153281484E+00  1.425009158E+01  2.384185791E-07  0.00000E+00  9.000E+00
      21     1     1     2   512   511 -8.993384199E+00  2.831300092E+00 -4.262658824E+00  1.034734168E+01  1.576990671E-07  0.00000E+00  9.000E+00
      21     1     1     2   515   513 -1.636572026E+00 -3.239950385E-01  3.910301565E+00  4.251329099E+00  5.960464478E-08  0.00000E+00  9.000E+00
</event>
<event>
      5  10001  2.40292E+09  1.00717E+01 -1.00000E+00  1.95341E-01
      21    -1     0     0   516   512  0.000000000E+00  0.000000000E+00  1.155741550E+01  1.155741550E+01  0.000000000E+00  0.00000E+00  9.000E+00
      21    -1     0     0   517   516  0.000000000E+00  0.000000000E+00 -1.314878112E+01  1.314878112E+01  0.000000000E+00  0.00000E+00  9.000E+00
      21     1     1     2   517   513 -8.484541957E-01  6.985281002E+00 -3.216821742E+00  7.737051591E+00  0.000000000E+00  0.00000E+00  9.000E+00
      21     1     1     2   513   511  2.873783293E+00 -9.433047789E+00  6.014772759E+00  1.155069315E+01  2.528810911E-07  0.00000E+00  9.000E+00
      21     1     1     2   511   512 -2.025329097E+00  2.447766787E+00 -4.389316633E+00  5.418451873E+00  8.429369702E-08  0.00000E+00  9.000E+00
</event>
<event>
      5  10001  2.40292E+09  1.14128E+01 -1.00000E+00  1.89294E-01
      21    -1     0     0   516   513  0.000000000E+00  0.000000000E+00  2.059154629E+02  2.059154629E+02  0.000000000E+00  0.00000E+00  9.000E+00
      21    -1     0     0   515   512  0.000000000E+00  0.000000000E+00 -1.290136074E+01  1.290136074E+01  0.000000000E+00  0.00000E+00  9.000E+00
      21     1     1     2   514   512  1.146777486E+01 -1.998121987E+01  3.821341598E+01  4.462089386E+01  6.743495762E-07  0.00000E+00  9.000E+00
      21     1     1     2   515   513 -1.283038876E+01  8.650073787E+00 -3.185196224E+00  1.579835837E+01  2.149076030E-07  0.00000E+00  9.000E+00
      21     1     1     2   516   514  1.362613902E+00  1.133114609E+01  1.579858824E+02  1.583975714E+02  2.697398305E-06  0.00000E+00  9.000E+00
</event>
<event>
      5  10001  2.40292E+09  1.75028E+01 -1.00000E+00  1.71250E-01
      21    -1     0     0   511   512  0.000000000E+00  0.000000000E+00  1.601107416E+01  1.601107416E+01  0.000000000E+00  0.00000E+00  9.000E+00
      21    -1     0     0   517   511  0.000000000E+00  0.000000000E+00 -1.949174074E+02  1.949174074E+02  0.000000000E+00  0.00000E+00  9.000E+00
      21     1     1     2   517   514 -1.125939398E+01  1.681040541E+00 -1.899295369E+02  1.902704097E+02  3.814697266E-06  0.00000E+00  9.000E+00
      21     1     1     2   514   513  9.953221361E+00  1.359586390E+00  9.913179511E-01  1.009444411E+01  2.877892243E-07  0.00000E+00  9.000E+00
      21     1     1     2   513   512  1.306172617E+00 -3.040626931E+00  1.003188570E+01  1.056362768E+01  6.307962682E-07  0.00000E+00  9.000E+00
</event>
<event>
      5  10001  2.40292E+09  7.32597E+00 -1.00000E+00  2.12728E-01
      21    -1     0     0   515   514  0.000000000E+00  0.000000000E+00  8.313190678E+02  8.313190678E+02  0.000000000E+00  0.00000E+00  9.000E+00
      21    -1     0     0   516   512  0.000000000E+00  0.000000000E+00 -1.812984873E+00  1.812984873E+00  0.000000000E+00  0.00000E+00  9.000E+00
      21     1     1     2   515   512  7.348273009E+00  6.515171051E+00  1.284275064E+01  1.616727603E+01  7.152557373E-07  0.00000E+00  9.000E+00
      21     1     1     2   511   514 -2.894566870E+00 -4.687181720E+00  7.756931141E+02  7.757126758E+02  0.000000000E+00  0.00000E+00  9.000E+00
      21     1     1     2   516   511 -4.453706139E+00 -1.827989331E+00  4.097021818E+01  4.125210081E+01  4.768371582E-07  0.00000E+00  9.000E+00
</event>
<event>
      5  10001  2.40292E+09  4.03286E+00 -1.00000E+00  2.62528E-01
      21    -1     0     0   513   512  0.000000000E+00  0.000000000E+00  1.105025441E+01  1.105025441E+01  0.000000000E+00  0.00000E+00  9.000E+00
      21    -1     0     0   516   513  0.000000000E+00  0.000000000E+00 -1.368992519E+02  1.368992519E+02  0.000000000E+00  0.00000E+00  9.000E+00
      21     1     1     2   511   514 -1.597520078E+00 -9.015144024E+00 -2.261876283E+00  9.430852374E+00  3.851308818E-07  0.00000E+00  9.000E+00
      21     1     1     2   516   511 -1.083487266E+00  1.202781467E+01 -1.302076740E+02  1.307665119E+02  2.697398305E-06  0.00000E+00  9.000E+00
      21     1     1     2   514   512  2.681007344E+00 -3.012670644E+00  6.620552853E+00  7.752141954E+00  1.460009660E-07  0.00000E+00  9.000E+00
</event>
<event>
      5  10001  2.40292E+09  1.97860E+01 -1.00000E+00  1.66714E-01
      21    -1     0     0   515   516  0.000000000E+00  0.000000000E+00  1.682264181E+02  1.682264181E+02  0.000000000E+00  0.00000E+00  9.000E+00
      21    -1     0     0   514   512  0.000000000E+00  0.000000000E+00 -7.728492511E+00  7.728492511E+00  0.000000000E+00  0.00000E+00  9.000E+00
      21     1     1     2   515   512  9.916566917E+00  6.235229415E+00 -2.172461205E+00  1.191368847E+01  5.075152625E-07  0.00000E+00  9.000E+00
      21     1     1     2   511   516 -6.951460282E+00  5.606826390E+00  7.265035693E+01  7.319722443E+01  9.536743164E-07  0.00000E+00  9.000E+00
      21     1     1     2   514   511 -2.965106635E+00 -1.184205581E+01  9.002002984E+01  9.084399769E+01  1.651812370E-06  0.00000E+00  9.000E+00
</event>
<event>
      5  10001  2.40292E+09  4.59416E+00 -1.00000E+00  2.49962E-01
      -2    -1     0     0     0   511  0.000000000E+00  0.000000000E+00  1.637772190E+02  1.637772190E+02  0.000000000E+00  0.00000E+00  9.000E+00
      21    -1     0     0   514   517  0.000000000E+00  0.000000000E+00 -6.693140685E+00  6.693140685E+00  0.000000000E+00  0.00000E+00  9.000E+00
      21     1     1     2   513   517 -3.778872448E+00  7.828405528E+00  1.404331343E+02  1.407019155E+02  0.000000000E+00  0.00000E+00  9.000E+00
      21     1     1     2   514   511  7.135969576E+00 -1.096355434E+01  6.275463802E-01  1.309638882E+01  3.350276821E-07  0.00000E+00  9.000E+00
      -2     1     1     2     0   513 -3.357097128E+00  3.135148812E+00  1.602339762E+01  1.667205538E+01  3.300000131E-01  0.00000E+00  9.000E+00
</event>
<event>
      5  10001  2.40292E+09  1.19524E+01 -1.00000E+00  1.87156E-01
      21    -1     0     0   512   515  0.000000000E+00  0.000000000E+00  5.239342551E+01  5.239342551E+01  0.000000000E+00  0.00000E+00  9.000E+00
       2    -1     0     0   514     0  0.000000000E+00  0.000000000E+00 -3.250064688E+02  3.250064688E+02  0.000000000E+00  0.00000E+00  9.000E+00
      21     1     1     2   514   511  7.433226254E+00 -1.475470804E+00  4.429440678E+01  4.493800550E+01  1.348699152E-06  0.00000E+00  9.000E+00
       2     1     1     2   512     0 -1.445430517E+01 -8.197423476E+00 -3.197454810E+02  3.201771482E+02  3.300000131E-01  0.00000E+00  9.000E+00
      21     1     1     2   511   515  7.021078912E+00  9.672894279E+00  2.838030940E+00  1.228474063E+01  1.632340424E-07  0.00000E+00  9.000E+00
</event>
<event>
      5  10001  2.40292E+09  6.91105E+00 -1.00000E+00  2.16270E-01
       3    -1     0     0   511     0  0.000000000E+00  0.000000000E+00  1.231633817E+01  1.231633817E+01  0.000000000E+00  0.00000E+00  9.000E+00
      21    -1     0     0   513   512  0.000000000E+00  0.000000000E+00 -8.388600394E+00  8.388600394E+00  0.000000000E+00  0.00000E+00  9.000E+00
      21     1     1     2   511   512 -1.467861781E+00  9.763964103E+00  3.113123989E+00  1.035283315E+01  1.685873940E-07  0.00000E+00  9.000E+00
      21     1     1     2   513   514  1.192764453E+00 -1.055088271E+00  1.251445364E-01  1.597360152E+00  1.805901474E-08  0.00000E+00  9.000E+00
       3     1     1     2   514     0  2.750973287E-01 -8.708875832E+00  6.894692500E-01  8.754745264E+00  5.000000000E-01  0.00000E+00  9.000E+00
</event>
<event>
      5  10001  2.40292E+09  1.78836E+01 -1.00000E+00  1.70435E-01
      21    -1     0     0   515   512  0.000000000E+00  0.000000000E+00  9.271473899E+00  9.271473899E+00  0.000000000E+00  0.00000E+00  9.000E+00
      21    -1     0     0   516   515  0.000000000E+00  0.000000000E+00 -3.784202750E+01  3.784202750E+01  0.000000000E+00  0.00000E+00  9.000E+00
      21     1     1     2   516   517  8.192020503E+00 -4.659507589E+00 -2.603734829E+01  2.769049867E+01  3.371747881E-07  0.00000E+00  9.000E+00
      21     1     1     2   517   511 -4.710018985E+00  9.353566234E+00 -6.530889920E+00  1.234204210E+01  1.460009660E-07  0.00000E+00  9.000E+00
      21     1     1     2   511   512 -3.482001518E+00 -4.694058645E+00  3.997684606E+00  7.080960623E+00  8.429369702E-08  0.00000E+00  9.000E+00
</event>
<event>
      5  10001  2.40292E+09  2.46586E+00 -1.00000E+00  3.25183E-01
      21    -1     0     0   513   511  0.000000000E+00  0.000000000E+00  1.451946131E+01  1.451946131E+01  0.000000000E+00  0.00000E+00  9.000E+00
      21    -1     0     0   512   513  0.000000000E+00  0.000000000E+00 -5.440753622E+01  5.440753622E+01  0.000000000E+00  0.00000E+00  9.000E+00
      21     1     1     2   514   511  1.249974747E+01  7.381768355E+00  9.289674467E+00  1.723462337E+01  3.769728732E-07  0.00000E+00  9.000E+00
       1     1     1     2   512     0 -1.037224882E+01 -8.507442789E+00 -4.332137409E+01  4.535207251E+01  3.300000131E-01  0.00000E+00  9.000E+00
      -1     1     1     2     0   514 -2.127498653E+00  1.125674434E+00 -5.856375288E+00  6.340301647E+00  3.300000131E-01  0.00000E+00  9.000E+00
</event>
<event>
      5  10001  2.40292E+09  8.59819E+00 -1.00000E+00  2.03595E-01
      21    -1     0     0   515   512  0.000000000E+00  0.000000000E+00  2.734057252E-01  2.734057252E-01  0.000000000E+00  0.00000E+00  9.000E+00
       2    -1     0     0   511     0  0.000000000E+00  0.000000000E+00 -9.030017237E+02  9.030017237E+02  0.000000000E+00  0.00000E+00  9.000E+00
      21     1     1     2   513   512 -1.207678187E+00  7.757623540E+00 -1.234866215E+02  1.237359483E+02  1.907348633E-06  0.00000E+00  9.000E+00
       2     1     1     2   515     0  1.940389741E+00 -1.416035463E+01 -4.288725933E+02  4.291108143E+02  3.300000131E-01  0.00000E+00  9.000E+00
      21     1     1     2   511   513 -7.327115542E-01  6.402731089E+00 -3.503691032E+02  3.504283668E+02  0.000000000E+00  0.00000E+00  9.000E+00
</event>
<event>
      5  10001  2.40292E+09  5.60726E+00 -1.00000E+00  2.30055E-01
      21    -1     0     0   515   512  0.000000000E+00  0.000000000E+00  1.645016673E+02  1.645016673E+02  0.000000000E+00  0.00000E+00  9.000E+00
      21    -1     0     0   511   513  0.000000000E+00  0.000000000E+00 -1.369143110E+01  1.369143110E+01  0.000000000E+00  0.00000E+00  9.000E+00
      21     1     1     2   514   513 -5.380462696E+00 -1.023758525E+01  7.401938234E+01  7.491746453E+01  9.536743164E-07  0.00000E+00  9.000E+00
      21     1     1     2   511   512  1.086636833E+01  1.139784337E+01 -8.435738537E+00  1.786478320E+01  1.192092896E-07  0.00000E+00  9.000E+00
      21     1     1     2   515   514 -5.485905632E+00 -1.160258125E+00  8.522659235E+01  8.541085062E+01  9.536743164E-07  0.00000E+00  9.000E+00
</event>
<event>
      5  10001  2.40292E+09  4.04095E+00 -1.00000E+00  2.62325E-01
      21    -1     0     0   514   516  0.000000000E+00  0.000000000E+00  2.204880712E+01  2.204880712E+01  0.000000000E+00  0.00000E+00  9.000E+00
      -1    -1     0     0     0   511  0.000000000E+00  0.000000000E+00 -1.656403882E+01  1.656403882E+01  0.000000000E+00  0.00000E+00  9.000E+00
      -1     1     1     2     0   512 -8.556289574E+00 -7.245489912E-01 -1.067511818E+01  1.370409102E+01  3.300000131E-01  0.00000E+00  9.000E+00
      21     1     1     2   512   516  1.161851866E+01 -1.911554511E+00  1.709848439E+01  2.076059211E+01  0.000000000E+00  0.00000E+00  9.000E+00
      21     1     1     2   514   511 -3.062229085E+00  2.636103502E+00 -9.385979090E-01  4.148162807E+00  5.866593029E-08  0.00000E+00  9.000E+00
</event>
<event>
      5  10001  2.40292E+09  3.26819E+00 -1.00000E+00  2.85893E-01
      21    -1     0     0   513   516  0.000000000E+00  0.000000000E+00  2.180065902E+01  2.180065902E+01  0.000000000E+00  0.00000E+00  9.000E+00
      21    -1     0     0   515   513  0.000000000E+00  0.000000000E+00 -7.370491749E+01  7.370491749E+01  0.000000000E+00  0.00000E+00  9.000E+00
      21     1     1     2   511   516  6.280932621E+00  8.352924010E+00  2.002961029E+01  2.259218322E+01  5.840038640E-07  0.00000E+00  9.000E+00
      21     1     1     2   512   511 -2.823064435E+00 -7.837242325E+00 -5.443511169E+01  5.506880646E+01  6.743495762E-07  0.00000E+00  9.000E+00
      21     1     1     2   515   512 -3.457868186E+00 -5.156816842E-01 -1.749875708E+01  1.784458684E+01  0.000000000E+00  0.00000E+00  9.000E+00
</event>
<event>
      5  10001  2.40292E+09  2.74733E+00 -1.00000E+00  3.08814E-01
      21    -1     0     0   513   511  0.000000000E+00  0.000000000E+00  2.309693655E+02  2.309693655E+02  0.000000000E+00  0.00000E+00  9.000E+00
      21    -1     0     0   515   514  0.000000000E+00  0.000000000E+00 -1.470689820E+02  1.470689820E+02  0.000000000E+00  0.00000E+00  9.000E+00
      21     1     1     2   512   511  9.861376541E+00 -7.138051246E+00 -3.149056058E+01  3.376172283E+01  1.168007728E-06  0.00000E+00  9.000E+00
      21     1     1     2   515   512 -1.102930392E+01  4.651328670E+00 -1.141216009E+02  1.147476370E+02  1.348699152E-06  0.00000E+00  9.000E+00
      21     1     1     2   513   514  1.167927375E+00  2.486722576E+00  2.295125450E+02  2.295289876E+02  4.672030912E-06  0.00000E+00  9.000E+00
</event>
<event>
      5  10001  2.40292E+09  1.88879E+01 -1.00000E+00  1.68403E-01
      21    -1     0     0   516   514  0.000000000E+00  0.000000000E+00  7.094187476E-01  7.094187476E-01  0.000000000E+00  0.00000E+00  9.000E+00
      21    -1     0     0   511   517  0.000000000E+00  0.000000000E+00 -3.341161144E+02  3.341161144E+02  0.000000000E+00  0.00000E+00  9.000E+00
      21     1     1     2   516   517 -4.206167305E+00 -9.368663314E+00 -1.552529788E+02  1.555922592E+02  0.000000000E+00  0.00000E+00  9.000E+00
      21     1     1     2   511   512 -6.001167726E+00  6.406200000E+00 -9.456665107E+01  9.497317993E+01  1.907348633E-06  0.00000E+00  9.000E+00
      21     1     1     2   512   514  1.020733503E+01  2.962463315E+00 -8.358706579E+01  8.426009402E+01  9.536743164E-07  0.00000E+00  9.000E+00
</event>
<event>
      5  10001  2.40292E+09  1.22523E+01 -1.00000E+00  1.86030E-01
      21    -1     0     0   513   514  0.000000000E+00  0.000000000E+00  4.278121554E+01  4.278121554E+01  0.000000000E+00  0.00000E+00  9.000E+00
      -1    -1     0     0     0   513  0.000000000E+00  0.000000000E+00 -1.815098117E+02  1.815098117E+02  0.000000000E+00  0.00000E+00  9.000E+00
      21     1     1     2   511   512  3.291682663E+00  1.340691345E+01 -1.163407495E+02  1.171569481E+02  1.348699152E-06  0.00000E+00  9.000E+00
      21     1     1     2   512   514  1.667864942E+00 -1.050660650E+01  4.157418956E+01  4.291367837E+01  1.066240300E-06  0.00000E+00  9.000E+00
      -1     1     1     2     0   511 -4.959547605E+00 -2.900306952E+00 -6.396203626E+01  6.422040078E+01  3.300000131E-01  0.00000E+00  9.000E+00
</event>
<event>
      5  10001  2.40292E+09  1.16793E+01 -1.00000E+00  1.88220E-01
      21    -1     0     0   515   512  0.000000000E+00  0.000000000E+00  4.453585760E+01  4.453585760E+01  0.000000000E+00  0.00000E+00  9.000E+00
      21    -1     0     0   516   515  0.000000000E+00  0.000000000E+00 -1.381283598E+01  1.381283598E+01  0.000000000E+00  0.00000E+00  9.000E+00
      21     1     1     2   516   511  8.244093944E+00 -1.311946311E+00 -8.853865411E+00  1.216869840E+01  3.576278687E-07  0.00000E+00  9.000E+00
      21     1     1     2   513   512 -1.017534870E+01 -4.196804261E+00  3.875162132E+01  4.028447644E+01  4.768371582E-07  0.00000E+00  9.000E+00
      21     1     1     2   511   513  1.931254755E+00  5.508750572E+00  8.252657129E-01  5.895518747E+00  1.048389620E-07  0.00000E+00  9.000E+00
</event>
<event>
      5  10001  2.40292E+09  4.04373E+00 -1.00000E+00  2.62255E-01
      21    -1     0     0   514   513  0.000000000E+00  0.000000000E+00  7.285065557E+01  7.285065557E+01  0.000000000E+00  0.00000E+00  9.000E+00
      21    -1     0     0   511   517  0.000000000E+00  0.000000000E+00 -8.652548385E+00  8.652548385E+00  0.000000000E+00  0.00000E+00  9.000E+00
      21     1     1     2   514   517  9.355103898E+00  4.399218904E+00  6.906145352E+01  6.983090618E+01  0.000000000E+00  0.00000E+00  9.000E+00
      21     1     1     2   512   513 -2.007383002E+00 -2.098489030E+00 -1.139667598E+00  3.119628978E+00  7.450580597E-08  0.00000E+00  9.000E+00
      21     1     1     2   511   512 -7.347720896E+00 -2.300729874E+00 -3.723678732E+00  8.552668801E+00  1.460009660E-07  0.00000E+00  9.000E+00
</event>
<event>
      5  10001  2.40292E+09  5.39265E+00 -1.00000E+00  2.32836E-01
      21    -1     0     0   513   512  0.000000000E+00  0.000000000E+00  4.204512741E+01  4.204512741E+01  0.000000000E+00  0.00000E+00  9.000E+00
      21    -1     0     0   511   516  0.000000000E+00  0.000000000E+00 -3.092780176E+01  3.092780176E+01  0.000000000E+00  0.00000E+00  9.000E+00
      21     1     1     2   515   516  1.574178578E+01 -1.111932582E+01  9.046725793E+00  2.129052545E+01  5.960464478E-07  0.00000E+00  9.000E+00
      21     1     1     2   511   512 -1.204052586E+01  7.197424518E+00 -2.250675300E+01  2.652039052E+01  5.840038640E-07  0.00000E+00  9.000E+00
      21     1     1     2   513   515 -3.701259913E+00  3.921901305E+00  2.457735286E+01  2.516201320E+01  0.000000000E+00  0.00000E+00  9.000E+00
</event>
<event>
      5  10001  2.40292E+09  3.32963E+01 -1.00000E+00  1.49927E-01
      21    -1     0     0   514   511  0.000000000E+00  0.000000000E+00  2.139796464E+02  2.139796464E+02  0.000000000E+00  0.00000E+00  9.000E+00
      21    -1     0     0   517   514  0.000000000E+00  0.000000000E+00 -4.541574342E+01  4.541574342E+01  0.000000000E+00  0.00000E+00  9.000E+00
      21     1     1     2   517   515 -4.182527372E+00 -9.909028182E+00 -4.126966302E+01  4.264818238E+01  1.168007728E-06  0.00000E+00  9.000E+00
      21     1     1     2   515   512  1.805048339E+01  2.526525261E+01  1.562911723E+02  1.593457985E+02  1.907348633E-06  0.00000E+00  9.000E+00
      21     1     1     2   512   511 -1.386795602E+01 -1.535622443E+01  5.354239364E+01  5.740140895E+01  6.743495762E-07  0.00000E+00  9.000E+00
</event>
<event>
      5  10001  2.40292E+09  2.54446E+00 -1.00000E+00  3.20243E-01
      21    -1     0     0   513   511  0.000000000E+00  0.000000000E+00  4.649614874E+01  4.649614874E+01  0.000000000E+00  0.00000E+00  9.000E+00
      21    -1     0     0   511   514  0.000000000E+00  0.000000000E+00 -1.369139911E+01  1.369139911E+01  0.000000000E+00  0.00000E+00  9.000E+00
      21     1     1     2   513   512 -1.231381386E+01 -4.945441014E+00  2.642862828E+01  2.957295710E+01  5.840038640E-07  0.00000E+00  9.000E+00
       2     1     1     2   512     0  1.304722734E+01  7.381557271E+00  1.524442318E+01  2.138267680E+01  3.300000131E-01  0.00000E+00  9.000E+00
      -2     1     1     2     0   514 -7.334134805E-01 -2.436116257E+00 -8.868301841E+00  9.231913957E+00  3.300000131E-01  0.00000E+00  9.000E+00
</event>
<event>
      5  10001  2.40292E+09  4.66123E+00 -1.00000E+00  2.48642E-01
      21    -1     0     0   515   512  0.000000000E+00  0.000000000E+00  3.086357831E+01  3.086357831E+01  0.000000000E+00  0.00000E+00  9.000E+00
      21    -1     0     0   511   513  0.000000000E+00  0.000000000E+00 -1.166343055E+01  1.166343055E+01  0.000000000E+00  0.00000E+00  9.000E+00
      21     1     1     2   515   516 -1.006097368E+01  6.422577722E+00  2.168729898E+01  2.475503248E+01  3.371747881E-07  0.00000E+00  9.000E+00
      21     1     1     2   511   512  6.960026389E+00 -9.902696375E+00 -4.191177414E+00  1.280903318E+01  4.500051996E-07  0.00000E+00  9.000E+00
      21     1     1     2   516   513  3.100947296E+00  3.480118653E+00  1.704026196E+00  4.962943204E+00  2.107342426E-08  0.00000E+00  9.000E+00
</event>
<event>
      5  10001  2.40292E+09  3.92041E+00 -1.00000E+00  2.65434E-01
      21    -1     0     0   514   511  0.000000000E+00  0.000000000E+00  1.171606605E+01  1.171606605E+01  0.000000000E+00  0.00000E+00  9.000E+00
      21    -1     0     0   516   512  0.000000000E+00  0.000000000E+00 -4.887771527E+01  4.887771527E+01  0.000000000E+00  0.00000E+00  9.000E+00
      21     1     1     2   514   517  6.285544713E+00 -1.033584389E+01 -3.861291245E+00  1.269831923E+01  3.209808354E-07  0.00000E+00  9.000E+00
      21     1     1     2   516   511 -3.324041628E+00  7.766967630E+00  4.717331420E+00  9.676169419E+00  1.884864366E-07  0.00000E+00  9.000E+00
      21     1     1     2   517   512 -2.961503086E+00  2.568876256E+00 -3.801768940E+01  3.821929268E+01  0.000000000E+00  0.00000E+00  9.000E+00
</event>
<event>
      5  10001  2.40292E+09  1.44341E+01 -1.00000E+00  1.78923E-01
      21    -1     0     0   513   512  0.000000000E+00  0.000000000E+00  1.322640018E+02  1.322640018E+02  0.000000000E+00  0.00000E+00  9.000E+00
      21    -1     0     0   517   515  0.000000000E+00  0.000000000E+00 -3.066292020E+00  3.066292020E+00  0.000000000E+00  0.00000E+00  9.000E+00
      21     1     1     2   513   515  1.033382362E+01 -6.020863497E+00  1.114319688E+01  1.634654534E+01  3.953724850E-07  0.00000E+00  9.000E+00
      21     1     1     2   517   511 -5.293860177E+00 -5.943953398E-01  2.516341438E+01  2.572111359E+01  3.371747881E-07  0.00000E+00  9.000E+00
      21     1     1     2   511   512 -5.039963444E+00  6.615258837E+00  9.289109851E+01  9.326263487E+01  0.000000000E+00  0.00000E+00  9.000E+00
</event>
<event>
      5  10001  2.40292E+09  1.93715E+01 -1.00000E+00  1.67479E-01
      21    -1     0     0   514   515  0.000000000E+00  0.000000000E+00  2.647181766E+01  2.647181766E+01  0.000000000E+00  0.00000E+00  9.000E+00
      21    -1     0     0   512   514  0.000000000E+00  0.000000000E+00 -1.524721120E+01  1.524721120E+01  0.000000000E+00  0.00000E+00  9.000E+00
      21     1     1     2   512   516 -1.142474255E+01  5.877003087E+00 -4.696423174E+00  1.367919217E+01  1.788139343E-07  0.00000E+00  9.000E+00
      21     1     1     2   516   513 -8.851485415E-01 -7.622342981E+00  1.326755894E+01  1.532683009E+01  2.920019320E-07  0.00000E+00  9.000E+00
      21     1     1     2   513   515  1.230989109E+01  1.745339894E+00  2.653470702E+00  1.271300660E+01  1.788139343E-07  0.00000E+00  9.000E+00
</event>
<event>
      5  10001  2.40292E+09  2.80890E+00 -1.00000E+00  3.05672E-01
      21    -1     0     0   511   512  0.000000000E+00  0.000000000E+00  7.409313186E+00  7.409313186E+00  0.000000000E+00  0.00000E+00  9.000E+00
      21    -1     0     0   514   511  0.000000000E+00  0.000000000E+00 -6.975053079E+01  6.975053079E+01  0.000000000E+00  0.00000E+00  9.000E+00
      21     1     1     2   517   512 -8.183729886E+00  1.500329722E+01 -1.264240676E+01  2.125800581E+01  4.768371582E-07  0.00000E+00  9.000E+00
      21     1     1     2   515   517  7.726149594E+00 -1.223191540E+01 -1.413241121E+01  2.022469255E+01  1.685873940E-07  0.00000E+00  9.000E+00
      21     1     1     2   514   515  4.575802927E-01 -2.771381815E+00 -3.556639963E+01  3.567714562E+01  4.768371582E-07  0.00000E+00  9.000E+00
</event>
<event>
      5  10001  2.40292E+09  3.18478E+00 -1.00000E+00  2.89075E-01
      21    -1     0     0   512   514  0.000000000E+00  0.000000000E+00  1.007570713E+01  1.007570713E+01  0.000000000E+00  0.00000E+00  9.000E+00
      -1    -1     0     0     0   513  0.000000000E+00  0.000000000E+00 -1.344776328E+02  1.344776328E+02  0.000000000E+00  0.00000E+00  9.000E+00
      -1     1     1     2     0   511  1.249592030E+01  4.948490108E+00 -1.244896918E+02  1.252135290E+02  3.300000131E-01  0.00000E+00  9.000E+00
      21     1     1     2   511   514 -9.375866190E+00 -4.309993981E+00 -6.378878878E+00  1.213148839E+01  2.795705652E-07  0.00000E+00  9.000E+00
      21     1     1     2   512   513 -3.120054114E+00 -6.384961272E-01  6.466645055E+00  7.208322499E+00  3.475518164E-07  0.00000E+00  9.000E+00
</event>
<event>
      5  10001  2.40292E+09  3.69569E+00 -1.00000E+00  2.71724E-01
      21    -1     0     0   515   514  0.000000000E+00  0.000000000E+00  2.127070171E+02  2.127070171E+02  0.000000000E+00  0.00000E+00  9.000E+00
      21    -1     0     0   517   516  0.000000000E+00  0.000000000E+00 -1.259831655E+02  1.259831655E+02  0.000000000E+00  0.00000E+00  9.000E+00
      21     1     1     2   515   516 -1.276597811E+01 -2.301149573E+01 -6.967784167E+01  7.448154639E+01  1.651812370E-06  0.00000E+00  9.000E+00
      21     1     1     2   517   511  1.425575893E+01  1.962938770E+01 -5.115658930E+01  5.661745449E+01  9.536743164E-07  0.00000E+00  9.000E+00
      21     1     1     2   511   514 -1.489780815E+00  3.382108022E+00  2.075582825E+02  2.075911817E+02  2.697398305E-06  0.00000E+00  9.000E+00
</event>
<event>
      5  10001  2.40292E+09  2.67344E+00 -1.00000E+00  3.12775E-01
       1    -1     0     0   513     0  0.000000000E+00  0.000000000E+00  6.821995854E+01  6.821995854E+01  0.000000000E+00  0.00000E+00  9.000E+00
      21    -1     0     0   511   512  0.000000000E+00  0.000000000E+00 -2.821213803E+02  2.821213803E+02  0.000000000E+00  0.00000E+00  9.000E+00
      21     1     1     2   513   512  6.525013703E+00 -7.851722868E+00 -2.809516111E+02  2.811370362E+02  0.000000000E+00  0.00000E+00  9.000E+00
       1     1     1     2   515     0 -3.885782307E+00  8.163418386E+00  6.551187502E+01  6.613361757E+01  3.300000131E-01  0.00000E+00  9.000E+00
      21     1     1     2   511   515 -2.639231396E+00 -3.116955177E-01  1.538314247E+00  3.070685131E+00  1.134838627E-07  0.00000E+00  9.000E+00
</event>
<event>
      5  10001  2.40292E+09  3.07951E+00 -1.00000E+00  2.93327E-01
      -2    -1     0     0     0   514  0.000000000E+00  0.000000000E+00  1.143117893E+02  1.143117893E+02  0.000000000E+00  0.00000E+00  9.000E+00
      21    -1     0     0   514   512  0.000000000E+00  0.000000000E+00 -2.760424175E+01  2.760424175E+01  0.000000000E+00  0.00000E+00  9.000E+00
      -2     1     1     2     0   511  7.135855336E+00  6.092148096E+00  1.089340698E+02  1.093378944E+02  3.300000131E-01  0.00000E+00  9.000E+00
      21     1     1     2   511   513 -6.135585151E+00 -9.004647790E+00 -7.936375618E-01  1.092515206E+01  3.355243876E-07  0.00000E+00  9.000E+00
      21     1     1     2   513   512 -1.000270185E+00  2.912499694E+00 -2.143288467E+01  2.165298456E+01  6.743495762E-07  0.00000E+00  9.000E+00
</event>
<event>
      5  10001  2.40292E+09  7.90126E+00 -1.00000E+00  2.08312E-01
      21    -1     0     0   515   511  0.000000000E+00  0.000000000E+00  2.916154389E+00  2.916154389E+00  0.000000000E+00  0.00000E+00  9.000E+00
      21    -1     0     0   514   516  0.000000000E+00  0.000000000E+00 -9.414840800E+01  9.414840800E+01  0.000000000E+00  0.00000E+00  9.000E+00
      21     1     1     2   515   516  1.191909800E+01  2.713064679E+00 -1.646939332E+01  2.051015684E+01  2.384185791E-07  0.00000E+00  9.000E+00
      21     1     1     2   517   511 -6.065743065E+00 -4.405210716E+00 -6.154378864E+01  6.199868580E+01  1.348699152E-06  0.00000E+00  9.000E+00
      21     1     1     2   514   517 -5.853354940E+00  1.692146037E+00 -1.321907164E+01  1.455571975E+01  3.371747881E-07  0.00000E+00  9.000E+00
</event>
<event>
      5  10001  2.40292E+09  3.49689E+00 -1.00000E+00  2.77908E-01
      21    -1     0     0   512   511  0.000000000E+00  0.000000000E+00  1.762549356E+00  1.762549356E+00  0.000000000E+00  0.00000E+00  9.000E+00
       2    -1     0     0   513     0  0.000000000E+00  0.000000000E+00 -1.399294254E+02  1.399294254E+02  0.000000000E+00  0.00000E+00  9.000E+00
      21     1     1     2   515   511  1.011124556E+01  6.967016851E-02 -2.146574224E+01  2.372804734E+01  4.129530925E-07  0.00000E+00  9.000E+00
       2     1     1     2   512     0 -1.063267927E+01  2.297150961E+00 -1.131048334E+02  1.136272107E+02  3.300000131E-01  0.00000E+00  9.000E+00
      21     1     1     2   513   515  5.214337022E-01 -2.366821130E+00 -3.596300423E+00  4.336716742E+00  8.429369702E-08  0.00000E+00  9.000E+00
</event>
<event>
      5  10001  2.40292E+09  3.46159E+00 -1.00000E+00  2.79076E-01
      21    -1     0     0   514   511  0.000000000E+00  0.000000000E+00  3.230155580E+00  3.230155580E+00  0.000000000E+00  0.00000E+00  9.000E+00
       1    -1     0     0   512     0  0.000000000E+00  0.000000000E+00 -2.797304696E+02  2.797304696E+02  0.000000000E+00  0.00000E+00  9.000E+00
      21     1     1     2   514   513 -1.053329775E+01  1.723074820E+00 -6.510659309E+00  1.250232111E+01  8.259061849E-07  0.00000E+00  9.000E+00
       1     1     1     2   513     0  9.614825504E+00 -5.060470761E+00 -2.436250384E+02  2.438674260E+02  3.300000131E-01  0.00000E+00  9.000E+00
      21     1     1     2   512   511  9.184722497E-01  3.337395941E+00 -2.636461633E+01  2.659087808E+01  4.768371582E-07  0.00000E+00  9.000E+00
</event>
<event>
      5  10001  2.40292E+09  8.40269E+00 -1.00000E+00  2.04856E-01
      -1    -1     0     0     0   511  0.000000000E+00  0.000000000E+00  1.947967982E+01  1.947967982E+01  0.000000000E+00  0.00000E+00  9.000E+00
      21    -1     0     0   513   515  0.000000000E+00  0.000000000E+00 -3.667196147E+01  3.667196147E+01  0.000000000E+00  0.00000E+00  9.000E+00
      -1     1     1     2     0   515 -1.286738838E+01 -1.013041733E+01  1.107716128E+01  1.977390808E+01  3.300000131E-01  0.00000E+00  9.000E+00
      21     1     1     2   514   511  7.616205772E+00  3.571125112E+00 -1.794093267E+00  8.601063631E+00  3.132789737E-07  0.00000E+00  9.000E+00
      21     1     1     2   513   514  5.251182605E+00  6.559292215E+00 -2.647534966E+01  2.777666958E+01  0.000000000E+00  0.00000E+00  9.000E+00
</event>
<event>
      5  10001  2.40292E+09  1.30099E+01 -1.00000E+00  1.83361E-01
      21    -1     0     0   512   514  0.000000000E+00  0.000000000E+00  1.223236217E+02  1.223236217E+02  0.000000000E+00  0.00000E+00  9.000E+00
      21    -1     0     0   513   516  0.000000000E+00  0.000000000E+00 -6.090079067E+00  6.090079067E+00  0.000000000E+00  0.00000E+00  9.000E+00
      21     1     1     2   512   516 -6.932177964E+00  8.639800791E+00  9.945079143E-01  1.112161387E+01  1.715252464E-07  0.00000E+00  9.000E+00
      21     1     1     2   513   511  8.690596853E+00  7.157573691E-01  8.812811449E+01  8.855847416E+01  1.348699152E-06  0.00000E+00  9.000E+00
      21     1     1     2   511   514 -1.758418889E+00 -9.355558160E+00  2.711092027E+01  2.873361278E+01  3.371747881E-07  0.00000E+00  9.000E+00
</event>
<event>
      5  10001  2.40292E+09  6.84193E+00 -1.00000E+00  2.16893E-01
      21    -1     0     0   515   512  0.000000000E+00  0.000000000E+00  4.186237125E+00  4.186237125E+00  0.000000000E+00  0.00000E+00  9.000E+00
      21    -1     0     0   514   515  0.000000000E+00  0.000000000E+00 -2.359051705E+02  2.359051705E+02  0.000000000E+00  0.00000E+00  9.000E+00
      21     1     1     2   513   511  7.961955064E+00  3.196921322E+00 -2.054896149E+00  8.822450485E+00  4.768371582E-07  0.00000E+00  9.000E+00
      21     1     1     2   514   513 -1.392621403E+01  1.556408825E-01 -2.097592975E+02  2.102211373E+02  2.697398305E-06  0.00000E+00  9.000E+00
      21     1     1     2   511   512  5.964258965E+00 -3.352562204E+00 -1.990473974E+01  2.104781990E+01  2.384185791E-07  0.00000E+00  9.000E+00
</event>
<event>
      5  10001  2.40292E+09  5.51262E+00 -1.00000E+00  2.31259E-01
       5    -1     0     0   511     0  0.000000000E+00  0.000000000E+00  4.044853099E-01  4.044853099E-01  0.000000000E+00  0.00000E+00  9.000E+00
      21    -1     0     0   516   515  0.000000000E+00  0.000000000E+00 -3.921490209E+02  3.921490209E+02  0.000000000E+00  0.00000E+00  9.000E+00
      21     1     1     2   511   513 -8.692536602E+00  1.069481629E+00 -1.111020145E+02  1.114466761E+02  1.907348633E-06  0.00000E+00  9.000E+00
       5     1     1     2   516     0  1.061824409E+01 -1.269959690E+00 -1.525511876E+02  1.530008652E+02  4.800000191E+00  0.00000E+00  9.000E+00
      21     1     1     2   513   515 -1.925707488E+00  2.004780616E-01 -1.280913335E+02  1.281059650E+02  0.000000000E+00  0.00000E+00  9.000E+00
</event>
<event>
      5  10001  2.40292E+09  8.93299E+00 -1.00000E+00  2.01536E-01
      21    -1     0     0   512   515  0.000000000E+00  0.000000000E+00  3.549102744E+00  3.549102744E+00  0.000000000E+00  0.00000E+00  9.000E+00
      21    -1     0     0   513   514  0.000000000E+00  0.000000000E+00 -3.883631943E+01  3.883631943E+01  0.000000000E+00  0.00000E+00  9.000E+00
      21     1     1     2   512   514 -8.430584869E+00  3.082834228E+00 -1.216814632E+01  1.512092633E+01  0.000000000E+00  0.00000E+00  9.000E+00
      21     1     1     2   511   515  6.805112138E+00 -1.071389097E+00 -2.364269264E+01  2.462588762E+01  0.000000000E+00  0.00000E+00  9.000E+00
      21     1     1     2   513   511  1.625472731E+00 -2.011445131E+00  5.236222701E-01  2.638608231E+00  1.212866649E-07  0.00000E+00  9.000E+00
</event>
<event>
      5  10001  2.40292E+09  6.43728E+00 -1.00000E+00  2.20754E-01
      21    -1     0     0   512   511  0.000000000E+00  0.000000000E+00  1.044717777E+02  1.044717777E+02  0.000000000E+00  0.00000E+00  9.000E+00
      -2    -1     0     0     0   516  0.000000000E+00  0.000000000E+00 -1.897361285E+01  1.897361285E+01  0.000000000E+00  0.00000E+00  9.000E+00
      -2     1     1     2     0   511  1.180366648E+01 -1.939948112E+01 -2.072762639E+00  2.280507959E+01  3.300000131E-01  0.00000E+00  9.000E+00
      21     1     1     2   513   516 -9.892646491E+00  1.325252827E+01  4.255254423E+00  1.707633305E+01  4.172325134E-07  0.00000E+00  9.000E+00
      21     1     1     2   512   513 -1.911019987E+00  6.146952848E+00  8.331567307E+01  8.356397792E+01  0.000000000E+00  0.00000E+00  9.000E+00
</event>
<event>
      5  10001  2.40292E+09  5.92992E+00 -1.00000E+00  2.26188E-01
      21    -1     0     0   514   511  0.000000000E+00  0.000000000E+00  1.239875735E+02  1.239875735E+02  0.000000000E+00  0.00000E+00  9.000E+00
      21    -1     0     0   515   514  0.000000000E+00  0.000000000E+00 -4.124830651E+00  4.124830651E+00  0.000000000E+00  0.00000E+00  9.000E+00
      21     1     1     2   515   517 -5.717446204E+00 -1.510296086E+01  1.759705239E+01  2.388398775E+01  2.384185791E-07  0.00000E+00  9.000E+00
       5     1     1     2   517     0  3.102908809E-01  1.044843891E+01  6.133198113E+01  6.240126655E+01  4.800000191E+00  0.00000E+00  9.000E+00
      -5     1     1     2     0   511  5.407155323E+00  4.654521958E+00  4.093370930E+01  4.182714982E+01  4.800000191E+00  0.00000E+00  9.000E+00
</event>
<event>
      5  10001  2.40292E+09  2.49537E+01 -1.00000E+00  1.58773E-01
      21    -1     0     0   512   515  0.000000000E+00  0.000000000E+00  1.250576445E+01  1.250576445E+01  0.000000000E+00  0.00000E+00  9.000E+00
      21    -1     0     0   513   511  0.000000000E+00  0.000000000E+00 -5.083850531E+01  5.083850531E+01  0.000000000E+00  0.00000E+00  9.000E+00
      21     1     1     2   512   511  6.302611154E+00  1.390878130E+01  1.823428537E+00  1.537862140E+01  3.325330258E-07  0.00000E+00  9.000E+00
      21     1     1     2   513   514  7.761160218E+00 -6.860636163E+00 -1.844057254E+01  2.115085464E+01  2.384185791E-07  0.00000E+00  9.000E+00
      21     1     1     2   514   515 -1.406377137E+01 -7.048145133E+00 -2.171559687E+01  2.681479372E+01  4.129530925E-07  0.00000E+00  9.000E+00
</event>
<event>
      5  10001  2.40292E+09  5.47466E+00 -1.00000E+00  2.31752E-01
      21    -1     0     0   516   511  0.000000000E+00  0.000000000E+00  1.467972615E+02  1.467972615E+02  0.000000000E+00  0.00000E+00  9.000E+00
      21    -1     0     0   515   516  0.000000000E+00  0.000000000E+00 -1.211909059E+00  1.211909059E+00  0.000000000E+00  0.00000E+00  9.000E+00
      21     1     1     2   515   517  7.034627814E+00 -5.138251332E+00  2.138830574E+01  2.309431180E+01  5.331201500E-07  0.00000E+00  9.000E+00
      21     1     1     2   517   512 -5.792973135E+00  3.084060846E+00  1.191025643E+02  1.192832377E+02  2.336015456E-06  0.00000E+00  9.000E+00
      21     1     1     2   512   511 -1.241654679E+00  2.054190486E+00  5.094482314E+00  5.631620987E+00  8.429369702E-08  0.00000E+00  9.000E+00
</event>
<event>
      5  10001  2.40292E+09  3.70748E+00 -1.00000E+00  2.71376E-01
      -2    -1     0     0     0   511  0.000000000E+00  0.000000000E+00  4.314394823E+00  4.314394823E+00  0.000000000E+00  0.00000E+00  9.000E+00
      -1    -1     0     0     0   512  0.000000000E+00  0.000000000E+00 -6.774750313E+01  6.774750313E+01  0.000000000E+00  0.00000E+00  9.000E+00
      -2     1     1     2     0   512 -1.075220781E+01 -1.160259609E+01 -2.160104266E+01  2.677581283E+01  3.300000131E-01  0.00000E+00  9.000E+00
      -1     1     1     2     0   513  8.823767520E+00  8.993976134E+00 -3.897838684E+01  4.096552234E+01  3.300000131E-01  0.00000E+00  9.000E+00
      21     1     1     2   513   511  1.928440289E+00  2.608619956E+00 -2.853678814E+00  4.320562787E+00  8.429369702E-08  0.00000E+00  9.000E+00
</event>
<event>
      5  10001  2.40292E+09  1.42484E+01 -1.00000E+00  1.79464E-01
      21    -1     0     0   514   512  0.000000000E+00  0.000000000E+00  8.168154796E+00  8.168154796E+00  0.000000000E+00  0.00000E+00  9.000E+00
      21    -1     0     0   515   511  0.000000000E+00  0.000000000E+00 -1.617433065E+01  1.617433065E+01  0.000000000E+00  0.00000E+00  9.000E+00
      21     1     1     2   514   511 -4.734116246E+00 -4.988042485E+00  1.911311183E-01  6.879604317E+00  1.009615528E-07  0.00000E+00  9.000E+00
      21     1     1     2   516   512  3.129507908E+00 -1.800099610E+00 -9.680420385E+00  1.033173350E+01  0.000000000E+00  0.00000E+00  9.000E+00
      21     1     1     2   515   516  1.604608338E+00  6.788142094E+00  1.483113416E+00  7.131147623E+00  1.460009660E-07  0.00000E+00  9.000E+00
</event>
<event>
      5  10001  2.40292E+09  4.98653E+00 -1.00000E+00  2.42687E-01
       1    -1     0     0   511     0  0.000000000E+00  0.000000000E+00  2.887573892E+02  2.887573892E+02  0.000000000E+00  0.00000E+00  9.000E+00
      21    -1     0     0   516   511  0.000000000E+00  0.000000000E+00 -7.416795879E+00  7.416795879E+00  0.000000000E+00  0.00000E+00  9.000E+00
      21     1     1     2   516   512  1.340513802E+01  1.433232715E+01  8.020150855E+00  2.119990911E+01  5.057621821E-07  0.00000E+00  9.000E+00
       1     1     1     2   513     0 -1.757307914E+01 -1.379344818E+01  2.610445450E+02  2.619989231E+02  3.300000131E-01  0.00000E+00  9.000E+00
      21     1     1     2   512   513  4.167941124E+00 -5.388789636E-01  1.227589743E+01  1.297535284E+01  2.384185791E-07  0.00000E+00  9.000E+00
</event>
<event>
      5  10001  2.40292E+09  3.82529E+00 -1.00000E+00  2.68013E-01
      21    -1     0     0   514   513  0.000000000E+00  0.000000000E+00  9.794973347E+00  9.794973347E+00  0.000000000E+00  0.00000E+00  9.000E+00
      21    -1     0     0   512   515  0.000000000E+00  0.000000000E+00 -2.213363299E+01  2.213363299E+01  0.000000000E+00  0.00000E+00  9.000E+00
      21     1     1     2   514   515  8.775970324E+00  5.944224239E+00  4.665668097E+00  1.158101531E+01  1.788139343E-07  0.00000E+00  9.000E+00
      21     1     1     2   512   511 -4.453453813E+00 -1.119924773E+00 -8.454213185E+00  9.620873294E+00  1.685873940E-07  0.00000E+00  9.000E+00
      21     1     1     2   511   513 -4.322516511E+00 -4.824299466E+00 -8.550114556E+00  1.072671773E+01  2.064765462E-07  0.00000E+00  9.000E+00
</event>
<event>
      5  10001  2.40292E+09  5.21547E+00 -1.00000E+00  2.35273E-01
      21    -1     0     0   516   512  0.000000000E+00  0.000000000E+00  1.120119596E+01  1.120119596E+01  0.000000000E+00  0.00000E+00  9.000E+00
      21    -1     0     0   517   513  0.000000000E+00  0.000000000E+00 -1.792515925E+01  1.792515925E+01  0.000000000E+00  0.00000E+00  9.000E+00
      21     1     1     2   516   513  1.176532981E+00  9.982288677E+00 -1.321053585E+01  1.659965585E+01  1.685873940E-07  0.00000E+00  9.000E+00
      21     1     1     2   517   514 -1.929955791E+00 -2.592549968E+00  2.570474941E+00  4.129574568E+00  0.000000000E+00  0.00000E+00  9.000E+00
      21     1     1     2   514   512  7.534228096E-01 -7.389738710E+00  3.916097614E+00  8.397124785E+00  2.563692709E-07  0.00000E+00  9.000E+00
</event>
<event>
      5  10001  2.40292E+09  4.68050E+00 -1.00000E+00  2.48269E-01
      -2    -1     0     0     0   511  0.000000000E+00  0.000000000E+00  2.429194905E+01  2.429194905E+01  0.000000000E+00  0.00000E+00  9.000E+00
      21    -1     0     0   512   514  0.000000000E+00  0.000000000E+00 -3.567638634E+01  3.567638634E+01  0.000000000E+00  0.00000E+00  9.000E+00
      -2     1     1     2     0   514 -9.143679127E+00 -5.819433041E+00  2.140530530E+01  2.399518002E+01  3.300000131E-01  0.00000E+00  9.000E+00
      21     1     1     2   513   511  5.034272718E+00  3.166234414E+00 -2.946385476E+01  3.005807178E+01  4.768371582E-07  0.00000E+00  9.000E+00
      21     1     1     2   512   513  4.109406408E+00  2.653198628E+00 -3.325887840E+00  5.915083593E+00  0.000000000E+00  0.00000E+00  9.000E+00
</event>
<event>
      5  10001  2.40292E+09  8.19781E+00 -1.00000E+00  2.06228E-01
      21    -1     0     0   515   513  0.000000000E+00  0.000000000E+00  6.488538449E+01  6.488538449E+01  0.000000000E+00  0.00000E+00  9.000E+00
      21    -1     0     0   512   516  0.000000000E+00  0.000000000E+00 -5.065707986E+01  5.065707986E+01  0.000000000E+00  0.00000E+00  9.000E+00
      21     1     1     2   515   516 -1.274074443E+01 -7.045063675E+00  6.264828415E+01  6.431770361E+01  6.743495762E-07  0.00000E+00  9.000E+00
      21     1     1     2   512   511  9.462897280E+00  8.333751460E-01 -2.389940802E+01  2.571813840E+01  3.371747881E-07  0.00000E+00  9.000E+00
      21     1     1     2   511   513  3.277847152E+00  6.211688529E+00 -2.452057151E+01  2.550662234E+01  4.768371582E-07  0.00000E+00  9.000E+00
</event>
<event>
      5  10001  2.40292E+09  8.48991E+00 -1.00000E+00  2.04288E-01
      21    -1     0     0   514   512  0.000000000E+00  0.000000000E+00  3.524913667E+01  3.524913667E+01  0.000000000E+00  0.00000E+00  9.000E+00
      21    -1     0     0   517   515  0.000000000E+00  0.000000000E+00 -4.038926457E+01  4.038926457E+01  0.000000000E+00  0.00000E+00  9.000E+00
      21     1     1     2   514   513  1.541688921E+01  7.429347185E+00 -1.830305137E+01  2.505748115E+01  3.371747881E-07  0.00000E+00  9.000E+00
      21     1     1     2   517   512 -1.302505697E+01  7.166735200E-01  2.945230288E+01  3.221185923E+01  3.371747881E-07  0.00000E+00  9.000E+00
      21     1     1     2   513   515 -2.391832241E+00 -8.146020705E+00 -1.628937942E+01  1.836906086E+01  3.371747881E-07  0.00000E+00  9.000E+00
</event>
<event>
      5  10001  2.40292E+09  6.62825E+00 -1.00000E+00  2.18885E-01
      21    -1     0     0   511   514  0.000000000E+00  0.000000000E+00  8.217783431E+00  8.217783431E+00  0.000000000E+00  0.00000E+00  9.000E+00
       1    -1     0     0   513     0  0.000000000E+00  0.000000000E+00 -6.034163122E+01  6.034163122E+01  0.000000000E+00  0.00000E+00  9.000E+00
      21     1     1     2   513   512 -5.006121750E+00 -8.767780972E+00 -1.770455437E+01  2.038103244E+01  4.768371582E-07  0.00000E+00  9.000E+00
       1     1     1     2   511     0  1.112380088E+01  6.217966377E+00 -3.839064661E+01  4.045185656E+01  3.300000131E-01  0.00000E+00  9.000E+00
      21     1     1     2   512   514 -6.117679129E+00  2.549814596E+00  3.971353190E+00  7.726525646E+00  1.931411236E-07  0.00000E+00  9.000E+00
</event>
<event>
      5  10001  2.40292E+09  4.61480E+00 -1.00000E+00  2.49552E-01
      21    -1     0     0   515   511  0.000000000E+00  0.000000000E+00  1.504229589E+02  1.504229589E+02  0.000000000E+00  0.00000E+00  9.000E+00
      21    -1     0     0   512   514  0.000000000E+00  0.000000000E+00 -1.382411809E+00  1.382411809E+00  0.000000000E+00  0.00000E+00  9.000E+00
      21     1     1     2   515   514 -9.423568420E+00 -1.357782651E+00  3.549528417E+01  3.674999883E+01  4.768371582E-07  0.00000E+00  9.000E+00
      21     1     1     2   512   513  1.198280461E+01 -2.482357404E+00  5.580413410E+01  5.713012416E+01  6.743495762E-07  0.00000E+00  9.000E+00
      21     1     1     2   513   511 -2.559236189E+00  3.840140056E+00  5.774112885E+01  5.792524775E+01  9.536743164E-07  0.00000E+00  9.000E+00
</event>
<event>
      5  10001  2.40292E+09  6.26469E+00 -1.00000E+00  2.22523E-01
      21    -1     0     0   512   511  0.000000000E+00  0.000000000E+00  6.180313155E+01  6.180313155E+01  0.000000000E+00  0.00000E+00  9.000E+00
       1    -1     0     0   511     0  0.000000000E+00  0.000000000E+00 -2.014292238E+02  2.014292238E+02  0.000000000E+00  0.00000E+00  9.000E+00
      21     1     1     2   512   513  3.540644665E+00  9.829609867E+00  6.091881367E+01  6.180824584E+01  9.536743164E-07  0.00000E+00  9.000E+00
       1     1     1     2   514     0  5.421640035E-01 -1.245700938E+01 -1.734295813E+02  1.738775419E+02  3.300000131E-01  0.00000E+00  9.000E+00
      21     1     1     2   513   514 -4.082808668E+00  2.627399512E+00 -2.711532465E+01  2.754656759E+01  3.371747881E-07  0.00000E+00  9.000E+00
</event>
<event>
      5  10001  2.40292E+09  5.80290E+00 -1.00000E+00  2.27668E-01
       1    -1     0     0   512     0  0.000000000E+00  0.000000000E+00  8.964587410E+00  8.964587410E+00  0.000000000E+00  0.00000E+00  9.000E+00
       1    -1     0     0   513     0  0.000000000E+00  0.000000000E+00 -5.157009083E+02  5.157009083E+02  0.000000000E+00  0.00000E+00  9.000E+00
       1     1     1     2   513     0  1.121070602E+01  7.772084378E+00  3.592828840E+00  1.411037009E+01  3.300000131E-01  0.00000E+00  9.000E+00
       1     1     1     2   511     0 -3.566281166E+00 -6.121600976E+00 -2.915188678E+02  2.916051295E+02  3.300000131E-01  0.00000E+00  9.000E+00
      21     1     1     2   512   511 -7.644424856E+00 -1.650483403E+00 -2.188102819E+02  2.189499961E+02  2.697398305E-06  0.00000E+00  9.000E+00
</event>
<event>
      5  10001  2.40292E+09  7.52116E+00 -1.00000E+00  2.11170E-01
       2    -1     0     0   514     0  0.000000000E+00  0.000000000E+00  1.119190729E+02  1.119190729E+02  0.000000000E+00  0.00000E+00  9.000E+00
      21    -1     0     0   511   514  0.000000000E+00  0.000000000E+00 -6.134180976E+01  6.134180976E+01  0.000000000E+00  0.00000E+00  9.000E+00
      21     1     1     2   511   513 -6.884731826E+00 -8.854730318E+00 -4.218011503E+01  4.364593779E+01  1.168007728E-06  0.00000E+00  9.000E+00
       2     1     1     2   512     0  9.962858844E+00  5.081699486E+00  1.105771858E+02  1.111418245E+02  3.300000131E-01  0.00000E+00  9.000E+00
      21     1     1     2   513   512 -3.078127018E+00  3.773030832E+00 -1.781980771E+01  1.847312032E+01  0.000000000E+00  0.00000E+00  9.000E+00
</event>
<event>
      5  10001  2.40292E+09  5.42065E+00 -1.00000E+00  2.32463E-01
      21    -1     0     0   515   512  0.000000000E+00  0.000000000E+00  3.345185747E+01  3.345185747E+01  0.000000000E+00  0.00000E+00  9.000E+00
      -4    -1     0     0     0   516  0.000000000E+00  0.000000000E+00 -3.235403112E+02  3.235403112E+02  0.000000000E+00  0.00000E+00  9.000E+00
      21     1     1     2   515   516 -2.825861064E+00 -1.470753981E+01 -4.652979362E+00  1.568271133E+01  2.731427965E-07  0.00000E+00  9.000E+00
      21     1     1     2   511   512  2.628796689E+00  9.290769061E+00  2.707665524E+01  2.874672540E+01  4.768371582E-07  0.00000E+00  9.000E+00
      -4     1     1     2     0   511  1.970643752E-01  5.416770745E+00 -3.125121296E+02  3.125627320E+02  1.500000000E+00  0.00000E+00  9.000E+00
</event>
<event>
      5  10001  2.40292E+09  3.50980E+00 -1.00000E+00  2.77487E-01
       3    -1     0     0   514     0  0.000000000E+00  0.000000000E+00  1.205520515E+02  1.205520515E+02  0.000000000E+00  0.00000E+00  9.000E+00
      21    -1     0     0   511   512  0.000000000E+00  0.000000000E+00 -2.892375511E+01  2.892375511E+01  0.000000000E+00  0.00000E+00  9.000E+00
      21     1     1     2   511   513 -1.061474086E+01 -9.861775820E+00  6.773198627E+01  6.926434371E+01  1.348699152E-06  0.00000E+00  9.000E+00
       3     1     1     2   513     0  7.199691053E+00  9.052336910E+00  5.129686096E+01  5.258705448E+01  5.000000000E-01  0.00000E+00  9.000E+00
      21     1     1     2   514   512  3.415049803E+00  8.094389098E-01 -2.740055081E+01  2.762440843E+01  4.768371582E-07  0.00000E+00  9.000E+00
</event>
<event>
      5  10001  2.40292E+09  8.62221E+00 -1.00000E+00  2.03443E-01
      21    -1     0     0   513   512  0.000000000E+00  0.000000000E+00  6.502487399E+02  6.502487399E+02  0.000000000E+00  0.00000E+00  9.000E+00
      21    -1     0     0   516   515  0.000000000E+00  0.000000000E+00 -1.167048556E+01  1.167048556E+01  0.000000000E+00  0.00000E+00  9.000E+00
      21     1     1     2   516   511  7.109957199E+00 -8.302049592E+00 -8.506762787E+00  1.385065096E+01  1.192092896E-07  0.00000E+00  9.000E+00
      21     1     1     2   511   512 -7.391007587E+00  1.691968048E+01  5.940808415E+02  5.943676883E+02  1.525878906E-05  0.00000E+00  9.000E+00
      21     1     1     2   513   515  2.810503885E-01 -8.617630892E+00  5.300417564E+01  5.370088628E+01  9.536743164E-07  0.00000E+00  9.000E+00
</event>
<event>
      5  10001  2.40292E+09  3.32195E+00 -1.00000E+00  2.83923E-01
      21    -1     0     0   514   511  0.000000000E+00  0.000000000E+00  2.667211915E-01  2.667211915E-01  0.000000000E+00  0.00000E+00  9.000E+00
       2    -1     0     0   513     0  0.000000000E+00  0.000000000E+00 -1.317082855E+03  1.317082855E+03  0.000000000E+00  0.00000E+00  9.000E+00
       1     1     1     2   513     0 -1.039961889E+01  7.788183062E-01 -2.512422674E+02  2.514588326E+02  3.300000131E-01  0.00000E+00  9.000E+00
       2     1     1     2   514     0  1.303099579E+01  1.246719807E+00 -1.041957251E+03  1.042039531E+03  3.300000131E-01  0.00000E+00  9.000E+00
      -1     1     1     2     0   511 -2.631376899E+00 -2.025538114E+00 -2.361661506E+01  2.385121288E+01  3.300000131E-01  0.00000E+00  9.000E+00
</event>
<event>
      5  10001 -2.40292E+09  2.41297E+01 -1.00000E+00  1.59874E-01
      -3    -1     0     0     0   511  0.000000000E+00  0.000000000E+00  7.340981980E+02  7.340981980E+02  0.000000000E+00  0.00000E+00  9.000E+00
      21    -1     0     0   512   514  0.000000000E+00  0.000000000E+00 -2.699761250E+01  2.699761250E+01  0.000000000E+00  0.00000E+00  9.000E+00
      -3     1     1     2     0   514  6.063310030E-01 -1.476340702E+01  7.284412370E+02  7.285912514E+02  5.000000000E-01  0.00000E+00  9.000E+00
      21     1     1     2   512   513  8.866116340E+00  2.910545538E+00 -8.648532871E+00  1.272306626E+01  7.052516679E-07  0.00000E+00  9.000E+00
      21     1     1     2   513   511 -9.472447343E+00  1.185286148E+01 -1.269211864E+01  1.978149286E+01  6.307962682E-07  0.00000E+00  9.000E+00
</event>
<event>
      5  10001  2.40292E+09  4.52483E+00 -1.00000E+00  2.51363E-01
       2    -1     0     0   514     0  0.000000000E+00  0.000000000E+00  8.625309034E+01  8.625309034E+01  0.000000000E+00  0.00000E+00  9.000E+00
       2    -1     0     0   515     0  0.000000000E+00  0.000000000E+00 -2.454725429E+01  2.454725429E+01  0.000000000E+00  0.00000E+00  9.000E+00
      21     1     1     2   515   513  1.210538325E+01  9.754448011E+00  3.619348704E+00  1.596211906E+01  4.172325134E-07  0.00000E+00  9.000E+00
       2     1     1     2   513     0 -7.939311810E+00 -1.151985335E+01  7.552941437E+01  7.681497919E+01  3.300000131E-01  0.00000E+00  9.000E+00
       2     1     1     2   514     0 -4.166071444E+00  1.765405335E+00 -1.744292702E+01  1.802324639E+01  3.300000131E-01  0.00000E+00  9.000E+00
</event>
<event>
      5  10001  2.40292E+09  7.04900E+00 -1.00000E+00  2.15055E-01
      21    -1     0     0   512   513  0.000000000E+00  0.000000000E+00  1.922279654E+00  1.922279654E+00  0.000000000E+00  0.00000E+00  9.000E+00
       2    -1     0     0   513     0  0.000000000E+00  0.000000000E+00 -3.356685226E+02  3.356685226E+02  0.000000000E+00  0.00000E+00  9.000E+00
      21     1     1     2   515   511 -9.188514199E+00 -9.286824196E+00 -3.202830800E+01  3.459026467E+01  8.259061849E-07  0.00000E+00  9.000E+00
       2     1     1     2   511     0  7.404463539E+00  1.604624956E+01 -2.670759501E+02  2.676601954E+02  3.300000131E-01  0.00000E+00  9.000E+00
      21     1     1     2   512   515  1.784050660E+00 -6.759425364E+00 -3.464198481E+01  3.534034210E+01  6.743495762E-07  0.00000E+00  9.000E+00
</event>
<event>
      5  10001  2.40292E+09  5.69373E+00 -1.00000E+00  2.28984E-01
      21    -1     0     0   514   513  0.000000000E+00  0.000000000E+00  1.900471321E+01  1.900471321E+01  0.000000000E+00  0.00000E+00  9.000E+00
       2    -1     0     0   511     0  0.000000000E+00  0.000000000E+00 -3.974413501E+02  3.974413501E+02  0.000000000E+00  0.00000E+00  9.000E+00
      21     1     1     2   511   516 -3.636916353E+00 -3.956326660E+00  9.361984126E+00  1.079474076E+01  3.576278687E-07  0.00000E+00  9.000E+00
       2     1     1     2   514     0  1.761365931E+00  1.000266804E+01 -3.955290411E+02  3.956595595E+02  3.300000131E-01  0.00000E+00  9.000E+00
      21     1     1     2   516   513  1.875550422E+00 -6.046341382E+00  7.730420098E+00  9.991763027E+00  5.462855929E-07  0.00000E+00  9.000E+00
</event>
<event>
      5  10001  2.40292E+09  1.74802E+01 -1.00000E+00  1.71299E-01
       2    -1     0     0   515     0  0.000000000E+00  0.000000000E+00  7.589163826E+02  7.589163826E+02  0.000000000E+00  0.00000E+00  9.000E+00
      21    -1     0     0   512   514  0.000000000E+00  0.000000000E+00 -3.066844533E-01  3.066844533E-01  0.000000000E+00  0.00000E+00  9.000E+00
      21     1     1     2   515   511  3.846334119E+00  6.194728452E-01  1.009707587E+02  1.010458913E+02  0.000000000E+00  0.00000E+00  9.000E+00
       2     1     1     2   512     0 -2.912254986E+00 -1.065445517E+01  1.384011651E+02  1.388416005E+02  3.300000131E-01  0.00000E+00  9.000E+00
      21     1     1     2   511   514 -9.340791327E-01  1.003498232E+01  5.192377743E+02  5.193355752E+02  7.629394531E-06  0.00000E+00  9.000E+00
</event>
<event>
      5  10001  2.40292E+09  5.22491E+00 -1.00000E+00  2.35139E-01
      21    -1     0     0   513   512  0.000000000E+00  0.000000000E+00  3.066877506E+01  3.066877506E+01  0.000000000E+00  0.00000E+00  9.000E+00
      21    -1     0     0   511   515  0.000000000E+00  0.000000000E+00 -1.064850562E+02  1.064850562E+02  0.000000000E+00  0.00000E+00  9.000E+00
      21     1     1     2   513   516  1.658305130E+00 -1.282516905E+01 -3.115164646E+01  3.372921603E+01  4.768371582E-07  0.00000E+00  9.000E+00
      21     1     1     2   511   512 -3.408308472E+00  7.902038238E+00  2.865484251E+01  2.991920410E+01  3.371747881E-07  0.00000E+00  9.000E+00
      21     1     1     2   516   515  1.750003342E+00  4.923130809E+00 -7.331947719E+01  7.350541112E+01  9.536743164E-07  0.00000E+00  9.000E+00
</event>
<event>
      5  10001  2.40292E+09  3.07954E+00 -1.00000E+00  2.93326E-01
      21    -1     0     0   514   515  0.000000000E+00  0.000000000E+00  1.114157963E+00  1.114157963E+00  0.000000000E+00  0.00000E+00  9.000E+00
      -2    -1     0     0     0   511  0.000000000E+00  0.000000000E+00 -2.104059444E+02  2.104059444E+02  0.000000000E+00  0.00000E+00  9.000E+00
      -2     1     1     2     0   512 -7.935891707E+00 -1.198662655E+01 -1.167451287E+02  1.176273419E+02  3.300000131E-01  0.00000E+00  9.000E+00
      21     1     1     2   512   515  5.964807546E+00  9.621025252E+00 -5.143484600E+01  5.266579952E+01  9.536743164E-07  0.00000E+00  9.000E+00
      21     1     1     2   514   511  1.971084160E+00  2.365601297E+00 -4.111181181E+01  4.122696099E+01  8.259061849E-07  0.00000E+00  9.000E+00
</event>
<event>
      5  10001  2.40292E+09  9.11712E+00 -1.00000E+00  2.00454E-01
       1    -1     0     0   511     0  0.000000000E+00  0.000000000E+00  8.139674385E+00  8.139674385E+00  0.000000000E+00  0.00000E+00  9.000E+00
       2    -1     0     0   513     0  0.000000000E+00  0.000000000E+00 -2.066857975E+01  2.066857975E+01  0.000000000E+00  0.00000E+00  9.000E+00
      21     1     1     2   513   512  5.283476515E+00 -6.570059908E-01 -3.550103116E+00  6.399219725E+00  9.424321831E-08  0.00000E+00  9.000E+00
       2     1     1     2   511     0 -9.593645531E+00  4.727060658E+00 -1.171971382E+01  1.586958503E+01  3.300000131E-01  0.00000E+00  9.000E+00
       1     1     1     2   512     0  4.310169016E+00 -4.070054667E+00  2.740911570E+00  6.539449379E+00  3.300000131E-01  0.00000E+00  9.000E+00
</event>
<event>
      5  10001  2.40292E+09  6.20699E+00 -1.00000E+00  2.23131E-01
      21    -1     0     0   513   515  0.000000000E+00  0.000000000E+00  5.463460128E+01  5.463460128E+01  0.000000000E+00  0.00000E+00  9.000E+00
      -3    -1     0     0     0   511  0.000000000E+00  0.000000000E+00 -5.173619895E+01  5.173619895E+01  0.000000000E+00  0.00000E+00  9.000E+00
      -3     1     1     2     0   515  9.279612523E+00  5.121451620E+00 -3.990875029E+01  4.129526395E+01  5.000000000E-01  0.00000E+00  9.000E+00
      21     1     1     2   513   514 -1.295983263E+01 -1.233945926E-01  5.221790824E+01  5.380225301E+01  6.743495762E-07  0.00000E+00  9.000E+00
      21     1     1     2   514   511  3.680220106E+00 -4.998057028E+00 -9.410755625E+00  1.127328326E+01  1.192092896E-07  0.00000E+00  9.000E+00
</event>
<event>
      5  10001  2.40292E+09  6.75973E+00 -1.00000E+00  2.17647E-01
      21    -1     0     0   512   514  0.000000000E+00  0.000000000E+00  5.833471534E+00  5.833471534E+00  0.000000000E+00  0.00000E+00  9.000E+00
      21    -1     0     0   513   515  0.000000000E+00  0.000000000E+00 -5.448013703E+02  5.448013703E+02  0.000000000E+00  0.00000E+00  9.000E+00
      21     1     1     2   513   514  2.547163733E+01 -1.170784730E+01 -3.858702688E+01  4.769524757E+01  4.768371582E-07  0.00000E+00  9.000E+00
       5     1     1     2   512     0 -2.845679176E+01  5.691380408E+00 -1.750610270E+02  1.775150247E+02  4.800000191E+00  0.00000E+00  9.000E+00
      -5     1     1     2     0   515  2.985154431E+00  6.016466894E+00 -3.253198449E+02  3.254245696E+02  4.800000191E+00  0.00000E+00  9.000E+00
</event>
<event>
      5  10001  2.40292E+09  6.45369E+00 -1.00000E+00  2.20590E-01
      21    -1     0     0   511   514  0.000000000E+00  0.000000000E+00  1.326872276E+01  1.326872276E+01  0.000000000E+00  0.00000E+00  9.000E+00
      21    -1     0     0   513   512  0.000000000E+00  0.000000000E+00 -1.377428929E+02  1.377428929E+02  0.000000000E+00  0.00000E+00  9.000E+00
      21     1     1     2   511   516 -1.136982031E+01  9.060424266E+00 -7.758506747E+01  7.893545969E+01  0.000000000E+00  0.00000E+00  9.000E+00
      21     1     1     2   513   514  9.391324232E+00 -2.917489270E+00  1.046474761E+01  1.436035017E+01  6.529361695E-07  0.00000E+00  9.000E+00
      21     1     1     2   516   512  1.978496075E+00 -6.142934996E+00 -5.735385026E+01  5.771580578E+01  9.536743164E-07  0.00000E+00  9.000E+00
</event>
<event>
      5  10001  2.40292E+09  8.01828E+00 -1.00000E+00  2.07475E-01
      -2    -1     0     0     0   515  0.000000000E+00  0.000000000E+00  6.161802780E+01  6.161802780E+01  0.000000000E+00  0.00000E+00  9.000E+00
      21    -1     0     0   513   512  0.000000000E+00  0.000000000E+00 -4.443940035E+01  4.443940035E+01  0.000000000E+00  0.00000E+00  9.000E+00
      -2     1     1     2     0   512  9.774106738E+00 -7.698873884E+00  1.046781813E+01  1.626314662E+01  3.300000131E-01  0.00000E+00  9.000E+00
      21     1     1     2   511   515 -1.594087094E+01  2.574490531E+00  4.649033664E+01  4.921474138E+01  6.743495762E-07  0.00000E+00  9.000E+00
      21     1     1     2   513   511  6.166764205E+00  5.124383353E+00 -3.977952732E+01  4.057954015E+01  4.768371582E-07  0.00000E+00  9.000E+00
</event>
<event>
      5  10001  2.40292E+09  3.64894E+00 -1.00000E+00  2.73122E-01
      21    -1     0     0   514   511  0.000000000E+00  0.000000000E+00  9.413278713E-01  9.413278713E-01  0.000000000E+00  0.00000E+00  9.000E+00
      21    -1     0     0   512   516  0.000000000E+00  0.000000000E+00 -2.606019884E+02  2.606019884E+02  0.000000000E+00  0.00000E+00  9.000E+00
      21     1     1     2   514   516  1.163873018E+01 -3.720947434E+00 -1.314237863E+02  1.319905947E+02  3.303624740E-06  0.00000E+00  9.000E+00
      21     1     1     2   513   511 -8.066494891E+00  4.465172741E+00 -3.349971595E+01  3.474531732E+01  1.261592536E-06  0.00000E+00  9.000E+00
      21     1     1     2   512   513 -3.572235292E+00 -7.442253075E-01 -9.473715833E+01  9.480740427E+01  1.348699152E-06  0.00000E+00  9.000E+00
</event>
<event>
      5  10001  2.40292E+09  3.31841E+00 -1.00000E+00  2.84051E-01
      21    -1     0     0   515   513  0.000000000E+00  0.000000000E+00  7.049105571E+00  7.049105571E+00  0.000000000E+00  0.00000E+00  9.000E+00
      21    -1     0     0   512   515  0.000000000E+00  0.000000000E+00 -6.979864197E+01  6.979864197E+01  0.000000000E+00  0.00000E+00  9.000E+00
      21     1     1     2   512   517  6.213907867E+00 -1.005919713E+01 -6.269654251E+01  6.380169701E+01  6.743495762E-07  0.00000E+00  9.000E+00
      21     1     1     2   517   511 -2.715660518E+00  8.967141703E+00  2.120937949E-01  9.371735492E+00  1.820824952E-07  0.00000E+00  9.000E+00
      21     1     1     2   511   513 -3.498247349E+00  1.092055429E+00 -2.650876857E-01  3.674315046E+00  7.867333323E-08  0.00000E+00  9.000E+00
</event>
<event>
      5  10001  2.40292E+09  8.30083E+00 -1.00000E+00  2.05532E-01
       2    -1     0     0   515     0  0.000000000E+00  0.000000000E+00  4.050215400E+01  4.050215400E+01  0.000000000E+00  0.00000E+00  9.000E+00
      21    -1     0     0   511   514  0.000000000E+00  0.000000000E+00 -1.202250768E+01  1.202250768E+01  0.000000000E+00  0.00000E+00  9.000E+00
      21     1     1     2   515   514  1.453383547E+01 -2.919517791E+00 -4.307885008E+00  1.543741659E+01  2.064765462E-07  0.00000E+00  9.000E+00
       2     1     1     2   512     0 -4.691313747E+00  1.899535730E+00  2.143774175E+01  2.202957857E+01  3.300000131E-01  0.00000E+00  9.000E+00
      21     1     1     2   511   512 -9.842521726E+00  1.019982061E+00  1.134978958E+01  1.505766651E+01  1.685873940E-07  0.00000E+00  9.000E+00
</event>
<event>
      5  10001  2.40292E+09  7.64435E+00 -1.00000E+00  2.10219E-01
      -1    -1     0     0     0   513  0.000000000E+00  0.000000000E+00  3.915163121E+00  3.915163121E+00  0.000000000E+00  0.00000E+00  9.000E+00
       2    -1     0     0   515     0  0.000000000E+00  0.000000000E+00 -9.313161553E+02  9.313161553E+02  0.000000000E+00  0.00000E+00  9.000E+00
      -1     1     1     2     0   512 -1.433928798E+01 -2.153060412E+00 -1.054224685E+01  1.793038532E+01  3.300000131E-01  0.00000E+00  9.000E+00
      21     1     1     2   515   513  7.090481253E+00  4.579787820E+00 -8.734783954E+01  8.775474035E+01  1.348699152E-06  0.00000E+00  9.000E+00
       2     1     1     2   512     0  7.248806724E+00 -2.426727409E+00 -8.295109058E+02  8.295461928E+02  3.300000131E-01  0.00000E+00  9.000E+00
</event>
<event>
      5  10001  2.40292E+09  3.26452E+00 -1.00000E+00  2.86030E-01
      21    -1     0     0   511   513  0.000000000E+00  0.000000000E+00  1.609361653E+02  1.609361653E+02  0.000000000E+00  0.00000E+00  9.000E+00
      21    -1     0     0   516   511  0.000000000E+00  0.000000000E+00 -1.089262157E+02  1.089262157E+02  0.000000000E+00  0.00000E+00  9.000E+00
      21     1     1     2   515   513 -7.339153742E+00  1.431424044E+01  1.598070093E+02  1.606145724E+02  1.907348633E-06  0.00000E+00  9.000E+00
      21     1     1     2   514   515  8.863422249E+00 -1.142742603E+01 -8.594635795E+01  8.715459118E+01  0.000000000E+00  0.00000E+00  9.000E+00
      21     1     1     2   516   514 -1.524268508E+00 -2.886814411E+00 -2.185070169E+01  2.209321743E+01  0.000000000E+00  0.00000E+00  9.000E+00
</event>
<event>
      5  10001  2.40292E+09  5.60169E+00 -1.00000E+00  2.30125E-01
      21    -1     0     0   512   514  0.000000000E+00  0.000000000E+00  3.995638835E+00  3.995638835E+00  0.000000000E+00  0.00000E+00  9.000E+00
      21    -1     0     0   513   517  0.000000000E+00  0.000000000E+00 -7.338255388E+01  7.338255388E+01  0.000000000E+00  0.00000E+00  9.000E+00
      21     1     1     2   512   517 -7.740549819E+00 -1.324747959E+01 -4.738059604E+01  4.980293874E+01  9.536743164E-07  0.00000E+00  9.000E+00
      21     1     1     2   513   511  7.232946526E+00  6.339575528E+00 -1.404487945E+01  1.702246669E+01  3.769728732E-07  0.00000E+00  9.000E+00
      21     1     1     2   511   514  5.076032926E-01  6.907904059E+00 -7.961439553E+00  1.055278728E+01  2.665600750E-07  0.00000E+00  9.000E+00
</event>
<event>
      5  10001  2.40292E+09  8.00006E+00 -1.00000E+00  2.07604E-01
      21    -1     0     0   511   514  0.000000000E+00  0.000000000E+00  1.462559623E+01  1.462559623E+01  0.000000000E+00  0.00000E+00  9.000E+00
      21    -1     0     0   514   512  0.000000000E+00  0.000000000E+00 -8.572218601E+00  8.572218601E+00  0.000000000E+00  0.00000E+00  9.000E+00
      21     1     1     2   513   512  3.157614903E+00 -1.185772782E+00 -4.483823864E+00  5.610816822E+00  1.032382731E-07  0.00000E+00  9.000E+00
       3     1     1     2   511     0 -7.581360853E+00  4.222027259E+00  6.493942504E+00  1.085006156E+01  5.000000000E-01  0.00000E+00  9.000E+00
      -3     1     1     2     0   513  4.423745950E+00 -3.036254477E+00  4.043258988E+00  6.736936449E+00  5.000000000E-01  0.00000E+00  9.000E+00
</event>
<event>
      5  10001  2.40292E+09  1.45610E+01 -1.00000E+00  1.78559E-01
      21    -1     0     0   515   513  0.000000000E+00  0.000000000E+00  6.762272092E+02  6.762272092E+02  0.000000000E+00  0.00000E+00  9.000E+00
      21    -1     0     0   514   515  0.000000000E+00  0.000000000E+00 -1.066176738E+00  1.066176738E+00  0.000000000E+00  0.00000E+00  9.000E+00
      21     1     1     2   516   513  9.149737533E+00  1.360301196E+01  5.855114503E+02  5.857409138E+02  7.629394531E-06  0.00000E+00  9.000E+00
      21     1     1     2   511   516 -1.902606596E+00 -6.426112680E+00  5.576079384E+01  5.616209546E+01  9.536743164E-07  0.00000E+00  9.000E+00
      21     1     1     2   514   511 -7.247130938E+00 -7.176899284E+00  3.388878833E+01  3.539037672E+01  0.000000000E+00  0.00000E+00  9.000E+00
</event>
<event>
      5  10001  2.40292E+09  5.53842E+00 -1.00000E+00  2.30928E-01
      21    -1     0     0   512   511  0.000000000E+00  0.000000000E+00  7.547416276E-01  7.547416276E-01  0.000000000E+00  0.00000E+00  9.000E+00
      21    -1     0     0   513   517  0.000000000E+00  0.000000000E+00 -1.309522920E+03  1.309522920E+03  0.000000000E+00  0.00000E+00  9.000E+00
      21     1     1     2   512   517  1.537676798E+01  5.903032580E+00 -9.642330343E+01  9.781995825E+01  2.697398305E-06  0.00000E+00  9.000E+00
      21     1     1     2   515   511 -1.026940319E+00 -7.826044380E-01 -8.247026902E+01  8.248037553E+01  9.536743164E-07  0.00000E+00  9.000E+00
      21     1     1     2   513   515 -1.434982766E+01 -5.120428142E+00 -1.129874606E+03  1.129977328E+03  1.525878906E-05  0.00000E+00  9.000E+00
</event>
<event>
      5  10001  2.40292E+09  1.79944E+01 -1.00000E+00  1.70203E-01
      21    -1     0     0   513   511  0.000000000E+00  0.000000000E+00  2.009749705E+02  2.009749705E+02  0.000000000E+00  0.00000E+00  9.000E+00
       2    -1     0     0   514     0  0.000000000E+00  0.000000000E+00 -7.391015515E+01  7.391015515E+01  0.000000000E+00  0.00000E+00  9.000E+00
      21     1     1     2   514   511 -8.553881012E+00  1.512233398E+01  1.911957041E+02  1.919834658E+02  0.000000000E+00  0.00000E+00  9.000E+00
       2     1     1     2   512     0  8.926554452E+00 -8.375087475E-01 -6.760336927E+01  6.819610863E+01  3.300000131E-01  0.00000E+00  9.000E+00
      21     1     1     2   513   512 -3.726734407E-01 -1.428482524E+01  3.472480572E+00  1.470555129E+01  3.039252468E-07  0.00000E+00  9.000E+00
</event>
<event>
      5  10001  2.40292E+09  1.57192E+01 -1.00000E+00  1.75442E-01
      21    -1     0     0   515   512  0.000000000E+00  0.000000000E+00  6.810276757E+01  6.810276757E+01  0.000000000E+00  0.00000E+00  9.000E+00
      21    -1     0     0   511   516  0.000000000E+00  0.000000000E+00 -6.633141906E+00  6.633141906E+00  0.000000000E+00  0.00000E+00  9.000E+00
      21     1     1     2   515   516  3.392734290E+00  1.035163483E+01  5.250606799E+01  5.362419384E+01  6.743495762E-07  0.00000E+00  9.000E+00
      21     1     1     2   511   514 -7.194382343E+00 -6.348405278E-02  4.165988652E-01  7.206713685E+00  1.815099674E-07  0.00000E+00  9.000E+00
      21     1     1     2   514   512  3.801648053E+00 -1.028815078E+01  8.546958810E+00  1.390500195E+01  2.920019320E-07  0.00000E+00  9.000E+00
</event>
<event>
      5  10001  2.40292E+09  8.56134E+00 -1.00000E+00  2.03829E-01
      21    -1     0     0   513   514  0.000000000E+00  0.000000000E+00  9.694360664E+01  9.694360664E+01  0.000000000E+00  0.00000E+00  9.000E+00
      21    -1     0     0   512   513  0.000000000E+00  0.000000000E+00 -5.142043785E+01  5.142043785E+01  0.000000000E+00  0.00000E+00  9.000E+00
      21     1     1     2   511   514  1.832406311E+00 -1.018555263E+01  9.604215524E+01  9.659813030E+01  2.336015456E-06  0.00000E+00  9.000E+00
      21     1     1     2   515   511 -2.168437611E+00  2.779102927E+00 -1.079429887E+01  1.135528172E+01  3.576278687E-07  0.00000E+00  9.000E+00
      21     1     1     2   512   515  3.360312996E-01  7.406449704E+00 -3.972468758E+01  4.041063248E+01  1.507891493E-06  0.00000E+00  9.000E+00
</event>
<event>
      5  10001  2.40292E+09  3.17136E+00 -1.00000E+00  2.89602E-01
      21    -1     0     0   516   514  0.000000000E+00  0.000000000E+00  5.096496503E+00  5.096496503E+00  0.000000000E+00  0.00000E+00  9.000E+00
      21    -1     0     0   512   511  0.000000000E+00  0.000000000E+00 -8.333383142E+02  8.333383142E+02  0.000000000E+00  0.00000E+00  9.000E+00
      21     1     1     2   512   517  1.017585509E+00 -1.030416140E+01 -9.429880371E+00  1.400478012E+01  2.064765462E-07  0.00000E+00  9.000E+00
      21     1     1     2   517   514  2.094765679E+00  9.695250418E+00 -5.959866228E+00  1.157177296E+01  1.685873940E-07  0.00000E+00  9.000E+00
      21     1     1     2   516   511 -3.112351188E+00  6.089109791E-01 -8.128520711E+02  8.128582576E+02  1.525878906E-05  0.00000E+00  9.000E+00
</event>
<event>
      5  10001  2.40292E+09  8.00204E+00 -1.00000E+00  2.07590E-01
      21    -1     0     0   513   511  0.000000000E+00  0.000000000E+00  1.304058118E+01  1.304058118E+01  0.000000000E+00  0.00000E+00  9.000E+00
      21    -1     0     0   512   515  0.000000000E+00  0.000000000E+00 -5.348682538E+01  5.348682538E+01  0.000000000E+00  0.00000E+00  9.000E+00
      21     1     1     2   513   515 -1.420431594E+01  3.080482565E+00  7.039825487E+00  1.614964727E+01  1.685873940E-07  0.00000E+00  9.000E+00
      21     1     1     2   512   514  4.217276928E+00 -3.319848345E+00 -2.767280016E+01  2.818848500E+01  3.371747881E-07  0.00000E+00  9.000E+00
      21     1     1     2   514   511  9.987039010E+00  2.393657797E-01 -1.981326953E+01  2.218927429E+01  3.371747881E-07  0.00000E+00  9.000E+00
</event>
<event>
      5  10001  2.40292E+09  1.46282E+01 -1.00000E+00  1.78369E-01
      21    -1     0     0   516   512  0.000000000E+00  0.000000000E+00  1.288941528E+01  1.288941528E+01  0.000000000E+00  0.00000E+00  9.000E+00
      21    -1     0     0   517   511  0.000000000E+00  0.000000000E+00 -1.181188932E+01  1.181188932E+01  0.000000000E+00  0.00000E+00  9.000E+00
      21     1     1     2   516   511 -8.096975641E+00  5.434098835E+00 -1.477961983E-01  9.752552916E+00  4.660336674E-08  0.00000E+00  9.000E+00
      21     1     1     2   513   512  2.890703042E+00  2.552046679E-01 -4.492593049E+00  5.348334863E+00  1.032382731E-07  0.00000E+00  9.000E+00
      21     1     1     2   517   513  5.206272599E+00 -5.689303503E+00  5.717915215E+00  9.600416820E+00  1.685873940E-07  0.00000E+00  9.000E+00
</event>
<event>
      5  10001  2.40292E+09  7.64228E+00 -1.00000E+00  2.10235E-01
      21    -1     0     0   514   512  0.000000000E+00  0.000000000E+00  1.157863235E+01  1.157863235E+01  0.000000000E+00  0.00000E+00  9.000E+00
      21    -1     0     0   515   514  0.000000000E+00  0.000000000E+00 -6.387801913E+01  6.387801913E+01  0.000000000E+00  0.00000E+00  9.000E+00
      21     1     1     2   513   512 -4.532309192E+00  8.562374571E+00  7.755292439E+00  1.240969966E+01  2.230201594E-07  0.00000E+00  9.000E+00
      21     1     1     2   511   513  7.198461645E+00 -4.097116060E+00 -5.555749903E+01  5.617152222E+01  6.743495762E-07  0.00000E+00  9.000E+00
      21     1     1     2   515   511 -2.666152453E+00 -4.465258511E+00 -4.497180197E+00  6.875429601E+00  1.332800375E-07  0.00000E+00  9.000E+00
</event>
<event>
      5  10001  2.40292E+09  5.86925E+00 -1.00000E+00  2.26889E-01
      21    -1     0     0   516   511  0.000000000E+00  0.000000000E+00  2.688938817E+01  2.688938817E+01  0.000000000E+00  0.00000E+00  9.000E+00
      21    -1     0     0   515   516  0.000000000E+00  0.000000000E+00 -1.787955782E+01  1.787955782E+01  0.000000000E+00  0.00000E+00  9.000E+00
      21     1     1     2   515   517 -9.431301172E+00 -3.983721032E+00 -1.489958289E+01  1.807808190E+01  1.685873940E-07  0.00000E+00  9.000E+00
      21     1     1     2   512   511  4.880816042E+00 -9.001759805E-01  1.282223621E+01  1.374926992E+01  0.000000000E+00  0.00000E+00  9.000E+00
      21     1     1     2   517   512  4.550485130E+00  4.883897013E+00  1.108717704E+01  1.294159417E+01  2.064765462E-07  0.00000E+00  9.000E+00
</event>
<event>
      5  10001  2.40292E+09  6.14243E+00 -1.00000E+00  2.23824E-01
      21    -1     0     0   513   512  0.000000000E+00  0.000000000E+00  7.765529167E-01  7.765529167E-01  0.000000000E+00  0.00000E+00  9.000E+00
      21    -1     0     0   515   514  0.000000000E+00  0.000000000E+00 -1.638660217E+02  1.638660217E+02  0.000000000E+00  0.00000E+00  9.000E+00
      21     1     1     2   513   514  5.772658749E+00  9.046214192E+00 -6.444083447E+01  6.532823836E+01  1.348699152E-06  0.00000E+00  9.000E+00
      21     1     1     2   511   512 -2.350355481E+00 -1.720775803E+00 -4.073438503E+01  4.083840551E+01  0.000000000E+00  0.00000E+00  9.000E+00
      21     1     1     2   515   511 -3.422303268E+00 -7.325438389E+00 -5.791424927E+01  5.847593074E+01  0.000000000E+00  0.00000E+00  9.000E+00
</event>
<event>
      5  10001  2.40292E+09  5.33264E+00 -1.00000E+00  2.33646E-01
      21    -1     0     0   516   511  0.000000000E+00  0.000000000E+00  6.014130056E+01  6.014130056E+01  0.000000000E+00  0.00000E+00  9.000E+00
      21    -1     0     0   515   517  0.000000000E+00  0.000000000E+00 -2.694505535E+01  2.694505535E+01  0.000000000E+00  0.00000E+00  9.000E+00
      21     1     1     2   516   517  1.324413089E+01  1.140600272E+01  5.522290275E+01  5.792299103E+01  9.536743164E-07  0.00000E+00  9.000E+00
      21     1     1     2   512   511 -6.362976203E+00 -1.018019651E+01 -1.545253021E+01  1.956794719E+01  6.307962682E-07  0.00000E+00  9.000E+00
      21     1     1     2   515   512 -6.881154684E+00 -1.225806203E+00 -6.574127326E+00  9.595417694E+00  2.920019320E-07  0.00000E+00  9.000E+00
</event>
<event>
      5  10001  2.40292E+09  8.52714E+00 -1.00000E+00  2.04048E-01
      21    -1     0     0   513   512  0.000000000E+00  0.000000000E+00  3.008393543E+01  3.008393543E+01  0.000000000E+00  0.00000E+00  9.000E+00
      21    -1     0     0   515   514  0.000000000E+00  0.000000000E+00 -1.969079285E+01  1.969079285E+01  0.000000000E+00  0.00000E+00  9.000E+00
      21     1     1     2   513   514 -1.022903092E+01 -1.284723924E+00 -1.624601081E+01  1.924100976E+01  2.384185791E-07  0.00000E+00  9.000E+00
      21     1     1     2   515   511  3.817697376E+00  5.130567299E+00  1.803437919E+01  1.913469014E+01  2.384185791E-07  0.00000E+00  9.000E+00
      21     1     1     2   511   512  6.411333544E+00 -3.845843375E+00  8.604774201E+00  1.139902839E+01  2.064765462E-07  0.00000E+00  9.000E+00
</event>
<event>
      5  10001  2.40292E+09  5.67419E+00 -1.00000E+00  2.29223E-01
      21    -1     0     0   516   512  0.000000000E+00  0.000000000E+00  1.530481696E+02  1.530481696E+02  0.000000000E+00  0.00000E+00  9.000E+00
      -4    -1     0     0     0   516  0.000000000E+00  0.000000000E+00 -5.640859666E+00  5.640859666E+00  0.000000000E+00  0.00000E+00  9.000E+00
      -4     1     1     2     0   513  5.635393183E+00  1.061370053E+01  2.331383952E+00  1.233262528E+01  1.500000000E+00  0.00000E+00  9.000E+00
      21     1     1     2   511   512 -8.921594100E+00 -8.554132191E+00  1.349233729E+02  1.354883189E+02  0.000000000E+00  0.00000E+00  9.000E+00
      21     1     1     2   513   511  3.286200917E+00 -2.059568336E+00  1.015255315E+01  1.086808510E+01  1.685873940E-07  0.00000E+00  9.000E+00
</event>
<event>
      5  10001  2.40292E+09  2.79239E+00 -1.00000E+00  3.06501E-01
      21    -1     0     0   514   511  0.000000000E+00  0.000000000E+00  1.678231468E+01  1.678231468E+01  0.000000000E+00  0.00000E+00  9.000E+00
      21    -1     0     0   513   515  0.000000000E+00  0.000000000E+00 -1.387074002E+01  1.387074002E+01  0.000000000E+00  0.00000E+00  9.000E+00
      21     1     1     2   514   515 -1.295112843E+01  7.283665871E+00  4.640707951E+00  1.556662091E+01  2.384185791E-07  0.00000E+00  9.000E+00
      21     1     1     2   512   511  4.269941982E+00 -1.947785679E+00 -1.374448754E+00  4.890335669E+00  1.163817894E-07  0.00000E+00  9.000E+00
      21     1     1     2   513   512  8.681186452E+00 -5.335880192E+00 -3.546845370E-01  1.019609811E+01  1.868596107E-07  0.00000E+00  9.000E+00
</event>
<event>
      5  10001  2.40292E+09  1.94052E+01 -1.00000E+00  1.67416E-01
      21    -1     0     0   513   511  0.000000000E+00  0.000000000E+00  6.078465333E+00  6.078465333E+00  0.000000000E+00  0.00000E+00  9.000E+00
       2    -1     0     0   512     0  0.000000000E+00  0.000000000E+00 -1.082848019E+02  1.082848019E+02  0.000000000E+00  0.00000E+00  9.000E+00
      21     1     1     2   512   511 -2.696835353E+00  1.350829835E+01 -3.497839926E+00  1.421203467E+01  3.209808354E-07  0.00000E+00  9.000E+00
      21     1     1     2   513   514  2.551189538E+00 -4.632325388E+00 -1.378838607E+01  1.476775531E+01  0.000000000E+00  0.00000E+00  9.000E+00
       2     1     1     2   514     0  1.456458150E-01 -8.875972960E+00 -8.492011059E+01  8.538347727E+01  3.300000131E-01  0.00000E+00  9.000E+00
</event>
<event>
      5  10001  2.40292E+09  3.10661E+00 -1.00000E+00  2.92206E-01
      21    -1     0     0   515   512  0.000000000E+00  0.000000000E+00  5.751452390E+01  5.751452390E+01  0.000000000E+00  0.00000E+00  9.000E+00
      21    -1     0     0   511   515  0.000000000E+00  0.000000000E+00 -1.014235397E+01  1.014235397E+01  0.000000000E+00  0.00000E+00  9.000E+00
      21     1     1     2   517   512  2.130788154E+00 -8.633433310E+00  5.097676436E+01  5.174656446E+01  9.536743164E-07  0.00000E+00  9.000E+00
      21     1     1     2   516   517 -4.549190755E+00  1.058339312E+01 -4.933165770E+00  1.253153905E+01  3.264680848E-07  0.00000E+00  9.000E+00
      21     1     1     2   511   516  2.418402601E+00 -1.949959808E+00  1.328571349E+00  3.378774367E+00  6.495265579E-08  0.00000E+00  9.000E+00
</event>
<event>
      5  10001  2.40292E+09  6.71599E+00 -1.00000E+00  2.18055E-01
      21    -1     0     0   513   512  0.000000000E+00  0.000000000E+00  6.543373470E+02  6.543373470E+02  0.000000000E+00  0.00000E+00  9.000E+00
      21    -1     0     0   511   515  0.000000000E+00  0.000000000E+00 -3.259898687E+01  3.259898687E+01  0.000000000E+00  0.00000E+00  9.000E+00
      21     1     1     2   513   514  1.976948630E+00  1.073151134E+01  6.100341324E+02  6.101317205E+02  1.078959322E-05  0.00000E+00  9.000E+00
      21     1     1     2   511   512  3.713510506E+00 -1.429847041E+01  4.265127676E+01  4.513721110E+01  2.900487199E-06  0.00000E+00  9.000E+00
      21     1     1     2   514   515 -5.690459136E+00  3.566959067E+00 -3.094704904E+01  3.166740226E+01  1.011524364E-06  0.00000E+00  9.000E+00
</event>
<event>
      5  10001  2.40292E+09  1.00132E+01 -1.00000E+00  1.95633E-01
      21    -1     0     0   516   511  0.000000000E+00  0.000000000E+00  9.860031580E+01  9.860031580E+01  0.000000000E+00  0.00000E+00  9.000E+00
      21    -1     0     0   514   517  0.000000000E+00  0.000000000E+00 -1.709246731E+00  1.709246731E+00  0.000000000E+00  0.00000E+00  9.000E+00
      21     1     1     2   516   517 -1.042933006E+01 -3.718536045E+00  6.399036588E+01  6.494124545E+01  1.348699152E-06  0.00000E+00  9.000E+00
      21     1     1     2   514   512  1.592757529E+00  2.950714386E-01  6.352171281E-01  1.739955315E+00  6.495265579E-08  0.00000E+00  9.000E+00
      21     1     1     2   512   511  8.836572528E+00  3.423464606E+00  3.226548606E+01  3.362836176E+01  4.768371582E-07  0.00000E+00  9.000E+00
</event>
<event>
      5  10001  2.40292E+09  1.60924E+01 -1.00000E+00  1.74509E-01
      21    -1     0     0   513   512  0.000000000E+00  0.000000000E+00  3.837877232E+01  3.837877232E+01  0.000000000E+00  0.00000E+00  9.000E+00
      21    -1     0     0   511   513  0.000000000E+00  0.000000000E+00 -1.389517889E+01  1.389517889E+01  0.000000000E+00  0.00000E+00  9.000E+00
      21     1     1     2   514   512 -4.577005732E+00  6.907986419E+00  2.951994692E+01  3.066099353E+01  4.768371582E-07  0.00000E+00  9.000E+00
      -4     1     1     2     0   514  8.126440287E+00  2.918834498E+00 -6.561325276E+00  1.094804165E+01  1.500000000E+00  0.00000E+00  9.000E+00
       4     1     1     2   511     0 -3.549434555E+00 -9.826820917E+00  1.524971785E+00  1.066491603E+01  1.500000000E+00  0.00000E+00  9.000E+00
</event>
<event>
      5  10001  2.40292E+09  5.39230E+00 -1.00000E+00  2.32840E-01
      21    -1     0     0   512   514  0.000000000E+00  0.000000000E+00  1.585485914E+02  1.585485914E+02  0.000000000E+00  0.00000E+00  9.000E+00
      21    -1     0     0   511   515  0.000000000E+00  0.000000000E+00 -5.146982605E+00  5.146982605E+00  0.000000000E+00  0.00000E+00  9.000E+00
      21     1     1     2   516   514 -1.137237553E+01 -3.694306965E+00  9.589454123E+01  9.663716607E+01  2.336015456E-06  0.00000E+00  9.000E+00
      21     1     1     2   511   516  8.606355739E+00  8.323136503E+00  3.076760955E+00  1.236165112E+01  2.346637211E-07  0.00000E+00  9.000E+00
      21     1     1     2   512   515  2.766019790E+00 -4.628829538E+00  5.443030665E+01  5.469675686E+01  9.536743164E-07  0.00000E+00  9.000E+00
</event>
<event>
      5  10001  2.40292E+09  1.93021E+01 -1.00000E+00  1.67610E-01
      21    -1     0     0   513   511  0.000000000E+00  0.000000000E+00  1.843139353E+02  1.843139353E+02  0.000000000E+00  0.00000E+00  9.000E+00
      21    -1     0     0   516   517  0.000000000E+00  0.000000000E+00 -2.941845494E+01  2.941845494E+01  0.000000000E+00  0.00000E+00  9.000E+00
      21     1     1     2   513   517 -1.353951588E+01 -5.120868948E+00  1.625378292E+02  1.631811500E+02  1.907348633E-06  0.00000E+00  9.000E+00
      21     1     1     2   514   511  2.236723139E+01 -1.204428065E+01 -1.544630899E+01  2.973123270E+01  2.920019320E-07  0.00000E+00  9.000E+00
      21     1     1     2   516   514 -8.827715517E+00  1.716514959E+01  7.803960172E+00  2.082000759E+01  1.685873940E-07  0.00000E+00  9.000E+00
</event>
<event>
      5  10001  2.40292E+09  1.60672E+01 -1.00000E+00  1.74571E-01
      -1    -1     0     0     0   512  0.000000000E+00  0.000000000E+00  1.973009983E+00  1.973009983E+00  0.000000000E+00  0.00000E+00  9.000E+00
       1    -1     0     0   511     0  0.000000000E+00  0.000000000E+00 -6.529478964E+01  6.529478964E+01  0.000000000E+00  0.00000E+00  9.000E+00
      21     1     1     2   515   512 -2.841949443E-01 -4.677583332E+00 -7.981022572E+00  9.255121495E+00  2.064765462E-07  0.00000E+00  9.000E+00
       1     1     1     2   511     0  3.857816356E+00  1.607380999E-01 -5.000345145E+01  5.015339112E+01  3.300000131E-01  0.00000E+00  9.000E+00
      -1     1     1     2     0   515 -3.573621412E+00  4.516845232E+00 -5.337305632E+00  7.859287007E+00  3.300000131E-01  0.00000E+00  9.000E+00
</event>
<event>
      5  10001  2.40292E+09  4.62689E+00 -1.00000E+00  2.49314E-01
      -1    -1     0     0     0   513  0.000000000E+00  0.000000000E+00  3.484725906E+00  3.484725906E+00  0.000000000E+00  0.00000E+00  9.000E+00
      21    -1     0     0   513   514  0.000000000E+00  0.000000000E+00 -1.221568737E+02  1.221568737E+02  0.000000000E+00  0.00000E+00  9.000E+00
      -1     1     1     2     0   511  9.054356224E+00 -7.426160760E+00 -9.104372137E+00  1.483670187E+01  3.300000131E-01  0.00000E+00  9.000E+00
      21     1     1     2   515   514 -9.010310132E+00  4.500343861E+00 -1.042485340E+02  1.047339278E+02  1.907348633E-06  0.00000E+00  9.000E+00
      21     1     1     2   511   515 -4.404609275E-02  2.925816899E+00 -5.319241617E+00  6.070969936E+00  1.032382731E-07  0.00000E+00  9.000E+00
</event>
<event>
      5  10001  2.40292E+09  5.10501E+00 -1.00000E+00  2.36863E-01
       2    -1     0     0   512     0  0.000000000E+00  0.000000000E+00  1.138513556E+01  1.138513556E+01  0.000000000E+00  0.00000E+00  9.000E+00
       2    -1     0     0   511     0  0.000000000E+00  0.000000000E+00 -9.269392001E+01  9.269392001E+01  0.000000000E+00  0.00000E+00  9.000E+00
      21     1     1     2   511   513  1.305055926E+01 -3.929258848E-01 -2.313892290E+01  2.656842563E+01  7.539457465E-07  0.00000E+00  9.000E+00
       2     1     1     2   512     0 -7.953008284E+00  1.233330438E-01 -6.691091041E+01  6.738281964E+01  3.300000131E-01  0.00000E+00  9.000E+00
       2     1     1     2   513     0 -5.097550975E+00  2.695928409E-01  8.741048857E+00  1.012781030E+01  3.300000131E-01  0.00000E+00  9.000E+00
</event>
<event>
      5  10001  2.40292E+09  2.23598E+01 -1.00000E+00  1.62430E-01
       3    -1     0     0   513     0  0.000000000E+00  0.000000000E+00  2.574447817E+02  2.574447817E+02  0.000000000E+00  0.00000E+00  9.000E+00
      21    -1     0     0   511   512  0.000000000E+00  0.000000000E+00 -3.743873710E+01  3.743873710E+01  0.000000000E+00  0.00000E+00  9.000E+00
       3     1     1     2   513     0  1.417292481E+01  8.704875844E+00 -1.975797554E+01  2.583165226E+01  5.000000000E-01  0.00000E+00  9.000E+00
       3     1     1     2   511     0 -1.463261141E+01  1.364943215E+01  2.452165523E+02  2.460321683E+02  5.000000000E-01  0.00000E+00  9.000E+00
      -3     1     1     2     0   512  4.596865977E-01 -2.235430800E+01 -5.452532195E+00  2.301969820E+01  5.000000000E-01  0.00000E+00  9.000E+00
</event>
<event>
      5  10001  2.40292E+09  4.84874E+00 -1.00000E+00  2.45124E-01
      -3    -1     0     0     0   514  0.000000000E+00  0.000000000E+00  9.065856774E-01  9.065856774E-01  0.000000000E+00  0.00000E+00  9.000E+00
      21    -1     0     0   513   512  0.000000000E+00  0.000000000E+00 -2.451934890E+02  2.451934890E+02  0.000000000E+00  0.00000E+00  9.000E+00
      -3     1     1     2     0   512 -1.035316259E+01 -2.463653408E+00 -4.175859290E+01  4.309626022E+01  5.000000000E-01  0.00000E+00  9.000E+00
      21     1     1     2   511   514  7.058432744E+00  2.312244754E+00 -1.860750433E+02  1.862232254E+02  2.697398305E-06  0.00000E+00  9.000E+00
      21     1     1     2   513   511  3.294729847E+00  1.514086535E-01 -1.645326712E+01  1.678058903E+01  2.384185791E-07  0.00000E+00  9.000E+00
</event>
<event>
      5  10001  2.40292E+09  2.02128E+01 -1.00000E+00  1.65949E-01
      21    -1     0     0   513   511  0.000000000E+00  0.000000000E+00  6.528431563E+00  6.528431563E+00  0.000000000E+00  0.00000E+00  9.000E+00
       2    -1     0     0   514     0  0.000000000E+00  0.000000000E+00 -1.560142159E+02  1.560142159E+02  0.000000000E+00  0.00000E+00  9.000E+00
      21     1     1     2   514   511 -9.634498760E+00 -1.789204590E+01 -1.424957820E+01  2.481933423E+01  4.460403188E-07  0.00000E+00  9.000E+00
      21     1     1     2   513   512  1.010574807E+01  2.188219593E+00 -5.307720615E+01  5.407498739E+01  1.168007728E-06  0.00000E+00  9.000E+00
       2     1     1     2   512     0 -4.712493083E-01  1.570382630E+01 -8.215899995E+01  8.364832580E+01  3.300000131E-01  0.00000E+00  9.000E+00
</event>
<event>
      5  10001  2.40292E+09  2.10234E+01 -1.00000E+00  1.64560E-01
       2    -1     0     0   515     0  0.000000000E+00  0.000000000E+00  1.150383507E+02  1.150383507E+02  0.000000000E+00  0.00000E+00  9.000E+00
      21    -1     0     0   512   513  0.000000000E+00  0.000000000E+00 -1.366226189E+01  1.366226189E+01  0.000000000E+00  0.00000E+00  9.000E+00
      21     1     1     2   515   513 -7.376625731E+00 -1.187729576E+01 -9.470528214E+00  1.688714500E+01  5.591411304E-07  0.00000E+00  9.000E+00
      21     1     1     2   512   511  6.424669714E-01  1.159403929E+00  3.883313122E+00  4.103303801E+00  5.960464478E-08  0.00000E+00  9.000E+00
       2     1     1     2   511     0  6.734158760E+00  1.071789183E+01  1.069633039E+02  1.077101638E+02  3.300000131E-01  0.00000E+00  9.000E+00
</event>
<event>
      5  10001  2.40292E+09  9.90168E+00 -1.00000E+00  1.96196E-01
      -3    -1     0     0     0   514  0.000000000E+00  0.000000000E+00  3.268491335E+02  3.268491335E+02  0.000000000E+00  0.00000E+00  9.000E+00
      21    -1     0     0   512   515  0.000000000E+00  0.000000000E+00 -1.238059143E+00  1.238059143E+00  0.000000000E+00  0.00000E+00  9.000E+00
      -3     1     1     2     0   511  5.464442538E+00 -8.709974570E+00  1.681298148E+02  1.684446746E+02  5.000000000E-01  0.00000E+00  9.000E+00
      21     1     1     2   511   515 -1.497800454E+01  5.973521477E+00  1.057887271E+02  1.070106460E+02  2.697398305E-06  0.00000E+00  9.000E+00
      21     1     1     2   512   514  9.513562006E+00  2.736453093E+00  5.169253248E+01  5.263187202E+01  6.743495762E-07  0.00000E+00  9.000E+00
</event>
<event>
      5  10001  2.40292E+09  3.56080E+00 -1.00000E+00  2.75850E-01
      21    -1     0     0   511   513  0.000000000E+00  0.000000000E+00  1.938078634E+02  1.938078634E+02  0.000000000E+00  0.00000E+00  9.000E+00
      21    -1     0     0   514   515  0.000000000E+00  0.000000000E+00 -5.192804451E+00  5.192804451E+00  0.000000000E+00  0.00000E+00  9.000E+00
      -3     1     1     2     0   515 -6.193474941E-01  1.183351543E+01  3.542325421E+01  3.735602518E+01  5.000000000E-01  0.00000E+00  9.000E+00
      21     1     1     2   514   513  1.712778684E+00 -8.445664506E+00  2.095306294E-01  8.620137055E+00  9.204558358E-08  0.00000E+00  9.000E+00
       3     1     1     2   511     0 -1.093431190E+00 -3.387850925E+00  1.529822741E+02  1.530245056E+02  5.000000000E-01  0.00000E+00  9.000E+00
</event>
<event>
      5  10001  2.40292E+09  6.49105E+00 -1.00000E+00  2.20219E-01
       2    -1     0     0   515     0  0.000000000E+00  0.000000000E+00  4.310323362E+02  4.310323362E+02  0.000000000E+00  0.00000E+00  9.000E+00
      21    -1     0     0   513   515  0.000000000E+00  0.000000000E+00 -3.845898993E+00  3.845898993E+00  0.000000000E+00  0.00000E+00  9.000E+00
      21     1     1     2   512   511 -1.022925535E+01  3.457598264E-01  5.466923178E+00  1.160364011E+01  1.426781321E-06  0.00000E+00  9.000E+00
       2     1     1     2   511     0  9.207560033E+00 -6.755786182E+00  4.073144915E+02  4.074746909E+02  3.300000131E-01  0.00000E+00  9.000E+00
      21     1     1     2   513   512  1.021695314E+00  6.410026356E+00  1.440502252E+01  1.579990421E+01  4.129530925E-07  0.00000E+00  9.000E+00
</event>
<event>
      5  10001  2.40292E+09  4.49181E+00 -1.00000E+00  2.52043E-01
      21    -1     0     0   513   514  0.000000000E+00  0.000000000E+00  7.194327794E+00  7.194327794E+00  0.000000000E+00  0.00000E+00  9.000E+00
      -1    -1     0     0     0   512  0.000000000E+00  0.000000000E+00 -2.848092274E+01  2.848092274E+01  0.000000000E+00  0.00000E+00  9.000E+00
      -1     1     1     2     0   514 -7.417198399E+00  1.122807085E+01 -6.507232371E+00  1.495116652E+01  3.300000131E-01  0.00000E+00  9.000E+00
      21     1     1     2   511   512  4.370240602E+00 -6.303713071E+00 -1.213991026E+01  1.436012613E+01  1.685873940E-07  0.00000E+00  9.000E+00
      21     1     1     2   513   511  3.046957797E+00 -4.924357782E+00 -2.639452315E+00  6.363957880E+00  1.332800375E-07  0.00000E+00  9.000E+00
</event>
<event>
      5  10001  2.40292E+09  6.85978E+00 -1.00000E+00  2.16731E-01
      21    -1     0     0   512   511  0.000000000E+00  0.000000000E+00  2.261696765E+02  2.261696765E+02  0.000000000E+00  0.00000E+00  9.000E+00
      -4    -1     0     0     0   515  0.000000000E+00  0.000000000E+00 -6.407085349E+00  6.407085349E+00  0.000000000E+00  0.00000E+00  9.000E+00
      -4     1     1     2     0   514  1.714877736E+01  2.022387804E+00  1.041651424E+01  2.022187890E+01  1.500000000E+00  0.00000E+00  9.000E+00
      21     1     1     2   512   515 -1.475093481E+01 -4.519691746E+00  2.081064627E+02  2.086775443E+02  2.697398305E-06  0.00000E+00  9.000E+00
      21     1     1     2   514   511 -2.397842557E+00  2.497303942E+00  1.239614216E+00  3.677338618E+00  1.482646819E-07  0.00000E+00  9.000E+00
</event>
<event>
      5  10001  2.40292E+09  1.01819E+01 -1.00000E+00  1.94799E-01
      21    -1     0     0   514   511  0.000000000E+00  0.000000000E+00  6.424234362E+00  6.424234362E+00  0.000000000E+00  0.00000E+00  9.000E+00
       2    -1     0     0   512     0  0.000000000E+00  0.000000000E+00 -5.119587789E+02  5.119587789E+02  0.000000000E+00  0.00000E+00  9.000E+00
      21     1     1     2   514   513 -6.280887999E+00  9.061154315E+00  7.277710393E-01  1.104915030E+01  3.396353519E-07  0.00000E+00  9.000E+00
       2     1     1     2   513     0  4.013569296E+00 -1.898732276E+01 -4.239685677E+02  4.244126323E+02  3.300000131E-01  0.00000E+00  9.000E+00
      21     1     1     2   512   511  2.267318703E+00  9.926168449E+00 -8.229374788E+01  8.292123066E+01  1.348699152E-06  0.00000E+00  9.000E+00
</event>
<event>
      5  10001  2.40292E+09  5.61303E+00 -1.00000E+00  2.29983E-01
      21    -1     0     0   514   513  0.000000000E+00  0.000000000E+00  3.450691698E+01  3.450691698E+01  0.000000000E+00  0.00000E+00  9.000E+00
      21    -1     0     0   512   511  0.000000000E+00  0.000000000E+00 -1.821010357E+02  1.821010357E+02  0.000000000E+00  0.00000E+00  9.000E+00
      21     1     1     2   515   511  2.096318894E+01  6.560296276E+00 -7.699312201E+01  8.006518354E+01  0.000000000E+00  0.00000E+00  9.000E+00
      21     1     1     2   512   513 -2.357113460E+01 -1.589908555E+00 -1.019723435E+02  1.046732298E+02  0.000000000E+00  0.00000E+00  9.000E+00
      21     1     1     2   514   515  2.607945663E+00 -4.970387721E+00  3.137134682E+01  3.186953932E+01  5.840038640E-07  0.00000E+00  9.000E+00
</event>
<event>
      5  10001  2.40292E+09  6.59099E+00 -1.00000E+00  2.19243E-01
      21    -1     0     0   516   512  0.000000000E+00  0.000000000E+00  1.925996383E+01  1.925996383E+01  0.000000000E+00  0.00000E+00  9.000E+00
      21    -1     0     0   517   515  0.000000000E+00  0.000000000E+00 -3.198644689E+01  3.198644689E+01  0.000000000E+00  0.00000E+00  9.000E+00
      21     1     1     2   516   515 -1.163196926E+01 -1.030239163E+01 -1.945178859E+01  2.489606518E+01  3.371747881E-07  0.00000E+00  9.000E+00
      21     1     1     2   517   511  7.870367334E+00  4.890227785E+00 -6.672983937E+00  1.141865686E+01  1.192092896E-07  0.00000E+00  9.000E+00
      21     1     1     2   511   512  3.761601922E+00  5.412163843E+00  1.339828946E+01  1.493168868E+01  2.384185791E-07  0.00000E+00  9.000E+00
</event>
<event>
      5  10001  2.40292E+09  6.17250E+00 -1.00000E+00  2.23500E-01
      21    -1     0     0   511   512  0.000000000E+00  0.000000000E+00  1.434199555E+00  1.434199555E+00  0.000000000E+00  0.00000E+00  9.000E+00
      -1    -1     0     0     0   514  0.000000000E+00  0.000000000E+00 -4.016501024E+02  4.016501024E+02  0.000000000E+00  0.00000E+00  9.000E+00
      -1     1     1     2     0   512  1.480310327E+01  5.207094102E+00 -2.977749286E+02  2.981883007E+02  3.300000131E-01  0.00000E+00  9.000E+00
      21     1     1     2   511   513 -8.679485466E+00 -4.434444816E+00 -2.024941958E+01  2.247302299E+01  8.596304120E-07  0.00000E+00  9.000E+00
      21     1     1     2   513   514 -6.123617807E+00 -7.726492865E-01 -8.219155469E+01  8.242297825E+01  9.536743164E-07  0.00000E+00  9.000E+00
</event>
<event>
      5  10001  2.40292E+09  8.45260E+00 -1.00000E+00  2.04530E-01
      21    -1     0     0   515   514  0.000000000E+00  0.000000000E+00  7.400057861E+00  7.400057861E+00  0.000000000E+00  0.00000E+00  9.000E+00
      21    -1     0     0   511   516  0.000000000E+00  0.000000000E+00 -1.224985525E+02  1.224985525E+02  0.000000000E+00  0.00000E+00  9.000E+00
      21     1     1     2   515   516 -7.710700339E+00  1.153217326E+00  3.351520765E+00  8.486312589E+00  1.576990671E-07  0.00000E+00  9.000E+00
      21     1     1     2   512   514  1.259843225E+01 -8.049341077E+00 -4.371487029E+01  4.620067393E+01  1.066240300E-06  0.00000E+00  9.000E+00
      21     1     1     2   511   512 -4.887731916E+00  6.896123751E+00 -7.473514516E+01  7.521162389E+01  9.536743164E-07  0.00000E+00  9.000E+00
</event>
<event>
      5  10001  2.40292E+09  1.57293E+01 -1.00000E+00  1.75417E-01
      21    -1     0     0   513   512  0.000000000E+00  0.000000000E+00  6.448669033E+01  6.448669033E+01  0.000000000E+00  0.00000E+00  9.000E+00
      21    -1     0     0   511   517  0.000000000E+00  0.000000000E+00 -9.132175355E+00  9.132175355E+00  0.000000000E+00  0.00000E+00  9.000E+00
      21     1     1     2   513   517  4.984247290E+00  8.640429903E+00 -5.211642113E+00  1.125437530E+01  2.980232239E-07  0.00000E+00  9.000E+00
      21     1     1     2   511   514 -3.236981230E+00 -6.752599729E+00  1.538973214E+01  1.711489135E+01  2.384185791E-07  0.00000E+00  9.000E+00
      21     1     1     2   514   512 -1.747266061E+00 -1.887830173E+00  4.517642495E+01  4.524959903E+01  4.768371582E-07  0.00000E+00  9.000E+00
</event>
<event>
      5  10001  2.40292E+09  1.09041E+01 -1.00000E+00  1.91454E-01
      21    -1     0     0   515   511  0.000000000E+00  0.000000000E+00  1.632423791E+00  1.632423791E+00  0.000000000E+00  0.00000E+00  9.000E+00
      21    -1     0     0   516   512  0.000000000E+00  0.000000000E+00 -7.203184412E+01  7.203184412E+01  0.000000000E+00  0.00000E+00  9.000E+00
      21     1     1     2   515   512 -6.967025288E+00  4.955557642E+00 -2.465633659E+01  2.609658842E+01  4.768371582E-07  0.00000E+00  9.000E+00
      21     1     1     2   516   513  1.228004580E-01 -4.936303211E+00 -2.996448356E+01  3.036860953E+01  4.768371582E-07  0.00000E+00  9.000E+00
      21     1     1     2   513   511  6.844224830E+00 -1.925443141E-02 -1.577860017E+01  1.719906996E+01  1.685873940E-07  0.00000E+00  9.000E+00
</event>
<event>
      5  10001  2.40292E+09  1.01691E+01 -1.00000E+00  1.94861E-01
      21    -1     0     0   514   512  0.000000000E+00  0.000000000E+00  2.403645534E+02  2.403645534E+02  0.000000000E+00  0.00000E+00  9.000E+00
      21    -1     0     0   517   511  0.000000000E+00  0.000000000E+00 -7.263858612E-01  7.263858612E-01  0.000000000E+00  0.00000E+00  9.000E+00
      21     1     1     2   514   511 -1.098803548E+01 -5.042586108E+00  8.069101549E+01  8.159169430E+01  9.536743164E-07  0.00000E+00  9.000E+00
      21     1     1     2   515   512  9.834978889E-01  1.426412442E+00  5.094277485E+01  5.097222999E+01  9.536743164E-07  0.00000E+00  9.000E+00
      21     1     1     2   517   515  1.000453759E+01  3.616173666E+00  1.080043772E+02  1.085270150E+02  1.348699152E-06  0.00000E+00  9.000E+00
</event>
<event>
      5  10001  2.40292E+09  6.43384E+00 -1.00000E+00  2.20789E-01
      21    -1     0     0   513   512  0.000000000E+00  0.000000000E+00  1.244275143E+01  1.244275143E+01  0.000000000E+00  0.00000E+00  9.000E+00
       2    -1     0     0   515     0  0.000000000E+00  0.000000000E+00 -4.811726735E+02  4.811726735E+02  0.000000000E+00  0.00000E+00  9.000E+00
      21     1     1     2   515   511  8.120518234E+00 -2.475972250E+00  3.102169447E+00  9.038623250E+00  5.213277246E-07  0.00000E+00  9.000E+00
       2     1     1     2   513     0 -1.009735601E+01  5.445039355E+00 -4.776308988E+02  4.777687615E+02  3.300000131E-01  0.00000E+00  9.000E+00
      21     1     1     2   511   512  1.976837776E+00 -2.969067105E+00  5.798807226E+00  6.808040269E+00  3.153981341E-07  0.00000E+00  9.000E+00
</event>
<event>
      5  10001  2.40292E+09  4.75933E+00 -1.00000E+00  2.46771E-01
      21    -1     0     0   514   515  0.000000000E+00  0.000000000E+00  6.812617083E+02  6.812617083E+02  0.000000000E+00  0.00000E+00  9.000E+00
      21    -1     0     0   511   513  0.000000000E+00  0.000000000E+00 -4.180747544E-01  4.180747544E-01  0.000000000E+00  0.00000E+00  9.000E+00
      21     1     1     2   514   512 -3.926015680E+00 -8.769402468E+00  4.650899463E+02  4.651891810E+02  9.344061824E-06  0.00000E+00  9.000E+00
      21     1     1     2   511   515  8.585010287E+00  9.741513596E+00  1.469793423E+02  1.475517758E+02  4.264961200E-06  0.00000E+00  9.000E+00
      21     1     1     2   512   513 -4.658994607E+00 -9.721111276E-01  6.877434501E+01  6.893882624E+01  0.000000000E+00  0.00000E+00  9.000E+00
</event>
<event>
      5  10001  2.40292E+09  1.20786E+01 -1.00000E+00  1.86677E-01
      -3    -1     0     0     0   515  0.000000000E+00  0.000000000E+00  1.259298947E+00  1.259298947E+00  0.000000000E+00  0.00000E+00  9.000E+00
       2    -1     0     0   515     0  0.000000000E+00  0.000000000E+00 -2.640275444E+02  2.640275444E+02  0.000000000E+00  0.00000E+00  9.000E+00
      -3     1     1     2     0   513  8.774943425E+00  3.097487710E+00 -1.488131654E+02  1.491046688E+02  5.000000000E-01  0.00000E+00  9.000E+00
      21     1     1     2   513   511 -1.380622437E+01 -6.357120435E+00 -6.004928496E+01  6.194304994E+01  6.743495762E-07  0.00000E+00  9.000E+00
       2     1     1     2   511     0  5.031280942E+00  3.259632725E+00 -5.390579502E+01  5.423912453E+01  3.300000131E-01  0.00000E+00  9.000E+00
</event>
<event>
      5  10001  2.40292E+09  1.92411E+01 -1.00000E+00  1.67725E-01
      21    -1     0     0   512   513  0.000000000E+00  0.000000000E+00  2.167470542E+01  2.167470542E+01  0.000000000E+00  0.00000E+00  9.000E+00
      21    -1     0     0   515   514  0.000000000E+00  0.000000000E+00 -1.173884336E+01  1.173884336E+01  0.000000000E+00  0.00000E+00  9.000E+00
      21     1     1     2   512   514 -1.576116963E+00 -6.098604853E+00  6.653133273E+00  9.161948930E+00  1.685873940E-07  0.00000E+00  9.000E+00
      21     1     1     2   516   513 -2.349842230E+00  5.319776389E+00 -9.343828472E+00  1.100585798E+01  3.153981341E-07  0.00000E+00  9.000E+00
      21     1     1     2   515   516  3.925959193E+00  7.788284648E-01  1.262655726E+01  1.324574187E+01  2.384185791E-07  0.00000E+00  9.000E+00
</event>
<event>
      5  10001  2.40292E+09  5.83560E+00 -1.00000E+00  2.27282E-01
      21    -1     0     0   511   513  0.000000000E+00  0.000000000E+00  3.337314342E+00  3.337314342E+00  0.000000000E+00  0.00000E+00  9.000E+00
      21    -1     0     0   515   511  0.000000000E+00  0.000000000E+00 -5.927109354E+01  5.927109354E+01  0.000000000E+00  0.00000E+00  9.000E+00
      21     1     1     2   516   513  1.088721063E+01  6.292941415E+00 -1.586611466E+01  2.024514908E+01  2.384185791E-07  0.00000E+00  9.000E+00
      21     1     1     2   512   516 -4.265462920E+00 -2.481241269E+00 -2.485009601E+01  2.533531141E+01  3.371747881E-07  0.00000E+00  9.000E+00
      21     1     1     2   515   512 -6.621747707E+00 -3.811700146E+00 -1.521756852E+01  1.702794739E+01  3.371747881E-07  0.00000E+00  9.000E+00
</event>
<event>
      5  10001  2.40292E+09  6.03106E+00 -1.00000E+00  2.25046E-01
      21    -1     0     0   514   512  0.000000000E+00  0.000000000E+00  1.280948888E+01  1.280948888E+01  0.000000000E+00  0.00000E+00  9.000E+00
       2    -1     0     0   513     0  0.000000000E+00  0.000000000E+00 -6.001304915E+02  6.001304915E+02  0.000000000E+00  0.00000E+00  9.000E+00
      21     1     1     2   514   517  5.733724478E+00  8.420118009E+00  1.046447098E+01  1.460407945E+01  6.743495762E-07  0.00000E+00  9.000E+00
      21     1     1     2   513   512 -5.081575123E+00 -1.441578468E+01 -2.332011579E+02  2.337015560E+02  2.697398305E-06  0.00000E+00  9.000E+00
       2     1     1     2   517     0 -6.521493548E-01  5.995666674E+00 -3.645843157E+02  3.646343448E+02  3.300000131E-01  0.00000E+00  9.000E+00
</event>
<event>
      5  10001  2.40292E+09  5.70399E+00 -1.00000E+00  2.28858E-01
      21    -1     0     0   511   513  0.000000000E+00  0.000000000E+00  3.144165216E+01  3.144165216E+01  0.000000000E+00  0.00000E+00  9.000E+00
      21    -1     0     0   515   512  0.000000000E+00  0.000000000E+00 -3.713073601E+01  3.713073601E+01  0.000000000E+00  0.00000E+00  9.000E+00
      21     1     1     2   515   516 -4.791299312E+00 -8.819361475E+00 -2.813650971E+01  2.987307926E+01  3.371747881E-07  0.00000E+00  9.000E+00
      21     1     1     2   516   513  9.386176315E-01  1.302559489E+01  2.790204962E+01  3.080700405E+01  8.259061849E-07  0.00000E+00  9.000E+00
      21     1     1     2   511   512  3.852681681E+00 -4.206233415E+00 -5.454623761E+00  7.892304863E+00  5.960464478E-08  0.00000E+00  9.000E+00
</event>
<event>
      5  10001  2.40292E+09  1.01135E+01 -1.00000E+00  1.95134E-01
      21    -1     0     0   513   512  0.000000000E+00  0.000000000E+00  1.271872420E+01  1.271872420E+01  0.000000000E+00  0.00000E+00  9.000E+00
      21    -1     0     0   515   517  0.000000000E+00  0.000000000E+00 -7.535336618E+01  7.535336618E+01  0.000000000E+00  0.00000E+00  9.000E+00
      21     1     1     2   514   517  1.900763149E+00  7.042100159E+00 -5.812677188E+01  5.858263979E+01  6.743495762E-07  0.00000E+00  9.000E+00
      21     1     1     2   515   512 -8.596297674E+00 -1.462188494E+01 -8.048201843E+00  1.877416858E+01  3.953724850E-07  0.00000E+00  9.000E+00
      21     1     1     2   513   514  6.695534524E+00  7.579784780E+00  3.540331742E+00  1.071528202E+01  1.519626234E-07  0.00000E+00  9.000E+00
</event>
<event>
      5  10001  2.40292E+09  1.63889E+00 -1.00000E+00  4.08645E-01
      21    -1     0     0   511   515  0.000000000E+00  0.000000000E+00  9.803277928E-02  9.803277928E-02  0.000000000E+00  0.00000E+00  9.000E+00
       2    -1     0     0   513     0  0.000000000E+00  0.000000000E+00 -1.829267895E+03  1.829267895E+03  0.000000000E+00  0.00000E+00  9.000E+00
      21     1     1     2   513   512 -1.162028061E+01  3.784051294E-01 -7.559848206E+02  7.560742180E+02  1.078959322E-05  0.00000E+00  9.000E+00
       2     1     1     2   511     0  1.237487927E+01 -1.832940168E+00 -1.029324383E+03  1.029400452E+03  3.300000131E-01  0.00000E+00  9.000E+00
      21     1     1     2   512   515 -7.545986515E-01  1.454535039E+00 -4.386065835E+01  4.389125701E+01  4.768371582E-07  0.00000E+00  9.000E+00
</event>
<event>
      5  10001  2.40292E+09  1.66837E+01 -1.00000E+00  1.73094E-01
      21    -1     0     0   514   512  0.000000000E+00  0.000000000E+00  8.523990200E+01  8.523990200E+01  0.000000000E+00  0.00000E+00  9.000E+00
      21    -1     0     0   515   514  0.000000000E+00  0.000000000E+00 -8.804831324E+00  8.804831324E+00  0.000000000E+00  0.00000E+00  9.000E+00
      21     1     1     2   515   513 -5.985761114E+00  1.096793842E+01  6.667644356E-02  1.249517727E+01  2.310956446E-07  0.00000E+00  9.000E+00
      21     1     1     2   513   511 -4.842905230E-01 -5.860868540E+00  7.196390528E+01  7.220379477E+01  0.000000000E+00  0.00000E+00  9.000E+00
      21     1     1     2   511   512  6.470051637E+00 -5.107069878E+00  4.404488954E+00  9.345761278E+00  8.429369702E-08  0.00000E+00  9.000E+00
</event>
<event>
      5  10001  2.40292E+09  1.39037E+01 -1.00000E+00  1.80497E-01
       2    -1     0     0   514     0  0.000000000E+00  0.000000000E+00  7.934697901E+02  7.934697901E+02  0.000000000E+00  0.00000E+00  9.000E+00
      21    -1     0     0   513   515  0.000000000E+00  0.000000000E+00 -2.804263511E+02  2.804263511E+02  0.000000000E+00  0.00000E+00  9.000E+00
      21     1     1     2   513   511 -7.288185641E+00  8.855995344E+00 -4.707404556E+01  4.845113073E+01  3.234066955E-06  0.00000E+00  9.000E+00
       2     1     1     2   511     0  1.994718893E+01 -3.105883121E+00  7.924448313E+02  7.927019972E+02  3.300000131E-01  0.00000E+00  9.000E+00
      21     1     1     2   514   515 -1.265900329E+01 -5.750112223E+00 -2.323273467E+02  2.327430132E+02  2.697398305E-06  0.00000E+00  9.000E+00
</event>
<event>
      5  10001  2.40292E+09  8.48946E+00 -1.00000E+00  2.04291E-01
      21    -1     0     0   512   513  0.000000000E+00  0.000000000E+00  1.428429889E+01  1.428429889E+01  0.000000000E+00  0.00000E+00  9.000E+00
      21    -1     0     0   516   512  0.000000000E+00  0.000000000E+00 -8.449426484E+01  8.449426484E+01  0.000000000E+00  0.00000E+00  9.000E+00
      21     1     1     2   515   513  6.530026178E+00 -1.423421140E+01  8.707253703E+00  1.791843417E+01  5.591411304E-07  0.00000E+00  9.000E+00
      21     1     1     2   511   515 -3.062321419E+00  3.089699621E+00 -3.984887234E+01  4.008561691E+01  4.768371582E-07  0.00000E+00  9.000E+00
      21     1     1     2   516   511 -3.467704759E+00  1.114451178E+01 -3.906834732E+01  4.077451264E+01  0.000000000E+00  0.00000E+00  9.000E+00
</event>
<event>
      5  10001  2.40292E+09  5.51332E+00 -1.00000E+00  2.31250E-01
      21    -1     0     0   512   515  0.000000000E+00  0.000000000E+00  1.016391464E+02  1.016391464E+02  0.000000000E+00  0.00000E+00  9.000E+00
      21    -1     0     0   516   514  0.000000000E+00  0.000000000E+00 -9.898306389E+00  9.898306389E+00  0.000000000E+00  0.00000E+00  9.000E+00
      21     1     1     2   511   515  7.703030339E+00 -8.881403458E+00  1.003999671E+01  1.546019203E+01  1.685873940E-07  0.00000E+00  9.000E+00
      21     1     1     2   516   511 -1.174678024E+01  5.133770922E+00 -1.307416412E+00  1.288610832E+01  3.028273796E-07  0.00000E+00  9.000E+00
      21     1     1     2   512   514  4.043749904E+00  3.747632536E+00  8.300825967E+01  8.319115239E+01  0.000000000E+00  0.00000E+00  9.000E+00
</event>
<event>
      5  10001  2.40292E+09  1.44165E+01 -1.00000E+00  1.78974E-01
       2    -1     0     0   511     0  0.000000000E+00  0.000000000E+00  5.947484942E+01  5.947484942E+01  0.000000000E+00  0.00000E+00  9.000E+00
      21    -1     0     0   513   511  0.000000000E+00  0.000000000E+00 -3.339431296E+01  3.339431296E+01  0.000000000E+00  0.00000E+00  9.000E+00
      21     1     1     2   513   512 -1.439431791E+01  1.011747036E+01 -2.720982537E+01  3.240268802E+01  5.840038640E-07  0.00000E+00  9.000E+00
      21     1     1     2   512   515  5.145208934E+00 -1.571225326E+01  4.032574466E+01  4.358341152E+01  4.768371582E-07  0.00000E+00  9.000E+00
       2     1     1     2   515     0  9.249108971E+00  5.594782900E+00  1.296461718E+01  1.688306284E+01  3.300000131E-01  0.00000E+00  9.000E+00
</event>
<event>
      5  10001  2.40292E+09  1.01854E+01 -1.00000E+00  1.94781E-01
      21    -1     0     0   514   511  0.000000000E+00  0.000000000E+00  4.375740315E+01  4.375740315E+01  0.000000000E+00  0.00000E+00  9.000E+00
      21    -1     0     0   513   516  0.000000000E+00  0.000000000E+00 -4.385871649E+01  4.385871649E+01  0.000000000E+00  0.00000E+00  9.000E+00
      21     1     1     2   514   516 -6.554411636E+00 -7.060522256E+00 -3.884779524E+01  4.002452350E+01  1.066240300E-06  0.00000E+00  9.000E+00
      21     1     1     2   513   512  1.637601580E+01  4.362571802E+00  2.840525284E+01  3.307664304E+01  8.259061849E-07  0.00000E+00  9.000E+00
      21     1     1     2   512   511 -9.821604159E+00  2.697950454E+00  1.034122907E+01  1.451495310E+01  1.685873940E-07  0.00000E+00  9.000E+00
</event>
<event>
      5  10001  2.40292E+09  8.08410E+00 -1.00000E+00  2.07013E-01
      21    -1     0     0   515   514  0.000000000E+00  0.000000000E+00  9.561440154E+01  9.561440154E+01  0.000000000E+00  0.00000E+00  9.000E+00
      21    -1     0     0   511   515  0.000000000E+00  0.000000000E+00 -3.819438885E+01  3.819438885E+01  0.000000000E+00  0.00000E+00  9.000E+00
      21     1     1     2   511   517  1.090639373E+01  1.429231992E+01 -3.362981441E+00  1.829014699E+01  5.685920724E-07  0.00000E+00  9.000E+00
      21     1     1     2   517   513 -1.785898913E+01 -1.841714099E+01 -2.111283303E+01  3.322478433E+01  4.768371582E-07  0.00000E+00  9.000E+00
      21     1     1     2   513   514  6.952595400E+00  4.124821077E+00  8.189582716E+01  8.229385906E+01  9.536743164E-07  0.00000E+00  9.000E+00
</event>
<event>
      5  10001  2.40292E+09  8.90473E+00 -1.00000E+00  2.01705E-01
       2    -1     0     0   512     0  0.000000000E+00  0.000000000E+00  1.311463379E+01  1.311463379E+01  0.000000000E+00  0.00000E+00  9.000E+00
       2    -1     0     0   511     0  0.000000000E+00  0.000000000E+00 -8.291824027E+01  8.291824027E+01  0.000000000E+00  0.00000E+00  9.000E+00
       2     1     1     2   512     0 -3.700169030E+00  1.420867287E+01 -7.457216535E+01  7.600456816E+01  3.300000131E-01  0.00000E+00  9.000E+00
       2     1     1     2   515     0  5.741900925E+00 -5.318707372E+00  7.144641955E+00  1.060249419E+01  3.300000131E-01  0.00000E+00  9.000E+00
      21     1     1     2   511   515 -2.041731895E+00 -8.889965498E+00 -2.376083077E+00  9.425811714E+00  1.812804499E-07  0.00000E+00  9.000E+00
</event>
<event>
      5  10001  2.40292E+09  2.34484E+00 -1.00000E+00  3.33455E-01
       2    -1     0     0   512     0  0.000000000E+00  0.000000000E+00  6.154884575E+00  6.154884575E+00  0.000000000E+00  0.00000E+00  9.000E+00
      21    -1     0     0   516   512  0.000000000E+00  0.000000000E+00 -3.788572506E+02  3.788572506E+02  0.000000000E+00  0.00000E+00  9.000E+00
      21     1     1     2   514   513 -1.120627116E+01 -8.255729819E+00 -4.960879605E+01  5.152446248E+01  6.743495762E-07  0.00000E+00  9.000E+00
       2     1     1     2   513     0  1.026607066E+01  6.107670963E+00 -1.682390883E+00  1.206794060E+01  3.300000131E-01  0.00000E+00  9.000E+00
      21     1     1     2   516   514  9.402005066E-01  2.148058856E+00 -3.214111791E+02  3.214197321E+02  0.000000000E+00  0.00000E+00  9.000E+00
</event>
<event>
      5  10001  2.40292E+09  1.99697E+00 -1.00000E+00  3.63164E-01
      21    -1     0     0   513   514  0.000000000E+00  0.000000000E+00  5.216809294E+02  5.216809294E+02  0.000000000E+00  0.00000E+00  9.000E+00
       4    -1     0     0   514     0  0.000000000E+00  0.000000000E+00 -9.053186750E+00  9.053186750E+00  0.000000000E+00  0.00000E+00  9.000E+00
      21     1     1     2   513   511  2.441751905E+00  2.267101002E+01  5.039263480E+02  5.044419700E+02  0.000000000E+00  0.00000E+00  9.000E+00
       4     1     1     2   512     0 -2.227182599E+00 -2.024878551E+01  3.738264748E+00  2.076531436E+01  1.500000000E+00  0.00000E+00  9.000E+00
      21     1     1     2   511   512 -2.145693061E-01 -2.422224512E+00  4.963129812E+00  5.526831742E+00  8.429369702E-08  0.00000E+00  9.000E+00
</event>
<event>
      5  10001  2.40292E+09  3.77506E+00 -1.00000E+00  2.69423E-01
       1    -1     0     0   511     0  0.000000000E+00  0.000000000E+00  2.236334890E+02  2.236334890E+02  0.000000000E+00  0.00000E+00  9.000E+00
      21    -1     0     0   515   512  0.000000000E+00  0.000000000E+00 -1.022902744E+00  1.022902744E+00  0.000000000E+00  0.00000E+00  9.000E+00
      21     1     1     2   511   512 -4.871181296E+00  1.106422190E+01  4.625943445E+01  4.781297616E+01  9.536743164E-07  0.00000E+00  9.000E+00
       1     1     1     2   513     0  9.937167362E-01 -8.328725414E+00  1.195995723E+02  1.198937936E+02  3.300000131E-01  0.00000E+00  9.000E+00
      21     1     1     2   515   513  3.877464560E+00 -2.735496485E+00  5.675157953E+01  5.694962205E+01  9.536743164E-07  0.00000E+00  9.000E+00
</event>
<event>
      5  10001  2.40292E+09  3.26800E+00 -1.00000E+00  2.85900E-01
      -2    -1     0     0     0   514  0.000000000E+00  0.000000000E+00  1.034306200E+02  1.034306200E+02  0.000000000E+00  0.00000E+00  9.000E+00
      21    -1     0     0   511   513  0.000000000E+00  0.000000000E+00 -1.749413470E+00  1.749413470E+00  0.000000000E+00  0.00000E+00  9.000E+00
      21     1     1     2   512   513  7.970936979E+00 -2.442283235E+00  2.858213590E+01  2.977312675E+01  3.371747881E-07  0.00000E+00  9.000E+00
      21     1     1     2   511   514 -1.127325368E+01  6.690894485E+00  5.303072118E+01  5.462702360E+01  9.536743164E-07  0.00000E+00  9.000E+00
      -2     1     1     2     0   512  3.302316704E+00 -4.248611249E+00  2.006834940E+01  2.077988308E+01  3.300000131E-01  0.00000E+00  9.000E+00
</event>
<event>
      5  10001  2.40292E+09  7.03045E+00 -1.00000E+00  2.15216E-01
       2    -1     0     0   511     0  0.000000000E+00  0.000000000E+00  8.007505192E+02  8.007505192E+02  0.000000000E+00  0.00000E+00  9.000E+00
      21    -1     0     0   513   516  0.000000000E+00  0.000000000E+00 -3.378120144E+00  3.378120144E+00  0.000000000E+00  0.00000E+00  9.000E+00
      21     1     1     2   511   516 -1.226852943E+01 -2.094989190E+00  5.832192817E+02  5.833520690E+02  1.705984480E-05  0.00000E+00  9.000E+00
       2     1     1     2   515     0  1.557950950E+01 -4.106771051E+00  2.130520178E+02  2.136606137E+02  3.300000131E-01  0.00000E+00  9.000E+00
      21     1     1     2   513   515 -3.310980072E+00  6.201760242E+00  1.101099598E+00  7.115956679E+00  5.549557343E-07  0.00000E+00  9.000E+00
</event>
<event>
      5  10001  2.40292E+09  7.90463E+00 -1.00000E+00  2.08287E-01
      21    -1     0     0   512   515  0.000000000E+00  0.000000000E+00  9.501680426E+01  9.501680426E+01  0.000000000E+00  0.00000E+00  9.000E+00
      21    -1     0     0   513   512  0.000000000E+00  0.000000000E+00 -2.736365666E+00  2.736365666E+00  0.000000000E+00  0.00000E+00  9.000E+00
      21     1     1     2   514   515 -9.681354489E+00 -6.423683946E+00  7.609829550E+01  7.698014626E+01  0.000000000E+00  0.00000E+00  9.000E+00
      21     1     1     2   511   514  1.866157636E+00  4.585557152E+00  7.033820101E+00  8.601424529E+00  1.685873940E-07  0.00000E+00  9.000E+00
      21     1     1     2   513   511  7.815196853E+00  1.838126794E+00  9.148322989E+00  1.217159913E+01  2.665600750E-07  0.00000E+00  9.000E+00
</event>
<event>
      5  10001  2.40292E+09  1.72892E+01 -1.00000E+00  1.71719E-01
      -1    -1     0     0     0   516  0.000000000E+00  0.000000000E+00  4.275657537E+00  4.275657537E+00  0.000000000E+00  0.00000E+00  9.000E+00
      21    -1     0     0   516   512  0.000000000E+00  0.000000000E+00 -3.455745190E+01  3.455745190E+01  0.000000000E+00  0.00000E+00  9.000E+00
      21     1     1     2   514   513 -1.729838516E+00  3.075586024E+00 -2.527276832E+01  2.551792290E+01  0.000000000E+00  0.00000E+00  9.000E+00
      21     1     1     2   513   512  5.772554173E+00 -1.021600618E+00 -6.283355648E+00  8.593404896E+00  1.460009660E-07  0.00000E+00  9.000E+00
      -1     1     1     2     0   514 -4.042715657E+00 -2.053985406E+00  1.274329601E+00  4.721781642E+00  3.300000131E-01  0.00000E+00  9.000E+00
</event>
<event>
      5  10001  2.40292E+09  6.73027E+00 -1.00000E+00  2.17921E-01
      21    -1     0     0   512   514  0.000000000E+00  0.000000000E+00  2.252703308E+01  2.252703308E+01  0.000000000E+00  0.00000E+00  9.000E+00
      -2    -1     0     0     0   511  0.000000000E+00  0.000000000E+00 -5.665597398E+00  5.665597398E+00  0.000000000E+00  0.00000E+00  9.000E+00
      -2     1     1     2     0   513 -6.031778401E+00  3.397550676E+00  7.003996129E-01  6.966000352E+00  3.300000131E-01  0.00000E+00  9.000E+00
      21     1     1     2   512   511  9.006225244E+00  2.654512249E-01  1.129456331E+01  1.444817351E+01  2.665600750E-07  0.00000E+00  9.000E+00
      21     1     1     2   513   514 -2.974446843E+00 -3.663001901E+00  4.866472757E+00  6.778456612E+00  1.460009660E-07  0.00000E+00  9.000E+00
</event>
<event>
      5  10001  2.40292E+09  1.08313E+01 -1.00000E+00  1.91776E-01
      21    -1     0     0   515   511  0.000000000E+00  0.000000000E+00  6.205115497E+01  6.205115497E+01  0.000000000E+00  0.00000E+00  9.000E+00
      21    -1     0     0   513   514  0.000000000E+00  0.000000000E+00 -1.372494341E+01  1.372494341E+01  0.000000000E+00  0.00000E+00  9.000E+00
      21     1     1     2   515   514 -1.274560651E+01 -1.448401014E+01  2.059169509E+01  2.821798968E+01  6.307962682E-07  0.00000E+00  9.000E+00
      21     1     1     2   513   516  2.707506231E+00  1.041528165E+01 -5.865009269E+00  1.225589717E+01  3.576278687E-07  0.00000E+00  9.000E+00
      21     1     1     2   516   511  1.003810028E+01  4.068728497E+00  3.359952573E+01  3.530221152E+01  4.768371582E-07  0.00000E+00  9.000E+00
</event>
<event>
      5  10001  2.40292E+09  1.07883E+01 -1.00000E+00  1.91967E-01
      21    -1     0     0   512   513  0.000000000E+00  0.000000000E+00  1.854266637E+01  1.854266637E+01  0.000000000E+00  0.00000E+00  9.000E+00
      21    -1     0     0   517   511  0.000000000E+00  0.000000000E+00 -2.055496531E+01  2.055496531E+01  0.000000000E+00  0.00000E+00  9.000E+00
      21     1     1     2   512   511  2.207392400E+00  1.279915887E+01  1.237744941E+01  1.794135733E+01  3.769728732E-07  0.00000E+00  9.000E+00
      21     1     1     2   517   514  1.775249143E+00 -7.071446690E+00 -3.182678649E+00  7.955269398E+00  1.576990671E-07  0.00000E+00  9.000E+00
      21     1     1     2   514   513 -3.982641543E+00 -5.727712178E+00 -1.120706970E+01  1.320100495E+01  1.685873940E-07  0.00000E+00  9.000E+00
</event>
<event>
      5  10001  2.40292E+09  3.12412E+00 -1.00000E+00  2.91491E-01
       1    -1     0     0   512     0  0.000000000E+00  0.000000000E+00  4.365693689E+02  4.365693689E+02  0.000000000E+00  0.00000E+00  9.000E+00
      -4    -1     0     0     0   512  0.000000000E+00  0.000000000E+00 -1.204310506E+00  1.204310506E+00  0.000000000E+00  0.00000E+00  9.000E+00
      -4     1     1     2     0   513 -2.946306670E+00  9.297481216E+00  2.177126797E+01  2.390317948E+01  1.500000000E+00  0.00000E+00  9.000E+00
       1     1     1     2   511     0  2.438180566E+00 -1.064325305E+01  4.056788444E+02  4.058258953E+02  3.300000131E-01  0.00000E+00  9.000E+00
      21     1     1     2   513   511  5.081261036E-01  1.345771833E+00  7.914946042E+00  8.044604702E+00  0.000000000E+00  0.00000E+00  9.000E+00
</event>
<event>
      5  10001  2.40292E+09  6.45168E+00 -1.00000E+00  2.20610E-01
      21    -1     0     0   514   511  0.000000000E+00  0.000000000E+00  1.301903281E+01  1.301903281E+01  0.000000000E+00  0.00000E+00  9.000E+00
       2    -1     0     0   513     0  0.000000000E+00  0.000000000E+00 -1.730825641E+01  1.730825641E+01  0.000000000E+00  0.00000E+00  9.000E+00
      21     1     1     2   513   511  2.538245912E+00  9.682762888E+00  5.885195346E+00  1.161180923E+01  2.064765462E-07  0.00000E+00  9.000E+00
       2     1     1     2   512     0 -2.179676331E+00 -7.762908510E+00 -1.298776279E+01  1.529067101E+01  3.300000131E-01  0.00000E+00  9.000E+00
      21     1     1     2   514   512 -3.585695802E-01 -1.919854377E+00  2.813343840E+00  3.424808978E+00  4.214684851E-08  0.00000E+00  9.000E+00
</event>
<event>
      5  10001  2.40292E+09  1.03037E+01 -1.00000E+00  1.94210E-01
      21    -1     0     0   517   511  0.000000000E+00  0.000000000E+00  2.479775669E+02  2.479775669E+02  0.000000000E+00  0.00000E+00  9.000E+00
      21    -1     0     0   516   515  0.000000000E+00  0.000000000E+00 -4.602423152E+00  4.602423152E+00  0.000000000E+00  0.00000E+00  9.000E+00
      21     1     1     2   516   513  4.029154020E+00 -5.758707840E+00  1.254898825E+00  7.139437595E+00  1.163817894E-07  0.00000E+00  9.000E+00
      21     1     1     2   513   511 -1.084459533E+00  1.563261195E+01  3.859800189E+01  4.165765666E+01  4.768371582E-07  0.00000E+00  9.000E+00
      21     1     1     2   517   515 -2.944694487E+00 -9.873904111E+00  2.035222430E+02  2.037828958E+02  2.697398305E-06  0.00000E+00  9.000E+00
</event>
<event>
      5  10001  2.40292E+09  7.38859E+00 -1.00000E+00  2.12221E-01
      21    -1     0     0   512   511  0.000000000E+00  0.000000000E+00  5.464166786E+00  5.464166786E+00  0.000000000E+00  0.00000E+00  9.000E+00
       1    -1     0     0   513     0  0.000000000E+00  0.000000000E+00 -1.250659149E+02  1.250659149E+02  0.000000000E+00  0.00000E+00  9.000E+00
      21     1     1     2   514   511 -3.370246525E+00 -5.394396456E+00  1.066416678E+00  6.449443332E+00  7.235890950E-07  0.00000E+00  9.000E+00
       1     1     1     2   512     0  8.277368415E+00  1.195632501E+01 -1.081205699E+02  1.090946153E+02  3.300000131E-01  0.00000E+00  9.000E+00
      21     1     1     2   513   514 -4.907121890E+00 -6.561928554E+00 -1.254759488E+01  1.498602312E+01  2.384185791E-07  0.00000E+00  9.000E+00
</event>
<event>
      5  10001  2.40292E+09  1.28928E+01 -1.00000E+00  1.83759E-01
      21    -1     0     0   515   513  0.000000000E+00  0.000000000E+00  9.460103907E+00  9.460103907E+00  0.000000000E+00  0.00000E+00  9.000E+00
      21    -1     0     0   511   514  0.000000000E+00  0.000000000E+00 -1.229188610E+01  1.229188610E+01  0.000000000E+00  0.00000E+00  9.000E+00
      21     1     1     2   515   514 -3.679496800E+00  3.510687353E+00  3.332288358E-01  5.096534494E+00  1.035737900E-07  0.00000E+00  9.000E+00
      21     1     1     2   512   513  3.807971415E+00 -4.727788716E+00 -8.910029202E+00  1.078152368E+01  1.685873940E-07  0.00000E+00  9.000E+00
      21     1     1     2   511   512 -1.284746151E-01  1.217101363E+00  5.745018171E+00  5.873931838E+00  8.429369702E-08  0.00000E+00  9.000E+00
</event>
<event>
      5  10001  2.40292E+09  2.49929E+01 -1.00000E+00  1.58722E-01
      21    -1     0     0   511   512  0.000000000E+00  0.000000000E+00  7.743931242E+01  7.743931242E+01  0.000000000E+00  0.00000E+00  9.000E+00
       3    -1     0     0   513     0  0.000000000E+00  0.000000000E+00 -1.516146426E+01  1.516146426E+01  0.000000000E+00  0.00000E+00  9.000E+00
      21     1     1     2   513   514 -6.184996300E+00  1.094298732E+00  1.204136167E+01  1.358109200E+01  0.000000000E+00  0.00000E+00  9.000E+00
       3     1     1     2   511     0  1.069701489E+01  5.953365569E+00 -1.144911801E+01  1.676904864E+01  5.000000000E-01  0.00000E+00  9.000E+00
      21     1     1     2   514   512 -4.512018589E+00 -7.047664301E+00  6.168560450E+01  6.225063604E+01  0.000000000E+00  0.00000E+00  9.000E+00
</event>
<event>
      5  10001  2.40292E+09  6.05709E+00 -1.00000E+00  2.24757E-01
      21    -1     0     0   513   512  0.000000000E+00  0.000000000E+00  3.901154220E+02  3.901154220E+02  0.000000000E+00  0.00000E+00  9.000E+00
      -1    -1     0     0     0   515  0.000000000E+00  0.000000000E+00 -2.301781107E+00  2.301781107E+00  0.000000000E+00  0.00000E+00  9.000E+00
      -1     1     1     2     0   512  1.644621175E+01 -2.984875365E+00  3.224709287E+01  3.632315047E+01  3.300000131E-01  0.00000E+00  9.000E+00
      21     1     1     2   513   511 -1.473483175E+01 -1.119559735E+00  2.530566836E+02  2.534877784E+02  0.000000000E+00  0.00000E+00  9.000E+00
      21     1     1     2   511   515 -1.711379995E+00  4.104435100E+00  1.025098645E+02  1.026062743E+02  1.348699152E-06  0.00000E+00  9.000E+00
</event>
<event>
      5  10001  2.40292E+09  1.11537E+01 -1.00000E+00  1.90375E-01
      21    -1     0     0   512   511  0.000000000E+00  0.000000000E+00  4.843747231E+01  4.843747231E+01  0.000000000E+00  0.00000E+00  9.000E+00
      21    -1     0     0   516   514  0.000000000E+00  0.000000000E+00 -7.834241675E+01  7.834241675E+01  0.000000000E+00  0.00000E+00  9.000E+00
      21     1     1     2   515   511  1.205664094E+01  1.530285312E+00  4.042196427E+01  4.220947239E+01  1.066240300E-06  0.00000E+00  9.000E+00
      21     1     1     2   516   515 -1.080673914E+01  9.553169972E+00 -7.187658802E+01  7.330956672E+01  9.536743164E-07  0.00000E+00  9.000E+00
      21     1     1     2   512   514 -1.249901800E+00 -1.108345528E+01  1.549679302E+00  1.126084995E+01  1.712013080E-07  0.00000E+00  9.000E+00
</event>
<event>
      5  10001  2.40292E+09  2.62960E+00 -1.00000E+00  3.15231E-01
      21    -1     0     0   513   515  0.000000000E+00  0.000000000E+00  1.187269797E+01  1.187269797E+01  0.000000000E+00  0.00000E+00  9.000E+00
      21    -1     0     0   511   517  0.000000000E+00  0.000000000E+00 -1.506496334E+02  1.506496334E+02  0.000000000E+00  0.00000E+00  9.000E+00
      21     1     1     2   513   517 -9.701636865E+00 -9.355664772E-02 -1.462479467E+02  1.465694116E+02  0.000000000E+00  0.00000E+00  9.000E+00
      21     1     1     2   511   514  1.124822484E+01  2.220256108E+00  6.130521798E+00  1.300136134E+01  1.460009660E-07  0.00000E+00  9.000E+00
      21     1     1     2   514   515 -1.546587971E+00 -2.126699460E+00  1.340489482E+00  2.951558402E+00  8.815645848E-08  0.00000E+00  9.000E+00
</event>
<event>
      5  10001  2.40292E+09  4.20361E+00 -1.00000E+00  2.58387E-01
      21    -1     0     0   512   511  0.000000000E+00  0.000000000E+00  9.707881305E+01  9.707881305E+01  0.000000000E+00  0.00000E+00  9.000E+00
       2    -1     0     0   513     0  0.000000000E+00  0.000000000E+00 -5.740666064E+00  5.740666064E+00  0.000000000E+00  0.00000E+00  9.000E+00
      21     1     1     2   514   511 -6.337634103E+00 -6.241147962E+00  8.254314169E+01  8.302100803E+01  0.000000000E+00  0.00000E+00  9.000E+00
       2     1     1     2   512     0  8.605807865E+00  9.780052113E+00  4.494012329E+00  1.378457091E+01  3.300000131E-01  0.00000E+00  9.000E+00
      21     1     1     2   513   514 -2.268173762E+00 -3.538904151E+00  4.300992964E+00  6.013900172E+00  1.032382731E-07  0.00000E+00  9.000E+00
</event>
<event>
      5  10001  2.40292E+09  3.06838E+00 -1.00000E+00  2.93793E-01
      21    -1     0     0   515   513  0.000000000E+00  0.000000000E+00  3.607404780E+00  3.607404780E+00  0.000000000E+00  0.00000E+00  9.000E+00
      21    -1     0     0   511   512  0.000000000E+00  0.000000000E+00 -5.430676929E+01  5.430676929E+01  0.000000000E+00  0.00000E+00  9.000E+00
      21     1     1     2   515   514 -1.181399943E+01  4.275757561E+00 -1.940303255E+01  2.311558689E+01  0.000000000E+00  0.00000E+00  9.000E+00
      21     1     1     2   511   513  1.046386282E+01 -1.520388889E+00 -1.586890803E+01  1.906898659E+01  1.685873940E-07  0.00000E+00  9.000E+00
      21     1     1     2   514   512  1.350136610E+00 -2.755368672E+00 -1.542742393E+01  1.572960059E+01  2.384185791E-07  0.00000E+00  9.000E+00
</event>
<event>
      5  10001  2.40292E+09  7.58416E+00 -1.00000E+00  2.10680E-01
      21    -1     0     0   516   511  0.000000000E+00  0.000000000E+00  1.190286041E+00  1.190286041E+00  0.000000000E+00  0.00000E+00  9.000E+00
       1    -1     0     0   513     0  0.000000000E+00  0.000000000E+00 -5.905181611E+02  5.905181611E+02  0.000000000E+00  0.00000E+00  9.000E+00
      21     1     1     2   515   511  5.888034795E+00  1.341955498E+00 -1.045183600E+01  1.207106765E+01  5.057621821E-07  0.00000E+00  9.000E+00
       1     1     1     2   516     0 -5.987695118E+00 -8.426802252E+00 -5.413191754E+02  5.414179735E+02  3.300000131E-01  0.00000E+00  9.000E+00
      21     1     1     2   513   515  9.966032267E-02  7.084846754E+00 -3.755686363E+01  3.821940595E+01  4.768371582E-07  0.00000E+00  9.000E+00
</event>
<event>
      5  10001  2.40292E+09  5.98817E+00 -1.00000E+00  2.25526E-01
      21    -1     0     0   512   511  0.000000000E+00  0.000000000E+00  5.855537275E+01  5.855537275E+01  0.000000000E+00  0.00000E+00  9.000E+00
      21    -1     0     0   513   516  0.000000000E+00  0.000000000E+00 -1.890489749E+01  1.890489749E+01  0.000000000E+00  0.00000E+00  9.000E+00
      21     1     1     2   513   514 -8.800199087E+00 -9.284772497E+00  2.753660008E+01  3.036305070E+01  3.371747881E-07  0.00000E+00  9.000E+00
      21     1     1     2   514   511  2.944195733E+00  1.053594107E+01  2.803148244E+01  3.009050267E+01  0.000000000E+00  0.00000E+00  9.000E+00
      21     1     1     2   512   516  5.856003355E+00 -1.251168572E+00 -1.591760725E+01  1.700671687E+01  3.769728732E-07  0.00000E+00  9.000E+00
</event>
<event>
      5  10001  2.40292E+09  3.61484E+00 -1.00000E+00  2.74162E-01
      21    -1     0     0   515   514  0.000000000E+00  0.000000000E+00  2.999904393E+01  2.999904393E+01  0.000000000E+00  0.00000E+00  9.000E+00
      21    -1     0     0   513   517  0.000000000E+00  0.000000000E+00 -1.050130279E+01  1.050130279E+01  0.000000000E+00  0.00000E+00  9.000E+00
      21     1     1     2   515   517  1.358744627E-01 -1.079495012E+01 -5.798328998E+00  1.225438816E+01  3.862822472E-07  0.00000E+00  9.000E+00
      21     1     1     2   513   511 -1.387455550E+00  1.041941325E+01  1.808833458E+01  2.092073262E+01  2.384185791E-07  0.00000E+00  9.000E+00
      21     1     1     2   511   514  1.251581087E+00  3.755368694E-01  7.207735558E+00  7.325225937E+00  8.429369702E-08  0.00000E+00  9.000E+00
</event>
<event>
      5  10001  2.40292E+09  1.33021E+01 -1.00000E+00  1.82393E-01
      21    -1     0     0   512   513  0.000000000E+00  0.000000000E+00  1.688453447E+01  1.688453447E+01  0.000000000E+00  0.00000E+00  9.000E+00
      21    -1     0     0   516   514  0.000000000E+00  0.000000000E+00 -7.610512430E+01  7.610512430E+01  0.000000000E+00  0.00000E+00  9.000E+00
      21     1     1     2   512   514  8.614442822E+00  5.420293097E+00  1.215508829E+01  1.585352875E+01  2.920019320E-07  0.00000E+00  9.000E+00
      -2     1     1     2     0   513 -1.261171761E+01  1.042903390E+00 -6.735115381E+01  6.853050334E+01  3.300000131E-01  0.00000E+00  9.000E+00
       2     1     1     2   516     0  3.997274783E+00 -6.463196487E+00 -4.024524317E+00  8.605626677E+00  3.300000131E-01  0.00000E+00  9.000E+00
</event>
<event>
      5  10001  2.40292E+09  3.38609E+00 -1.00000E+00  2.81650E-01
       1    -1     0     0   511     0  0.000000000E+00  0.000000000E+00  2.998477381E+02  2.998477381E+02  0.000000000E+00  0.00000E+00  9.000E+00
      21    -1     0     0   515   511  0.000000000E+00  0.000000000E+00 -8.000113591E+01  8.000113591E+01  0.000000000E+00  0.00000E+00  9.000E+00
      21     1     1     2   515   516 -4.947532097E+00  9.185569106E+00 -6.820360025E+01  6.899698428E+01  1.348699152E-06  0.00000E+00  9.000E+00
      21     1     1     2   516   514  3.518656289E+00 -1.225540081E+01 -7.823008651E+00  1.495911947E+01  3.475518164E-07  0.00000E+00  9.000E+00
       1     1     1     2   514     0  1.428875807E+00  3.069831701E+00  2.958732111E+02  2.958927703E+02  3.300000131E-01  0.00000E+00  9.000E+00
</event>
<event>
      5  10001  2.40292E+09  1.21618E+01 -1.00000E+00  1.86366E-01
      21    -1     0     0   512   514  0.000000000E+00  0.000000000E+00  2.717853773E+00  2.717853773E+00  0.000000000E+00  0.00000E+00  9.000E+00
      21    -1     0     0   513   512  0.000000000E+00  0.000000000E+00 -3.355821909E+02  3.355821909E+02  0.000000000E+00  0.00000E+00  9.000E+00
      21     1     1     2   517   514 -3.865918991E+00 -9.973916301E+00 -8.572572033E+00  1.370814821E+01  3.371747881E-07  0.00000E+00  9.000E+00
      21     1     1     2   513   511 -2.110486114E+00  5.882185471E+00 -1.096294024E+02  1.098073774E+02  1.348699152E-06  0.00000E+00  9.000E+00
      21     1     1     2   511   517  5.976405105E+00  4.091730830E+00 -2.146623627E+02  2.147845191E+02  2.697398305E-06  0.00000E+00  9.000E+00
</event>
<event>
      5  10001  2.40292E+09  5.83820E+00 -1.00000E+00  2.27252E-01
      21    -1     0     0   515   513  0.000000000E+00  0.000000000E+00  1.786930296E+02  1.786930296E+02  0.000000000E+00  0.00000E+00  9.000E+00
      21    -1     0     0   514   512  0.000000000E+00  0.000000000E+00 -3.517964050E+00  3.517964050E+00  0.000000000E+00  0.00000E+00  9.000E+00
      21     1     1     2   515   516 -1.135307815E+01 -2.528633986E+00  1.227395900E+01  1.690965531E+01  7.539457465E-07  0.00000E+00  9.000E+00
      21     1     1     2   514   513  8.573158160E+00  7.662505686E+00  1.552597606E+02  1.556849585E+02  1.907348633E-06  0.00000E+00  9.000E+00
      21     1     1     2   516   512  2.779919988E+00 -5.133871700E+00  7.641345966E+00  9.616379877E+00  1.192092896E-07  0.00000E+00  9.000E+00
</event>
<event>
      5  10001  2.40292E+09  3.15105E+00 -1.00000E+00  2.90408E-01
      21    -1     0     0   514   513  0.000000000E+00  0.000000000E+00  5.765155612E-01  5.765155612E-01  0.000000000E+00  0.00000E+00  9.000E+00
       2    -1     0     0   513     0  0.000000000E+00  0.000000000E+00 -3.557194353E+02  3.557194353E+02  0.000000000E+00  0.00000E+00  9.000E+00
      21     1     1     2   514   511 -6.983466242E+00  1.242023267E+01 -1.886057557E+02  1.891432316E+02  0.000000000E+00  0.00000E+00  9.000E+00
      21     1     1     2   511   515  1.227576842E+00 -2.219850760E+00 -2.352206972E+01  2.365845401E+01  3.371747881E-07  0.00000E+00  9.000E+00
       2     1     1     2   515     0  5.755889400E+00 -1.020038191E+01 -1.430150943E+02  1.434942652E+02  3.300000131E-01  0.00000E+00  9.000E+00
</event>
<event>
      5  10001  2.40292E+09  1.54674E+01 -1.00000E+00  1.76090E-01
      21    -1     0     0   512   515  0.000000000E+00  0.000000000E+00  2.816064480E+00  2.816064480E+00  0.000000000E+00  0.00000E+00  9.000E+00
      21    -1     0     0   513   512  0.000000000E+00  0.000000000E+00 -2.232689833E+02  2.232689833E+02  0.000000000E+00  0.00000E+00  9.000E+00
      21     1     1     2   516   515 -4.287975264E+00 -2.073599789E+01 -8.186607314E+01  8.456016953E+01  0.000000000E+00  0.00000E+00  9.000E+00
      21     1     1     2   511   516 -5.172513222E+00  1.670057247E+01 -6.892277795E+01  7.110564910E+01  9.536743164E-07  0.00000E+00  9.000E+00
      21     1     1     2   513   511  9.460488486E+00  4.035425420E+00 -6.966406774E+01  7.041922915E+01  0.000000000E+00  0.00000E+00  9.000E+00
</event>
<event>
      5  10001  2.40292E+09  5.04083E+00 -1.00000E+00  2.37813E-01
       1    -1     0     0   512     0  0.000000000E+00  0.000000000E+00  3.106832484E+02  3.106832484E+02  0.000000000E+00  0.00000E+00  9.000E+00
      21    -1     0     0   513   514  0.000000000E+00  0.000000000E+00 -3.996946240E+00  3.996946240E+00  0.000000000E+00  0.00000E+00  9.000E+00
       1     1     1     2   513     0  1.744913266E+01 -1.736973229E+01  2.115173249E+02  2.129456914E+02  3.300000131E-01  0.00000E+00  9.000E+00
       3     1     1     2   512     0 -1.964500135E+01  2.190556130E+01  8.907841254E+01  9.381360922E+01  5.000000000E-01  0.00000E+00  9.000E+00
      -3     1     1     2     0   514  2.195868691E+00 -4.535829012E+00  6.090564678E+00  7.920894030E+00  5.000000000E-01  0.00000E+00  9.000E+00
</event>
<event>
      5  10001  2.40292E+09  6.06167E+00 -1.00000E+00  2.24706E-01
      21    -1     0     0   511   514  0.000000000E+00  0.000000000E+00  8.354634108E+00  8.354634108E+00  0.000000000E+00  0.00000E+00  9.000E+00
      21    -1     0     0   513   515  0.000000000E+00  0.000000000E+00 -2.151484919E+01  2.151484919E+01  0.000000000E+00  0.00000E+00  9.000E+00
      21     1     1     2   511   515 -6.601503303E+00 -6.758643084E+00  1.684961268E+00  9.596780537E+00  8.688795410E-08  0.00000E+00  9.000E+00
      21     1     1     2   512   514  8.190134588E+00  3.039945687E+00 -1.336413173E+01  1.596620153E+01  1.685873940E-07  0.00000E+00  9.000E+00
      21     1     1     2   513   512 -1.588631285E+00  3.718697397E+00 -1.481044617E+00  4.306501230E+00  1.173318606E-07  0.00000E+00  9.000E+00
</event>
<event>
      5  10001  2.40292E+09  8.07328E+00 -1.00000E+00  2.07088E-01
      21    -1     0     0   516   512  0.000000000E+00  0.000000000E+00  5.079308438E+00  5.079308438E+00  0.000000000E+00  0.00000E+00  9.000E+00
      21    -1     0     0   513   517  0.000000000E+00  0.000000000E+00 -2.125941078E+02  2.125941078E+02  0.000000000E+00  0.00000E+00  9.000E+00
      21     1     1     2   516   517  1.672296924E+01  2.300087986E+00 -1.200195550E+01  2.071219546E+01  2.384185791E-07  0.00000E+00  9.000E+00
      21     1     1     2   513   511 -1.347495730E+01  3.328121688E+00 -1.722356390E+02  1.727939994E+02  2.697398305E-06  0.00000E+00  9.000E+00
      21     1     1     2   511   512 -3.248011933E+00 -5.628209674E+00 -2.327720488E+01  2.416722145E+01  0.000000000E+00  0.00000E+00  9.000E+00
</event>
<event>
      5  10001  2.40292E+09  5.77113E+00 -1.00000E+00  2.28047E-01
      21    -1     0     0   514   513  0.000000000E+00  0.000000000E+00  1.643990702E+02  1.643990702E+02  0.000000000E+00  0.00000E+00  9.000E+00
      21    -1     0     0   515   512  0.000000000E+00  0.000000000E+00 -1.749628565E+00  1.749628565E+00  0.000000000E+00  0.00000E+00  9.000E+00
      21     1     1     2   514   512 -1.536267104E+01  5.036624280E+00  6.820140724E+01  7.009144880E+01  9.536743164E-07  0.00000E+00  9.000E+00
      21     1     1     2   515   516  8.794719378E+00 -4.819236165E+00  4.109178251E+01  4.229783347E+01  6.743495762E-07  0.00000E+00  9.000E+00
      21     1     1     2   516   513  6.567951665E+00 -2.173881153E-01  5.335625189E+01  5.375941650E+01  0.000000000E+00  0.00000E+00  9.000E+00
</event>
<event>
      5  10001  2.40292E+09  9.34728E+00 -1.00000E+00  1.99148E-01
      21    -1     0     0   511   512  0.000000000E+00  0.000000000E+00  1.235485996E+02  1.235485996E+02  0.000000000E+00  0.00000E+00  9.000E+00
      21    -1     0     0   514   513  0.000000000E+00  0.000000000E+00 -1.263180956E+01  1.263180956E+01  0.000000000E+00  0.00000E+00  9.000E+00
      21     1     1     2   511   513  2.337545436E+01  9.486826650E+00  5.618589034E+01  6.158949601E+01  6.743495762E-07  0.00000E+00  9.000E+00
      21     1     1     2   517   512 -1.426591457E+01 -7.392073745E+00  6.116702502E+01  6.324210641E+01  9.536743164E-07  0.00000E+00  9.000E+00
      21     1     1     2   514   517 -9.109539789E+00 -2.094752905E+00 -6.436125334E+00  1.134880673E+01  2.795705652E-07  0.00000E+00  9.000E+00
</event>
<event>
      5  10001  2.40292E+09  5.83027E+00 -1.00000E+00  2.27345E-01
      -2    -1     0     0     0   515  0.000000000E+00  0.000000000E+00  7.726141576E+01  7.726141576E+01  0.000000000E+00  0.00000E+00  9.000E+00
      21    -1     0     0   511   512  0.000000000E+00  0.000000000E+00 -4.858979557E+00  4.858979557E+00  0.000000000E+00  0.00000E+00  9.000E+00
      -2     1     1     2     0   512 -1.666427204E+01  4.918907145E-01  5.325700360E+01  5.580642661E+01  3.300000131E-01  0.00000E+00  9.000E+00
      21     1     1     2   511   513  9.132072088E+00 -3.286628435E+00  8.016291334E+00  1.258799404E+01  1.192092896E-07  0.00000E+00  9.000E+00
      21     1     1     2   513   515  7.532199957E+00  2.794737721E+00  1.112914128E+01  1.372597467E+01  1.685873940E-07  0.00000E+00  9.000E+00
</event>
<event>
      5  10001  2.40292E+09  4.56717E+00 -1.00000E+00  2.50503E-01
       5    -1     0     0   511     0  0.000000000E+00  0.000000000E+00  1.543732122E+01  1.543732122E+01  0.000000000E+00  0.00000E+00  9.000E+00
      21    -1     0     0   513   514  0.000000000E+00  0.000000000E+00 -1.163971889E+01  1.163971889E+01  0.000000000E+00  0.00000E+00  9.000E+00
      21     1     1     2   511   514  1.349128436E+00 -1.188880349E+01  3.156530040E+00  1.237446879E+01  3.153981341E-07  0.00000E+00  9.000E+00
       5     1     1     2   512     0 -3.336110128E+00  8.461686281E+00  2.071071517E+00  1.049090580E+01  4.800000191E+00  0.00000E+00  9.000E+00
      21     1     1     2   513   512  1.986981692E+00  3.427117206E+00 -1.429999228E+00  4.211665511E+00  8.429369702E-08  0.00000E+00  9.000E+00
</event>
<event>
      5  10001  2.40292E+09  8.87890E+00 -1.00000E+00  2.01860E-01
      21    -1     0     0   515   512  0.000000000E+00  0.000000000E+00  1.473799652E+02  1.473799652E+02  0.000000000E+00  0.00000E+00  9.000E+00
      21    -1     0     0   513   511  0.000000000E+00  0.000000000E+00 -1.056371451E+01  1.056371451E+01  0.000000000E+00  0.00000E+00  9.000E+00
      21     1     1     2   515   516 -1.910775258E+00  1.187016506E+01  1.174659638E+02  1.180796533E+02  2.336015456E-06  0.00000E+00  9.000E+00
      21     1     1     2   513   512  2.768000964E+00 -2.070758535E+01  2.225256891E+01  3.052282332E+01  7.539457465E-07  0.00000E+00  9.000E+00
      21     1     1     2   516   511 -8.572257066E-01  8.837420295E+00 -2.902282026E+00  9.341203046E+00  3.769728732E-07  0.00000E+00  9.000E+00
</event>
<event>
      5  10001  2.40292E+09  1.42929E+01 -1.00000E+00  1.79334E-01
      21    -1     0     0   514   513  0.000000000E+00  0.000000000E+00  2.510351569E+01  2.510351569E+01  0.000000000E+00  0.00000E+00  9.000E+00
      21    -1     0     0   517   514  0.000000000E+00  0.000000000E+00 -1.339903108E+02  1.339903108E+02  0.000000000E+00  0.00000E+00  9.000E+00
      21     1     1     2   517   511 -7.118762350E+00 -7.088547657E+00 -1.265816674E+02  1.269796945E+02  1.348699152E-06  0.00000E+00  9.000E+00
      21     1     1     2   511   512  7.081120993E+00  1.584978561E+01  1.501450086E+01  2.295197626E+01  2.920019320E-07  0.00000E+00  9.000E+00
      21     1     1     2   512   513  3.764135666E-02 -8.761237949E+00  2.680371428E+00  9.162155765E+00  2.580956828E-07  0.00000E+00  9.000E+00
</event>
<event>
      5  10001  2.40292E+09  1.12489E+01 -1.00000E+00  1.89974E-01
      21    -1     0     0   514   511  0.000000000E+00  0.000000000E+00  1.869220754E+02  1.869220754E+02  0.000000000E+00  0.00000E+00  9.000E+00
      21    -1     0     0   516   513  0.000000000E+00  0.000000000E+00 -9.803676641E+00  9.803676641E+00  0.000000000E+00  0.00000E+00  9.000E+00
      21     1     1     2   515   513 -5.914366767E+00 -5.145531182E+00 -6.133133463E+00  9.953469319E+00  3.769728732E-07  0.00000E+00  9.000E+00
      21     1     1     2   516   511  1.710999512E+01  4.052307611E+00  4.916368606E+01  5.221341932E+01  6.743495762E-07  0.00000E+00  9.000E+00
      21     1     1     2   514   515 -1.119562835E+01  1.093223572E+00  1.340878462E+02  1.345588635E+02  1.907348633E-06  0.00000E+00  9.000E+00
</event>
<event>
      5  10001  2.40292E+09  1.08360E+01 -1.00000E+00  1.91755E-01
       2    -1     0     0   513     0  0.000000000E+00  0.000000000E+00  1.419146004E+03  1.419146004E+03  0.000000000E+00  0.00000E+00  9.000E+00
      21    -1     0     0   512   514  0.000000000E+00  0.000000000E+00 -8.659135307E-02  8.659135307E-02  0.000000000E+00  0.00000E+00  9.000E+00
       3     1     1     2   513     0 -5.930673785E+00 -1.757970074E+00  2.655278829E+02  2.656003953E+02  5.000000000E-01  0.00000E+00  9.000E+00
       2     1     1     2   512     0  5.423258314E+00  5.818764984E+00  3.517844210E+02  3.518744911E+02  3.300000131E-01  0.00000E+00  9.000E+00
      -3     1     1     2     0   514  5.074154719E-01 -4.060794910E+00  8.017471087E+02  8.017577089E+02  5.000000000E-01  0.00000E+00  9.000E+00
</event>
<event>
      5  10001  2.40292E+09  1.89115E+01 -1.00000E+00  1.68357E-01
      21    -1     0     0   511   514  0.000000000E+00  0.000000000E+00  3.298675629E+01  3.298675629E+01  0.000000000E+00  0.00000E+00  9.000E+00
      21    -1     0     0   515   511  0.000000000E+00  0.000000000E+00 -8.548528897E+00  8.548528897E+00  0.000000000E+00  0.00000E+00  9.000E+00
      21     1     1     2   512   514 -7.780579652E+00 -6.041920430E+00  8.264743417E+00  1.285877933E+01  3.153981341E-07  0.00000E+00  9.000E+00
      21     1     1     2   515   513  2.205875572E+00  1.202897879E+01  1.644200166E+01  2.049150157E+01  4.768371582E-07  0.00000E+00  9.000E+00
      21     1     1     2   513   512  5.574704081E+00 -5.987058365E+00 -2.685176827E-01  8.185004288E+00  2.484240777E-07  0.00000E+00  9.000E+00
</event>
<event>
      5  10001  2.40292E+09  4.18926E+00 -1.00000E+00  2.58723E-01
      21    -1     0     0   516   512  0.000000000E+00  0.000000000E+00  8.536904206E+00  8.536904206E+00  0.000000000E+00  0.00000E+00  9.000E+00
      21    -1     0     0   517   516  0.000000000E+00  0.000000000E+00 -2.667336113E+01  2.667336113E+01  0.000000000E+00  0.00000E+00  9.000E+00
      21     1     1     2   515   512  1.308225496E+01 -6.906614771E+00 -1.134926408E+01  1.864544228E+01  2.384185791E-07  0.00000E+00  9.000E+00
      21     1     1     2   511   515 -4.815856838E+00  2.210125099E+00 -4.055905317E+00  6.672892774E+00  5.960464478E-08  0.00000E+00  9.000E+00
      21     1     1     2   517   511 -8.266398126E+00  4.696489672E+00 -2.731287528E+00  9.891930286E+00  3.195943026E-07  0.00000E+00  9.000E+00
</event>
<event>
      5  10001  2.40292E+09  1.39692E+01 -1.00000E+00  1.80298E-01
      21    -1     0     0   513   511  0.000000000E+00  0.000000000E+00  1.276552180E+02  1.276552180E+02  0.000000000E+00  0.00000E+00  9.000E+00
      21    -1     0     0   512   514  0.000000000E+00  0.000000000E+00 -4.954028252E+01  4.954028252E+01  0.000000000E+00  0.00000E+00  9.000E+00
      21     1     1     2   513   514  1.577597059E-01 -2.292165523E+01  1.199713873E+02  1.221415611E+02  1.348699152E-06  0.00000E+00  9.000E+00
      21     1     1     2   512   515  5.588309914E+00  1.041023248E+01 -3.931687349E+01  4.105385108E+01  1.066240300E-06  0.00000E+00  9.000E+00
      21     1     1     2   515   511 -5.746069620E+00  1.251142275E+01 -2.539578366E+00  1.400008834E+01  3.195943026E-07  0.00000E+00  9.000E+00
</event>
<event>
      5  10001  2.40292E+09  6.30442E+00 -1.00000E+00  2.22109E-01
      21    -1     0     0   516   515  0.000000000E+00  0.000000000E+00  2.487392392E+02  2.487392392E+02  0.000000000E+00  0.00000E+00  9.000E+00
      21    -1     0     0   511   516  0.000000000E+00  0.000000000E+00 -2.234238714E+00  2.234238714E+00  0.000000000E+00  0.00000E+00  9.000E+00
      21     1     1     2   512   515 -9.401979316E+00 -4.240664317E+00  2.318921462E+02  2.321214077E+02  3.814697266E-06  0.00000E+00  9.000E+00
      21     1     1     2   511   513  1.702389517E+00  2.379088512E+00  9.806000186E-01  3.085412227E+00  1.120067863E-07  0.00000E+00  9.000E+00
      21     1     1     2   513   512  7.699589799E+00  1.861575804E+00  1.363225433E+01  1.576665803E+01  2.384185791E-07  0.00000E+00  9.000E+00
</event>
<event>
      5  10001  2.40292E+09  4.51887E+00 -1.00000E+00  2.51485E-01
      21    -1     0     0   516   511  0.000000000E+00  0.000000000E+00  2.447059548E+01  2.447059548E+01  0.000000000E+00  0.00000E+00  9.000E+00
      21    -1     0     0   515   512  0.000000000E+00  0.000000000E+00 -1.774123098E+01  1.774123098E+01  0.000000000E+00  0.00000E+00  9.000E+00
      21     1     1     2   514   512  1.824015413E+00 -1.003534590E+01 -1.189697765E+01  1.567077780E+01  4.460403188E-07  0.00000E+00  9.000E+00
      21     1     1     2   515   511 -5.629335900E+00  1.247249639E+01  1.052068583E+01  1.726086381E+01  4.616955931E-07  0.00000E+00  9.000E+00
      21     1     1     2   516   514  3.805320487E+00 -2.437150496E+00  8.105656320E+00  9.280184854E+00  1.192092896E-07  0.00000E+00  9.000E+00
</event>
<event>
      5  10001  2.40292E+09  4.25232E+00 -1.00000E+00  2.57261E-01
      21    -1     0     0   513   514  0.000000000E+00  0.000000000E+00  1.817473645E+02  1.817473645E+02  0.000000000E+00  0.00000E+00  9.000E+00
      21    -1     0     0   512   513  0.000000000E+00  0.000000000E+00 -1.679395623E+00  1.679395623E+00  0.000000000E+00  0.00000E+00  9.000E+00
      -1     1     1     2     0   511 -1.126408079E+01  1.045842573E+01  7.735780613E+01  7.887076298E+01  3.300000131E-01  0.00000E+00  9.000E+00
      21     1     1     2   511   514  7.275241401E+00 -8.988941368E+00  9.536059162E+01  9.605921423E+01  0.000000000E+00  0.00000E+00  9.000E+00
       1     1     1     2   512     0  3.988839389E+00 -1.469484362E+00  7.349571109E+00  8.496782888E+00  3.300000131E-01  0.00000E+00  9.000E+00
</event>
<event>
      5  10001  2.40292E+09  5.55184E+00 -1.00000E+00  2.30756E-01
      21    -1     0     0   515   511  0.000000000E+00  0.000000000E+00  1.263191155E+01  1.263191155E+01  0.000000000E+00  0.00000E+00  9.000E+00
      21    -1     0     0   512   516  0.000000000E+00  0.000000000E+00 -1.013917862E+02  1.013917862E+02  0.000000000E+00  0.00000E+00  9.000E+00
      21     1     1     2   515   516  1.629661235E+01  5.266826407E+00  5.398093287E+00  1.795712799E+01  5.654593098E-07  0.00000E+00  9.000E+00
      21     1     1     2   513   511 -1.454743443E+01 -1.818947735E+00 -6.376449195E+01  6.542818088E+01  6.743495762E-07  0.00000E+00  9.000E+00
      21     1     1     2   512   513 -1.749177918E+00 -3.447878673E+00 -3.039347602E+01  3.063838892E+01  0.000000000E+00  0.00000E+00  9.000E+00
</event>
<event>
      5  10001  2.40292E+09  4.98210E+00 -1.00000E+00  2.42763E-01
      -1    -1     0     0     0   516  0.000000000E+00  0.000000000E+00  1.017736680E+02  1.017736680E+02  0.000000000E+00  0.00000E+00  9.000E+00
      21    -1     0     0   514   515  0.000000000E+00  0.000000000E+00 -8.561973587E+00  8.561973587E+00  0.000000000E+00  0.00000E+00  9.000E+00
      -1     1     1     2     0   511 -1.951747424E+01 -1.640419922E+00  7.973619930E+01  8.210720527E+01  3.300000131E-01  0.00000E+00  9.000E+00
      21     1     1     2   511   515  1.681455984E+01  5.825388465E+00  5.148480850E+00  1.852488674E+01  3.039252468E-07  0.00000E+00  9.000E+00
      21     1     1     2   514   516  2.702914394E+00 -4.184968543E+00  8.327014255E+00  9.703549574E+00  0.000000000E+00  0.00000E+00  9.000E+00
</event>
<event>
      5  10001  2.40292E+09  1.95513E+01 -1.00000E+00  1.67144E-01
       2    -1     0     0   511     0  0.000000000E+00  0.000000000E+00  2.671377887E+01  2.671377887E+01  0.000000000E+00  0.00000E+00  9.000E+00
      21    -1     0     0   512   513  0.000000000E+00  0.000000000E+00 -3.569668560E+01  3.569668560E+01  0.000000000E+00  0.00000E+00  9.000E+00
      21     1     1     2   511   515  5.685788456E+00 -2.220065074E+01  4.049437627E+00  2.327219433E+01  5.495276724E-07  0.00000E+00  9.000E+00
       2     1     1     2   512     0  1.115362519E+00  1.799877936E+01 -2.111515943E+01  2.776974882E+01  3.300000131E-01  0.00000E+00  9.000E+00
      21     1     1     2   515   513 -6.801150974E+00  4.201871381E+00  8.082815069E+00  1.136852133E+01  1.685873940E-07  0.00000E+00  9.000E+00
</event>
<event>
      5  10001  2.40292E+09  7.79180E+00 -1.00000E+00  2.09112E-01
      21    -1     0     0   511   512  0.000000000E+00  0.000000000E+00  1.462824234E+01  1.462824234E+01  0.000000000E+00  0.00000E+00  9.000E+00
      21    -1     0     0   516   514  0.000000000E+00  0.000000000E+00 -4.578350285E+01  4.578350285E+01  0.000000000E+00  0.00000E+00  9.000E+00
      21     1     1     2   516   513  1.530202742E+01 -1.739208363E+00 -3.514383509E+01  3.837011902E+01  4.768371582E-07  0.00000E+00  9.000E+00
      21     1     1     2   513   512 -7.651213014E+00  2.636563914E-01 -5.746358012E+00  9.572419009E+00  2.665600750E-07  0.00000E+00  9.000E+00
      21     1     1     2   511   514 -7.650814407E+00  1.475551972E+00  9.734932584E+00  1.246920716E+01  1.685873940E-07  0.00000E+00  9.000E+00
</event>
<event>
      5  10001  2.40292E+09  6.12255E+00 -1.00000E+00  2.24039E-01
      21    -1     0     0   515   513  0.000000000E+00  0.000000000E+00  7.743096932E+01  7.743096932E+01  0.000000000E+00  0.00000E+00  9.000E+00
      21    -1     0     0   517   515  0.000000000E+00  0.000000000E+00 -2.222927732E+01  2.222927732E+01  0.000000000E+00  0.00000E+00  9.000E+00
      21     1     1     2   517   514  9.741949787E+00 -2.085784290E+00 -2.034666492E+01  2.265486383E+01  4.129530925E-07  0.00000E+00  9.000E+00
      21     1     1     2   514   512 -4.942243087E+00  5.350343725E+00  5.941030790E+01  5.985513036E+01  9.536743164E-07  0.00000E+00  9.000E+00
      21     1     1     2   512   513 -4.799706700E+00 -3.264559435E+00  1.613804902E+01  1.715025245E+01  2.384185791E-07  0.00000E+00  9.000E+00
</event>
<event>
      5  10001  2.40292E+09  6.33691E+00 -1.00000E+00  2.21773E-01
      21    -1     0     0   511   514  0.000000000E+00  0.000000000E+00  5.619327724E+01  5.619327724E+01  0.000000000E+00  0.00000E+00  9.000E+00
      21    -1     0     0   515   511  0.000000000E+00  0.000000000E+00 -1.269220013E+01  1.269220013E+01  0.000000000E+00  0.00000E+00  9.000E+00
      21     1     1     2   513   516 -1.662227491E+00  1.336774545E+01 -5.471312704E+00  1.453942507E+01  4.256623047E-07  0.00000E+00  9.000E+00
      21     1     1     2   516   514 -3.650456417E+00 -9.913497218E+00  4.626364074E+01  4.745448044E+01  9.536743164E-07  0.00000E+00  9.000E+00
      21     1     1     2   515   513  5.312683908E+00 -3.454248233E+00  2.708749079E+00  6.891571863E+00  1.519626234E-07  0.00000E+00  9.000E+00
</event>
<event>
      5  10001  2.40292E+09  8.12608E+00 -1.00000E+00  2.06721E-01
      21    -1     0     0   511   513  0.000000000E+00  0.000000000E+00  3.650014638E+00  3.650014638E+00  0.000000000E+00  0.00000E+00  9.000E+00
      21    -1     0     0   515   512  0.000000000E+00  0.000000000E+00 -1.525606259E+02  1.525606259E+02  0.000000000E+00  0.00000E+00  9.000E+00
      21     1     1     2   517   513  6.156344902E+00 -5.751695515E+00 -7.393383194E+01  7.441232484E+01  0.000000000E+00  0.00000E+00  9.000E+00
      21     1     1     2   515   517 -3.847636064E+00  1.354290722E+01 -7.164586103E+01  7.301605332E+01  9.536743164E-07  0.00000E+00  9.000E+00
      21     1     1     2   511   512 -2.308708838E+00 -7.791211700E+00 -3.330918338E+00  8.782262421E+00  3.182017282E-07  0.00000E+00  9.000E+00
</event>
<event>
      5  10001  2.40292E+09  4.16240E+01 -1.00000E+00  1.43745E-01
      21    -1     0     0   514   515  0.000000000E+00  0.000000000E+00  9.311567758E+01  9.311567758E+01  0.000000000E+00  0.00000E+00  9.000E+00
      21    -1     0     0   516   513  0.000000000E+00  0.000000000E+00 -2.016268261E+02  2.016268261E+02  0.000000000E+00  0.00000E+00  9.000E+00
      21     1     1     2   512   515 -3.884034622E+01  3.761406688E+01  7.385291892E+01  9.152947151E+01  2.132480600E-06  0.00000E+00  9.000E+00
      21     1     1     2   516   512 -6.129564076E-01 -2.434767322E+01 -1.457687214E+02  1.477893943E+02  2.697398305E-06  0.00000E+00  9.000E+00
      21     1     1     2   514   513  3.945330262E+01 -1.326639366E+01 -3.659534597E+01  5.542363788E+01  6.743495762E-07  0.00000E+00  9.000E+00
</event>
<event>
      5  10001  2.40292E+09  7.77992E+00 -1.00000E+00  2.09200E-01
      21    -1     0     0   511   512  0.000000000E+00  0.000000000E+00  1.169080722E+02  1.169080722E+02  0.000000000E+00  0.00000E+00  9.000E+00
       2    -1     0     0   514     0  0.000000000E+00  0.000000000E+00 -4.204699299E+01  4.204699299E+01  0.000000000E+00  0.00000E+00  9.000E+00
      21     1     1     2   514   516  1.555455091E+01 -1.667862656E+00 -2.797166930E+01  3.204902656E+01  8.920806376E-07  0.00000E+00  9.000E+00
       2     1     1     2   511     0 -1.217762875E+01 -5.340799588E+00 -8.183707393E+00  1.561732208E+01  3.300000131E-01  0.00000E+00  9.000E+00
      21     1     1     2   516   512 -3.376922165E+00  7.008662244E+00  1.110164559E+02  1.112887166E+02  0.000000000E+00  0.00000E+00  9.000E+00
</event>
<event>
      5  10001  2.40292E+09  3.85997E+00 -1.00000E+00  2.67059E-01
      -2    -1     0     0     0   511  0.000000000E+00  0.000000000E+00  1.370994905E+02  1.370994905E+02  0.000000000E+00  0.00000E+00  9.000E+00
      21    -1     0     0   512   513  0.000000000E+00  0.000000000E+00 -1.730245253E+00  1.730245253E+00  0.000000000E+00  0.00000E+00  9.000E+00
      -2     1     1     2     0   514 -4.846418001E+00 -1.129210542E+01  2.779826763E+01  3.039493371E+01  3.300000131E-01  0.00000E+00  9.000E+00
      21     1     1     2   514   513  3.875284084E+00  7.556771838E+00  4.850341891E+01  4.924128626E+01  6.743495762E-07  0.00000E+00  9.000E+00
      21     1     1     2   512   511  9.711339169E-01  3.735333578E+00  5.906755873E+01  5.919351580E+01  0.000000000E+00  0.00000E+00  9.000E+00
</event>
<event>
      5  10001  2.40292E+09  1.62663E+00 -1.00000E+00  4.10618E-01
       5    -1     0     0   512     0  0.000000000E+00  0.000000000E+00  7.156297958E+00  7.156297958E+00  0.000000000E+00  0.00000E+00  9.000E+00
      21    -1     0     0   515   513  0.000000000E+00  0.000000000E+00 -1.569162426E+01  1.569162426E+01  0.000000000E+00  0.00000E+00  9.000E+00
       3     1     1     2   512     0  6.000491874E+00 -7.613224157E-01 -1.935456266E+00  6.370361489E+00  5.000000000E-01  0.00000E+00  9.000E+00
       5     1     1     2   515     0 -9.668527225E+00  2.252200470E+00 -4.078947159E+00  1.175715261E+01  4.800000191E+00  0.00000E+00  9.000E+00
      -3     1     1     2     0   513  3.668035351E+00 -1.490878054E+00 -2.520922880E+00  4.720408126E+00  5.000000000E-01  0.00000E+00  9.000E+00
</event>
<event>
      5  10001  2.40292E+09  2.07618E+00 -1.00000E+00  3.55457E-01
       4    -1     0     0   514     0  0.000000000E+00  0.000000000E+00  7.482329878E+01  7.482329878E+01  0.000000000E+00  0.00000E+00  9.000E+00
      -1    -1     0     0     0   511  0.000000000E+00  0.000000000E+00 -5.526523779E+01  5.526523779E+01  0.000000000E+00  0.00000E+00  9.000E+00
      -1     1     1     2     0   512 -1.244420021E+01 -4.283269111E+00 -5.077899194E+01  5.245778718E+01  3.300000131E-01  0.00000E+00  9.000E+00
       4     1     1     2   512     0  1.430742029E+01  3.369781980E+00  1.141224582E+01  1.866941511E+01  1.500000000E+00  0.00000E+00  9.000E+00
      21     1     1     2   514   511 -1.863220082E+00  9.134871311E-01  5.892480711E+01  5.896133429E+01  0.000000000E+00  0.00000E+00  9.000E+00
</event>
<event>
      5  10001  2.40292E+09  2.64009E+01 -1.00000E+00  1.56961E-01
      21    -1     0     0   513   511  0.000000000E+00  0.000000000E+00  6.037132674E+01  6.037132674E+01  0.000000000E+00  0.00000E+00  9.000E+00
      21    -1     0     0   516   515  0.000000000E+00  0.000000000E+00 -6.754323095E+00  6.754323095E+00  0.000000000E+00  0.00000E+00  9.000E+00
      21     1     1     2   513   515 -8.839392659E+00 -7.445100689E-01  1.605335379E+01  1.834119204E+01  2.384185791E-07  0.00000E+00  9.000E+00
      21     1     1     2   516   512  7.170071819E+00  1.107323570E+00 -3.239568005E+00  7.945495342E+00  2.230201594E-07  0.00000E+00  9.000E+00
      21     1     1     2   512   511  1.669320841E+00 -3.628135015E-01  4.080321787E+01  4.083896245E+01  4.768371582E-07  0.00000E+00  9.000E+00
</event>
<event>
      5  10001  2.40292E+09  5.01181E+00 -1.00000E+00  2.38250E-01
      21    -1     0     0   514   515  0.000000000E+00  0.000000000E+00  6.163607277E+01  6.163607277E+01  0.000000000E+00  0.00000E+00  9.000E+00
      21    -1     0     0   517   513  0.000000000E+00  0.000000000E+00 -2.817520061E+01  2.817520061E+01  0.000000000E+00  0.00000E+00  9.000E+00
      21     1     1     2   514   511  8.264990510E+00 -3.358960100E+00  4.994997381E+01  5.074044309E+01  9.536743164E-07  0.00000E+00  9.000E+00
      21     1     1     2   517   515 -1.087555854E+01  7.637179943E+00  7.022754046E+00  1.503074734E+01  2.384185791E-07  0.00000E+00  9.000E+00
      21     1     1     2   511   513  2.610568035E+00 -4.278219843E+00 -2.351185570E+01  2.404008296E+01  5.840038640E-07  0.00000E+00  9.000E+00
</event>
<event>
      5  10001  2.40292E+09  1.13691E+01 -1.00000E+00  1.89474E-01
      21    -1     0     0   512   515  0.000000000E+00  0.000000000E+00  2.701870659E-01  2.701870659E-01  0.000000000E+00  0.00000E+00  9.000E+00
       2    -1     0     0   511     0  0.000000000E+00  0.000000000E+00 -3.778604141E+02  3.778604141E+02  0.000000000E+00  0.00000E+00  9.000E+00
      21     1     1     2   514   515  2.257268335E+00 -2.399171762E+00 -1.796502142E+01  1.826453614E+01  2.384185791E-07  0.00000E+00  9.000E+00
       2     1     1     2   512     0 -3.067898285E+00  6.577258874E+00 -1.310379321E+02  1.312391743E+02  3.300000131E-01  0.00000E+00  9.000E+00
      21     1     1     2   511   514  8.106299498E-01 -4.178087111E+00 -2.285872736E+02  2.286268908E+02  2.697398305E-06  0.00000E+00  9.000E+00
</event>
<event>
      5  10001  2.40292E+09  1.67781E+01 -1.00000E+00  1.72875E-01
      21    -1     0     0   513   515  0.000000000E+00  0.000000000E+00  1.021023319E+01  1.021023319E+01  0.000000000E+00  0.00000E+00  9.000E+00
      21    -1     0     0   511   514  0.000000000E+00  0.000000000E+00 -4.372311853E+02  4.372311853E+02  0.000000000E+00  0.00000E+00  9.000E+00
      21     1     1     2   513   514  3.216171863E+00  2.087091581E+01 -1.364410731E+00  2.116129733E+01  6.986086470E-07  0.00000E+00  9.000E+00
      21     1     1     2   511   512 -3.906042172E+00 -2.573745409E+00 -9.977276200E+01  9.988235764E+01  1.348699152E-06  0.00000E+00  9.000E+00
      21     1     1     2   512   515  6.898703098E-01 -1.829717040E+01 -3.258837794E+02  3.263977636E+02  5.394796609E-06  0.00000E+00  9.000E+00
</event>
<event>
      5  10001  2.40292E+09  6.17530E+00 -1.00000E+00  2.23470E-01
      21    -1     0     0   516   511  0.000000000E+00  0.000000000E+00  1.498266102E+01  1.498266102E+01  0.000000000E+00  0.00000E+00  9.000E+00
      21    -1     0     0   513   515  0.000000000E+00  0.000000000E+00 -4.670118125E+01  4.670118125E+01  0.000000000E+00  0.00000E+00  9.000E+00
      21     1     1     2   516   515 -3.985300779E+00  1.258660700E+01 -1.732234161E+00  1.331562741E+01  3.650024150E-08  0.00000E+00  9.000E+00
      21     1     1     2   517   511  8.384537222E+00 -1.692031823E+01 -1.194393970E+00  1.892152769E+01  4.126841552E-07  0.00000E+00  9.000E+00
      21     1     1     2   513   517 -4.399236443E+00  4.333711226E+00 -2.879189210E+01  2.944668716E+01  3.371747881E-07  0.00000E+00  9.000E+00
</event>
<event>
      5  10001  2.40292E+09  5.74470E+00 -1.00000E+00  2.28364E-01
      21    -1     0     0   512   515  0.000000000E+00  0.000000000E+00  1.474738050E+01  1.474738050E+01  0.000000000E+00  0.00000E+00  9.000E+00
      21    -1     0     0   513   512  0.000000000E+00  0.000000000E+00 -2.892268518E+02  2.892268518E+02  0.000000000E+00  0.00000E+00  9.000E+00
      21     1     1     2   513   514  1.387553627E+01  4.332559222E+00 -2.850413933E+02  2.854118033E+02  0.000000000E+00  0.00000E+00  9.000E+00
      21     1     1     2   511   515 -3.283913365E+00 -1.508089084E+00  5.270523244E+00  6.390370486E+00  3.371747881E-07  0.00000E+00  9.000E+00
      21     1     1     2   514   511 -1.059162290E+01 -2.824470139E+00  5.291398756E+00  1.217205850E+01  7.202056631E-07  0.00000E+00  9.000E+00
</event>
<event>
      5  10001  2.40292E+09  6.23665E+00 -1.00000E+00  2.22817E-01
       1    -1     0     0   512     0  0.000000000E+00  0.000000000E+00  3.455637842E+01  3.455637842E+01  0.000000000E+00  0.00000E+00  9.000E+00
      21    -1     0     0   513   512  0.000000000E+00  0.000000000E+00 -2.603313950E+01  2.603313950E+01  0.000000000E+00  0.00000E+00  9.000E+00
      21     1     1     2   511   516 -1.235678891E+01  7.680868371E+00 -1.594573325E+01  2.158593014E+01  4.129530925E-07  0.00000E+00  9.000E+00
       1     1     1     2   516     0  1.769668542E+01 -4.459248568E+00  2.673201510E+01  3.236923083E+01  3.300000131E-01  0.00000E+00  9.000E+00
      21     1     1     2   513   511 -5.339896515E+00 -3.221619803E+00 -2.263042927E+00  6.634356957E+00  5.960464478E-08  0.00000E+00  9.000E+00
</event>
<event>
      5  10001  2.40292E+09  1.45663E+01 -1.00000E+00  1.78544E-01
       3    -1     0     0   511     0  0.000000000E+00  0.000000000E+00  1.359290623E+02  1.359290623E+02  0.000000000E+00  0.00000E+00  9.000E+00
      -2    -1     0     0     0   511  0.000000000E+00  0.000000000E+00 -4.014094434E+00  4.014094434E+00  0.000000000E+00  0.00000E+00  9.000E+00
      -2     1     1     2     0   512  8.488443107E+00  9.418532225E+00  1.308737879E+01  1.822500478E+01  3.300000131E-01  0.00000E+00  9.000E+00
       3     1     1     2   514     0 -1.343855181E+01 -3.634410285E+00  1.051141132E+02  1.060331571E+02  5.000000000E-01  0.00000E+00  9.000E+00
      21     1     1     2   512   514  4.950108701E+00 -5.784121941E+00  1.371347592E+01  1.568499489E+01  1.685873940E-07  0.00000E+00  9.000E+00
</event>
<event>
      5  10001  2.40292E+09  6.04919E+00 -1.00000E+00  2.24844E-01
       2    -1     0     0   512     0  0.000000000E+00  0.000000000E+00  7.117792430E+02  7.117792430E+02  0.000000000E+00  0.00000E+00  9.000E+00
      21    -1     0     0   513   511  0.000000000E+00  0.000000000E+00 -2.198196060E+01  2.198196060E+01  0.000000000E+00  0.00000E+00  9.000E+00
      21     1     1     2   512   511  3.318593406E+00  1.204737418E+01 -1.970448987E+01  2.333279255E+01  1.390207266E-06  0.00000E+00  9.000E+00
       2     1     1     2   515     0 -3.754329644E+00 -1.590988710E+01  6.995999098E+02  6.997909417E+02  3.300000131E-01  0.00000E+00  9.000E+00
      21     1     1     2   513   515  4.357362381E-01  3.862512918E+00  9.901862558E+00  1.063746935E+01  1.685873940E-07  0.00000E+00  9.000E+00
</event>
<event>
      5  10001  2.40292E+09  8.87107E+00 -1.00000E+00  2.01908E-01
      21    -1     0     0   514   511  0.000000000E+00  0.000000000E+00  1.099197050E+01  1.099197050E+01  0.000000000E+00  0.00000E+00  9.000E+00
      21    -1     0     0   513   516  0.000000000E+00  0.000000000E+00 -1.001567916E+02  1.001567916E+02  0.000000000E+00  0.00000E+00  9.000E+00
      21     1     1     2   514   516 -1.799399389E+01 -1.707755860E+01 -9.627072010E+00  2.661028635E+01  5.331201500E-07  0.00000E+00  9.000E+00
      21     1     1     2   513   512  8.699975727E+00  1.511865818E+01 -6.393763851E+01  6.627431645E+01  6.743495762E-07  0.00000E+00  9.000E+00
      21     1     1     2   512   511  9.294018167E+00  1.958900425E+00 -1.560011055E+01  1.826415927E+01  3.769728732E-07  0.00000E+00  9.000E+00
</event>
<event>
      5  10001  2.40292E+09  2.96280E+00 -1.00000E+00  2.98381E-01
      21    -1     0     0   515   512  0.000000000E+00  0.000000000E+00  3.226087412E+02  3.226087412E+02  0.000000000E+00  0.00000E+00  9.000E+00
      21    -1     0     0   514   515  0.000000000E+00  0.000000000E+00 -2.498912276E+01  2.498912276E+01  0.000000000E+00  0.00000E+00  9.000E+00
      21     1     1     2   513   512  6.249892850E+00  6.331571361E+00  3.070107818E+02  3.071396589E+02  8.529922400E-06  0.00000E+00  9.000E+00
      21     1     1     2   511   513 -9.207109505E+00 -6.513412729E+00  1.337770258E+01  1.749738087E+01  5.331201500E-07  0.00000E+00  9.000E+00
      21     1     1     2   514   511  2.957216655E+00  1.818413681E-01 -2.276886586E+01  2.296082423E+01  4.768371582E-07  0.00000E+00  9.000E+00
</event>
<event>
      5  10001  2.40292E+09  6.03635E+00 -1.00000E+00  2.24987E-01
       2    -1     0     0   513     0  0.000000000E+00  0.000000000E+00  5.813480014E+02  5.813480014E+02  0.000000000E+00  0.00000E+00  9.000E+00
       1    -1     0     0   512     0  0.000000000E+00  0.000000000E+00 -3.240693512E+00  3.240693512E+00  0.000000000E+00  0.00000E+00  9.000E+00
       1     1     1     2   514     0 -6.802155004E+00  1.200145404E+01  1.303618060E+01  1.898302179E+01  3.300000131E-01  0.00000E+00  9.000E+00
       2     1     1     2   512     0  8.582273242E-01 -1.095030213E+01  5.217857961E+02  5.219014961E+02  3.300000131E-01  0.00000E+00  9.000E+00
      21     1     1     2   513   514  5.943927680E+00 -1.051151909E+00  4.328533120E+01  4.370417708E+01  4.768371582E-07  0.00000E+00  9.000E+00
</event>
<event>
      5  10001  2.40292E+09  2.31116E+01 -1.00000E+00  1.61310E-01
      21    -1     0     0   511   512  0.000000000E+00  0.000000000E+00  2.960911336E+01  2.960911336E+01  0.000000000E+00  0.00000E+00  9.000E+00
      21    -1     0     0   515   511  0.000000000E+00  0.000000000E+00 -6.507114496E+00  6.507114496E+00  0.000000000E+00  0.00000E+00  9.000E+00
      21     1     1     2   515   514 -2.678132349E+00  5.617387456E+00  1.988146857E+00  6.533005635E+00  1.800514158E-07  0.00000E+00  9.000E+00
      21     1     1     2   516   512  1.251063873E+00 -1.866511204E+00 -3.764036601E+00  4.383719474E+00  2.190014490E-07  0.00000E+00  9.000E+00
      21     1     1     2   514   516  1.427068476E+00 -3.750876252E+00  2.487788860E+01  2.519950274E+01  3.371747881E-07  0.00000E+00  9.000E+00
</event>
<event>
      5  10001  2.40292E+09  7.59804E+00 -1.00000E+00  2.10574E-01
      21    -1     0     0   513   512  0.000000000E+00  0.000000000E+00  1.829823992E+00  1.829823992E+00  0.000000000E+00  0.00000E+00  9.000E+00
      21    -1     0     0   517   513  0.000000000E+00  0.000000000E+00 -1.557143327E+02  1.557143327E+02  0.000000000E+00  0.00000E+00  9.000E+00
      21     1     1     2   516   512  9.147808822E+00  1.382659568E+01 -7.013283204E+01  7.206574279E+01  0.000000000E+00  0.00000E+00  9.000E+00
      21     1     1     2   511   516 -3.148853354E+00 -2.268610085E+00 -1.434583682E+01  1.486152425E+01  2.384185791E-07  0.00000E+00  9.000E+00
      21     1     1     2   517   511 -5.998955467E+00 -1.155798560E+01 -6.940583986E+01  7.061688965E+01  0.000000000E+00  0.00000E+00  9.000E+00
</event>
<event>
      5  10001  2.40292E+09  5.93751E+00 -1.00000E+00  2.26101E-01
      21    -1     0     0   514   511  0.000000000E+00  0.000000000E+00  3.725105091E+01  3.725105091E+01  0.000000000E+00  0.00000E+00  9.000E+00
      21    -1     0     0   512   513  0.000000000E+00  0.000000000E+00 -1.121160159E+01  1.121160159E+01  0.000000000E+00  0.00000E+00  9.000E+00
      21     1     1     2   514   515 -9.057211387E+00 -6.934665470E+00  2.299657072E+01  2.567031219E+01  0.000000000E+00  0.00000E+00  9.000E+00
      21     1     1     2   512   511  1.099466778E+01  1.322158708E+00  9.083110218E+00  1.432248981E+01  3.953724850E-07  0.00000E+00  9.000E+00
      21     1     1     2   515   513 -1.937456390E+00  5.612506762E+00 -6.040231612E+00  8.469850491E+00  1.460009660E-07  0.00000E+00  9.000E+00
</event>
<event>
      5  10001  2.40292E+09  3.13755E+00 -1.00000E+00  2.90949E-01
      21    -1     0     0   516   511  0.000000000E+00  0.000000000E+00  8.180458148E+02  8.180458148E+02  0.000000000E+00  0.00000E+00  9.000E+00
      21    -1     0     0   517   516  0.000000000E+00  0.000000000E+00 -1.297759556E+01  1.297759556E+01  0.000000000E+00  0.00000E+00  9.000E+00
      21     1     1     2   517   513 -1.045720105E+01 -8.005773610E+00 -5.150535073E+00  1.414119784E+01  2.064765462E-07  0.00000E+00  9.000E+00
      21     1     1     2   513   512  1.227730893E+01  5.450107284E+00  1.022307491E+01  1.688038047E+01  3.153981341E-07  0.00000E+00  9.000E+00
      21     1     1     2   512   511 -1.820107887E+00  2.555666327E+00  7.999956794E+02  8.000018321E+02  0.000000000E+00  0.00000E+00  9.000E+00
</event>
<event>
      5  10001  2.40292E+09  1.38453E+01 -1.00000E+00  1.80675E-01
       2    -1     0     0   514     0  0.000000000E+00  0.000000000E+00  1.172833691E+02  1.172833691E+02  0.000000000E+00  0.00000E+00  9.000E+00
      21    -1     0     0   513   514  0.000000000E+00  0.000000000E+00 -1.081355314E+02  1.081355314E+02  0.000000000E+00  0.00000E+00  9.000E+00
       2     1     1     2   513     0 -6.009590085E-01  6.075917948E+00 -7.374806684E+01  7.400110941E+01  3.300000131E-01  0.00000E+00  9.000E+00
       2     1     1     2   512     0 -1.020980196E+01 -8.928829663E-01  1.158738224E+02  1.163266475E+02  3.300000131E-01  0.00000E+00  9.000E+00
      -2     1     1     2     0   512  1.081076097E+01 -5.183034982E+00 -3.297791779E+01  3.509114370E+01  3.300000131E-01  0.00000E+00  9.000E+00
</event>
<event>
      5  10001  2.40292E+09  9.97605E+00 -1.00000E+00  1.95819E-01
      21    -1     0     0   514   512  0.000000000E+00  0.000000000E+00  2.455149953E+02  2.455149953E+02  0.000000000E+00  0.00000E+00  9.000E+00
      21    -1     0     0   515   511  0.000000000E+00  0.000000000E+00 -1.905402196E+01  1.905402196E+01  0.000000000E+00  0.00000E+00  9.000E+00
      21     1     1     2   515   513 -1.723113250E+00 -1.599593402E+01 -1.444976928E+01  2.162486663E+01  5.840038640E-07  0.00000E+00  9.000E+00
      21     1     1     2   513   512  1.153264408E+01  1.781107013E+01  1.515353526E+02  1.530137222E+02  1.907348633E-06  0.00000E+00  9.000E+00
      21     1     1     2   514   511 -9.809530826E+00 -1.815136103E+00  8.937539005E+01  8.993042845E+01  9.536743164E-07  0.00000E+00  9.000E+00
</event>
<event>
      5  10001  2.40292E+09  4.47791E+00 -1.00000E+00  2.52332E-01
      21    -1     0     0   516   513  0.000000000E+00  0.000000000E+00  3.147438887E+02  3.147438887E+02  0.000000000E+00  0.00000E+00  9.000E+00
      21    -1     0     0   517   516  0.000000000E+00  0.000000000E+00 -2.766312387E+01  2.766312387E+01  0.000000000E+00  0.00000E+00  9.000E+00
      21     1     1     2   517   511  8.037608481E+00  7.649663777E+00 -2.641937997E+01  2.865491483E+01  1.011524364E-06  0.00000E+00  9.000E+00
      21     1     1     2   511   512 -4.118647055E+00 -7.525633210E+00  1.989880587E+02  1.991729046E+02  3.814697266E-06  0.00000E+00  9.000E+00
      21     1     1     2   512   513 -3.918961425E+00 -1.240305669E-01  1.145120860E+02  1.145791931E+02  1.348699152E-06  0.00000E+00  9.000E+00
</event>
<event>
      5  10001  2.40292E+09  6.55130E+00 -1.00000E+00  2.19628E-01
      21    -1     0     0   514   511  0.000000000E+00  0.000000000E+00  2.840707104E+00  2.840707104E+00  0.000000000E+00  0.00000E+00  9.000E+00
      21    -1     0     0   515   513  0.000000000E+00  0.000000000E+00 -4.383739622E+01  4.383739622E+01  0.000000000E+00  0.00000E+00  9.000E+00
      21     1     1     2   514   513  1.781761254E+00 -9.789106044E+00 -2.232680110E+01  2.444355370E+01  2.384185791E-07  0.00000E+00  9.000E+00
      21     1     1     2   516   511  2.912556351E-01  4.849039168E+00 -3.085083234E+00  5.754628507E+00  4.214684851E-08  0.00000E+00  9.000E+00
      21     1     1     2   515   516 -2.073016889E+00  4.940066876E+00 -1.558480479E+01  1.647992112E+01  2.920019320E-07  0.00000E+00  9.000E+00
</event>
<event>
      5  10001  2.40292E+09  6.38301E+00 -1.00000E+00  2.21302E-01
      21    -1     0     0   515   513  0.000000000E+00  0.000000000E+00  8.699441569E+00  8.699441569E+00  0.000000000E+00  0.00000E+00  9.000E+00
       2    -1     0     0   511     0  0.000000000E+00  0.000000000E+00 -1.052499495E+03  1.052499495E+03  0.000000000E+00  0.00000E+00  9.000E+00
      21     1     1     2   515   512 -1.469232169E+01 -3.858662585E+00 -9.405936698E+01  9.527810929E+01  5.046370146E-06  0.00000E+00  9.000E+00
       2     1     1     2   512     0  8.530010205E+00  5.522519450E+00 -9.565404945E+02  9.565945253E+02  3.300000131E-01  0.00000E+00  9.000E+00
      21     1     1     2   511   513  6.162311488E+00 -1.663856865E+00  6.799808567E+00  9.326301469E+00  5.057621821E-07  0.00000E+00  9.000E+00
</event>
<event>
      5  10001  2.40292E+09  2.52234E+01 -1.00000E+00  1.58424E-01
      21    -1     0     0   514   512  0.000000000E+00  0.000000000E+00  1.076500143E+02  1.076500143E+02  0.000000000E+00  0.00000E+00  9.000E+00
      21    -1     0     0   511   513  0.000000000E+00  0.000000000E+00 -3.517985752E+00  3.517985752E+00  0.000000000E+00  0.00000E+00  9.000E+00
      21     1     1     2   514   513 -1.218706708E+01 -5.681437857E+00  1.986213010E+01  2.398556967E+01  3.371747881E-07  0.00000E+00  9.000E+00
      21     1     1     2   515   512 -1.272624657E+00 -2.390195134E+00  4.209528795E+01  4.218229337E+01  0.000000000E+00  0.00000E+00  9.000E+00
      21     1     1     2   511   515  1.345969174E+01  8.071632991E+00  4.217461053E+01  4.500013705E+01  4.768371582E-07  0.00000E+00  9.000E+00
</event>
<event>
      5  10001  2.40292E+09  4.10575E+00 -1.00000E+00  2.60722E-01
       2    -1     0     0   511     0  0.000000000E+00  0.000000000E+00  1.325271241E+02  1.325271241E+02  0.000000000E+00  0.00000E+00  9.000E+00
      21    -1     0     0   516   515  0.000000000E+00  0.000000000E+00 -2.252690356E+01  2.252690356E+01  0.000000000E+00  0.00000E+00  9.000E+00
      21     1     1     2   511   515 -7.576021771E+00 -7.177004732E+00 -2.088002441E+01  2.334268455E+01  4.129530925E-07  0.00000E+00  9.000E+00
       2     1     1     2   512     0  3.450113909E+00  5.141059002E+00  1.152843094E+02  1.154509189E+02  3.300000131E-01  0.00000E+00  9.000E+00
      21     1     1     2   516   512  4.125907863E+00  2.035945730E+00  1.559593555E+01  1.626042423E+01  1.685873940E-07  0.00000E+00  9.000E+00
</event>
<event>
      5  10001  2.40292E+09  5.43211E+00 -1.00000E+00  2.32311E-01
      21    -1     0     0   513   511  0.000000000E+00  0.000000000E+00  2.942824333E+00  2.942824333E+00  0.000000000E+00  0.00000E+00  9.000E+00
      21    -1     0     0   516   514  0.000000000E+00  0.000000000E+00 -1.983628677E+02  1.983628677E+02  0.000000000E+00  0.00000E+00  9.000E+00
      21     1     1     2   513   514  6.464687693E+00  5.068883531E+00 -1.367495683E+02  1.369960956E+02  1.907348633E-06  0.00000E+00  9.000E+00
      21     1     1     2   516   512 -9.561257010E+00 -9.531964267E+00 -5.707203245E+01  5.864718975E+01  6.743495762E-07  0.00000E+00  9.000E+00
      21     1     1     2   512   511  3.096569317E+00  4.463080736E+00 -1.598442633E+00  5.662406736E+00  1.010645923E-07  0.00000E+00  9.000E+00
</event>
<event>
      5  10001  2.40292E+09  6.55191E+00 -1.00000E+00  2.19622E-01
      21    -1     0     0   515   511  0.000000000E+00  0.000000000E+00  6.837808267E+00  6.837808267E+00  0.000000000E+00  0.00000E+00  9.000E+00
      21    -1     0     0   513   515  0.000000000E+00  0.000000000E+00 -7.502661598E+01  7.502661598E+01  0.000000000E+00  0.00000E+00  9.000E+00
      -3     1     1     2     0   512  9.580172266E+00 -1.243344109E+01 -4.207531795E+01  4.491049475E+01  5.000000000E-01  0.00000E+00  9.000E+00
      21     1     1     2   512   511 -3.630712796E+00  9.696172094E+00 -3.426688021E-01  1.035930744E+01  2.367245386E-07  0.00000E+00  9.000E+00
       3     1     1     2   513     0 -5.949459470E+00  2.737268992E+00 -2.577082096E+01  2.659462206E+01  5.000000000E-01  0.00000E+00  9.000E+00
</event>
<event>
      5  10001  2.40292E+09  3.62725E+00 -1.00000E+00  2.73782E-01
      21    -1     0     0   514   512  0.000000000E+00  0.000000000E+00  4.249470380E+01  4.249470380E+01  0.000000000E+00  0.00000E+00  9.000E+00
      21    -1     0     0   513   516  0.000000000E+00  0.000000000E+00 -1.653039711E+01  1.653039711E+01  0.000000000E+00  0.00000E+00  9.000E+00
      21     1     1     2   514   516  3.810421886E+00  1.044142132E+01 -1.326912018E+01  1.730930803E+01  1.685873940E-07  0.00000E+00  9.000E+00
      21     1     1     2   511   512 -5.949183944E-01 -8.988755930E+00  3.530169444E+01  3.643296984E+01  6.743495762E-07  0.00000E+00  9.000E+00
      21     1     1     2   513   511 -3.215503492E+00 -1.452665386E+00  3.931732431E+00  5.282823046E+00  7.300048300E-08  0.00000E+00  9.000E+00
</event>
<event>
      5  10001  2.40292E+09  5.84540E+00 -1.00000E+00  2.27167E-01
      21    -1     0     0   513   514  0.000000000E+00  0.000000000E+00  4.326410888E+01  4.326410888E+01  0.000000000E+00  0.00000E+00  9.000E+00
       1    -1     0     0   512     0  0.000000000E+00  0.000000000E+00 -3.116514869E+02  3.116514869E+02  0.000000000E+00  0.00000E+00  9.000E+00
      21     1     1     2   512   511  6.687553329E+00  6.635354803E+00 -1.081173214E+01  1.434032269E+01  8.172577143E-07  0.00000E+00  9.000E+00
       1     1     1     2   513     0 -1.208526092E+01 -4.391860818E+00 -2.987305379E+02  2.990073329E+02  3.300000131E-01  0.00000E+00  9.000E+00
      21     1     1     2   511   514  5.397707594E+00 -2.243493985E+00  4.115489202E+01  4.156794017E+01  9.536743164E-07  0.00000E+00  9.000E+00
</event>
<event>
      5  10001  2.40292E+09  5.91672E+00 -1.00000E+00  2.26339E-01
       4    -1     0     0   511     0  0.000000000E+00  0.000000000E+00  1.269560496E+02  1.269560496E+02  0.000000000E+00  0.00000E+00  9.000E+00
      21    -1     0     0   515   513  0.000000000E+00  0.000000000E+00 -7.086526373E+00  7.086526373E+00  0.000000000E+00  0.00000E+00  9.000E+00
      21     1     1     2   511   513 -9.656123055E+00  1.231779767E+01  3.243170697E+00  1.598396096E+01  1.632340424E-07  0.00000E+00  9.000E+00
       4     1     1     2   512     0  5.742728875E+00 -5.802735452E+00  8.960978363E+01  8.999341084E+01  1.500000000E+00  0.00000E+00  9.000E+00
      21     1     1     2   515   512  3.913394179E+00 -6.515062216E+00  2.701656890E+01  2.806520416E+01  0.000000000E+00  0.00000E+00  9.000E+00
</event>
<event>
      5  10001  2.40292E+09  2.93031E+01 -1.00000E+00  1.53717E-01
      21    -1     0     0   514   512  0.000000000E+00  0.000000000E+00  3.972975205E+01  3.972975205E+01  0.000000000E+00  0.00000E+00  9.000E+00
      21    -1     0     0   515   516  0.000000000E+00  0.000000000E+00 -3.400739770E+01  3.400739770E+01  0.000000000E+00  0.00000E+00  9.000E+00
      21     1     1     2   514   516 -4.168787299E+00 -2.004784858E+01 -2.500922479E+01  3.232269087E+01  4.768371582E-07  0.00000E+00  9.000E+00
      21     1     1     2   515   511 -6.229549800E+00  8.273231350E+00  5.589711448E+00  1.176853949E+01  1.884864366E-07  0.00000E+00  9.000E+00
      21     1     1     2   511   512  1.039833710E+01  1.177461723E+01  2.514186769E+01  2.964591939E+01  3.371747881E-07  0.00000E+00  9.000E+00
</event>
<event>
      5  10001  2.40292E+09  4.99826E+00 -1.00000E+00  2.42485E-01
       1    -1     0     0   515     0  0.000000000E+00  0.000000000E+00  4.514167955E+02  4.514167955E+02  0.000000000E+00  0.00000E+00  9.000E+00
      21    -1     0     0   511   514  0.000000000E+00  0.000000000E+00 -1.172108912E+00  1.172108912E+00  0.000000000E+00  0.00000E+00  9.000E+00
      21     1     1     2   515   513  1.204855511E+01  7.820856223E+00  1.543372348E+02  1.550042436E+02  0.000000000E+00  0.00000E+00  9.000E+00
       1     1     1     2   511     0 -1.670132822E+01 -9.646096939E+00  2.842144167E+02  2.848682592E+02  3.300000131E-01  0.00000E+00  9.000E+00
      21     1     1     2   513   514  4.652773112E+00  1.825240716E+00  1.169303514E+01  1.271640169E+01  3.769728732E-07  0.00000E+00  9.000E+00
</event>
<event>
      5  10001  2.40292E+09  1.02943E+01 -1.00000E+00  1.94254E-01
      21    -1     0     0   512   511  0.000000000E+00  0.000000000E+00  2.720880407E+02  2.720880407E+02  0.000000000E+00  0.00000E+00  9.000E+00
      21    -1     0     0   515   516  0.000000000E+00  0.000000000E+00 -9.558119618E+00  9.558119618E+00  0.000000000E+00  0.00000E+00  9.000E+00
      21     1     1     2   512   516  1.128686167E+01 -3.291288637E+00  8.434910826E+01  8.516453424E+01  2.861022949E-06  0.00000E+00  9.000E+00
      21     1     1     2   513   511 -7.288143175E+00  1.277726831E+01  1.840465221E+02  1.846334150E+02  4.672030912E-06  0.00000E+00  9.000E+00
      21     1     1     2   515   513 -3.998718492E+00 -9.485979673E+00 -5.865709334E+00  1.184821109E+01  4.539354507E-07  0.00000E+00  9.000E+00
</event>
<event>
      5  10001  2.40292E+09  4.87596E+00 -1.00000E+00  2.44633E-01
      21    -1     0     0   514   513  0.000000000E+00  0.000000000E+00  2.806984247E+01  2.806984247E+01  0.000000000E+00  0.00000E+00  9.000E+00
      21    -1     0     0   515   511  0.000000000E+00  0.000000000E+00 -2.222045348E+01  2.222045348E+01  0.000000000E+00  0.00000E+00  9.000E+00
      21     1     1     2   515   517  1.293141023E+01  1.905531365E-01 -6.057648842E+00  1.428120410E+01  4.042583694E-07  0.00000E+00  9.000E+00
      21     1     1     2   517   513 -1.500272541E+01 -4.604691429E+00  2.068698624E+01  2.596606155E+01  0.000000000E+00  0.00000E+00  9.000E+00
      21     1     1     2   514   511  2.071315179E+00  4.414138292E+00 -8.779948407E+00  1.004303029E+01  1.685873940E-07  0.00000E+00  9.000E+00
</event>
<event>
      5  10001  2.40292E+09  5.30616E+00 -1.00000E+00  2.34008E-01
      21    -1     0     0   512   513  0.000000000E+00  0.000000000E+00  3.478046220E+01  3.478046220E+01  0.000000000E+00  0.00000E+00  9.000E+00
      21    -1     0     0   516   512  0.000000000E+00  0.000000000E+00 -1.009148442E+02  1.009148442E+02  0.000000000E+00  0.00000E+00  9.000E+00
      21     1     1     2   511   513  1.349865263E+01 -1.758067454E+01  2.918222300E+01  3.664554379E+01  6.743495762E-07  0.00000E+00  9.000E+00
      21     1     1     2   516   515 -1.417879574E+01  1.216066711E+01 -8.775776162E+01  8.972371369E+01  1.348699152E-06  0.00000E+00  9.000E+00
      21     1     1     2   515   511  6.801431135E-01  5.420007428E+00 -7.558843367E+00  9.326048908E+00  8.429369702E-08  0.00000E+00  9.000E+00
</event>
<event>
      5  10001  2.40292E+09  7.67642E+00 -1.00000E+00  2.09975E-01
      21    -1     0     0   514   516  0.000000000E+00  0.000000000E+00  1.787378375E+01  1.787378375E+01  0.000000000E+00  0.00000E+00  9.000E+00
      21    -1     0     0   513   511  0.000000000E+00  0.000000000E+00 -1.532858343E+01  1.532858343E+01  0.000000000E+00  0.00000E+00  9.000E+00
      21     1     1     2   514   511 -9.378304520E+00 -5.471979240E+00 -7.588298359E+00  1.324678921E+01  1.192092896E-07  0.00000E+00  9.000E+00
      -4     1     1     2     0   516  5.447691937E+00  5.915307373E+00  1.262681747E+01  1.504508984E+01  1.500000000E+00  0.00000E+00  9.000E+00
       4     1     1     2   513     0  3.930612583E+00 -4.433281333E-01 -2.493318792E+00  4.910488134E+00  1.500000000E+00  0.00000E+00  9.000E+00
</event>
<event>
      5  10001  2.40292E+09  4.40280E+00 -1.00000E+00  2.53923E-01
      21    -1     0     0   512   514  0.000000000E+00  0.000000000E+00  2.299044711E+02  2.299044711E+02  0.000000000E+00  0.00000E+00  9.000E+00
      21    -1     0     0   513   515  0.000000000E+00  0.000000000E+00 -7.970421172E+00  7.970421172E+00  0.000000000E+00  0.00000E+00  9.000E+00
      21     1     1     2   512   515  1.364659620E+01 -1.022585015E+01  1.514861426E+02  1.524429368E+02  2.697398305E-06  0.00000E+00  9.000E+00
      21     1     1     2   513   511 -1.097913304E+01  6.723096902E+00 -1.844570340E+00  1.300553090E+01  3.970537363E-07  0.00000E+00  9.000E+00
      21     1     1     2   511   514 -2.667463156E+00  3.502753245E+00  7.229247772E+01  7.242642456E+01  9.536743164E-07  0.00000E+00  9.000E+00
</event>
<event>
      5  10001  2.40292E+09  1.17730E+01 -1.00000E+00  1.87851E-01
       1    -1     0     0   511     0  0.000000000E+00  0.000000000E+00  2.774733708E+00  2.774733708E+00  0.000000000E+00  0.00000E+00  9.000E+00
       1    -1     0     0   512     0  0.000000000E+00  0.000000000E+00 -8.718319220E+02  8.718319220E+02  0.000000000E+00  0.00000E+00  9.000E+00
       1     1     1     2   511     0 -1.047258913E+01 -4.563101459E+00 -8.304960487E+02  8.305746763E+02  3.300000131E-01  0.00000E+00  9.000E+00
      21     1     1     2   512   513  1.547011291E+01  2.209998962E+00 -3.023401400E+01  3.403386683E+01  1.651812370E-06  0.00000E+00  9.000E+00
       1     1     1     2   513     0 -4.997523786E+00  2.353102496E+00 -8.327125548E+00  9.998112584E+00  3.300000131E-01  0.00000E+00  9.000E+00
</event>
<event>
      5  10001  2.40292E+09  5.43973E+00 -1.00000E+00  2.32210E-01
      21    -1     0     0   514   512  0.000000000E+00  0.000000000E+00  2.384802169E+01  2.384802169E+01  0.000000000E+00  0.00000E+00  9.000E+00
      21    -1     0     0   515   511  0.000000000E+00  0.000000000E+00 -1.691997492E+01  1.691997492E+01  0.000000000E+00  0.00000E+00  9.000E+00
      21     1     1     2   515   516 -2.504375126E+00  1.271087957E+01 -4.378627279E+00  1.367518669E+01  2.731427965E-07  0.00000E+00  9.000E+00
      21     1     1     2   516   512 -1.667584388E+00 -9.220115290E+00  1.687919639E+01  1.930540428E+01  0.000000000E+00  0.00000E+00  9.000E+00
      21     1     1     2   514   511  4.171959514E+00 -3.490764276E+00 -5.572522344E+00  7.787405646E+00  1.332800375E-07  0.00000E+00  9.000E+00
</event>
<event>
      5  10001  2.40292E+09  9.04399E+00 -1.00000E+00  2.00879E-01
      21    -1     0     0   513   511  0.000000000E+00  0.000000000E+00  2.019504232E+01  2.019504232E+01  0.000000000E+00  0.00000E+00  9.000E+00
      21    -1     0     0   515   517  0.000000000E+00  0.000000000E+00 -7.210641702E+00  7.210641702E+00  0.000000000E+00  0.00000E+00  9.000E+00
      21     1     1     2   513   517  2.672197926E+00 -7.761593971E+00  2.043028784E-01  8.211255835E+00  2.812532498E-08  0.00000E+00  9.000E+00
      21     1     1     2   512   511  2.874981296E+00  7.661540240E+00  1.019687730E+01  1.307444159E+01  2.064765462E-07  0.00000E+00  9.000E+00
      21     1     1     2   515   512 -5.547179222E+00  1.000537313E-01  2.583220438E+00  6.119986593E+00  8.429369702E-08  0.00000E+00  9.000E+00
</event>
<event>
      5  10001  2.40292E+09  3.99590E+00 -1.00000E+00  2.63467E-01
      21    -1     0     0   514   512  0.000000000E+00  0.000000000E+00  5.198168773E+00  5.198168773E+00  0.000000000E+00  0.00000E+00  9.000E+00
      21    -1     0     0   515   516  0.000000000E+00  0.000000000E+00 -4.252204777E+01  4.252204777E+01  0.000000000E+00  0.00000E+00  9.000E+00
      21     1     1     2   514   516  1.395876794E+00 -1.023733418E+01 -1.966042879E+00  1.051745253E+01  1.632340424E-07  0.00000E+00  9.000E+00
      21     1     1     2   515   511  3.885669582E-01  5.206310928E+00 -2.512033277E+01  2.565711941E+01  3.371747881E-07  0.00000E+00  9.000E+00
      21     1     1     2   511   512 -1.784443752E+00  5.031023256E+00 -1.023750335E+01  1.154564460E+01  2.064765462E-07  0.00000E+00  9.000E+00
</event>
<event>
      5  10001  2.40292E+09  3.15434E+00 -1.00000E+00  2.90277E-01
       2    -1     0     0   515     0  0.000000000E+00  0.000000000E+00  2.099751177E+02  2.099751177E+02  0.000000000E+00  0.00000E+00  9.000E+00
      21    -1     0     0   514   513  0.000000000E+00  0.000000000E+00 -5.749845318E+00  5.749845318E+00  0.000000000E+00  0.00000E+00  9.000E+00
      21     1     1     2   515   513 -1.107904718E+01 -3.329329433E-01  1.373311209E+02  1.377776938E+02  1.907348633E-06  0.00000E+00  9.000E+00
       2     1     1     2   511     0  1.015587955E+01  3.348982772E+00  7.153795029E+01  7.233356625E+01  3.300000131E-01  0.00000E+00  9.000E+00
      21     1     1     2   514   511  9.231676311E-01 -3.016049829E+00 -4.643798759E+00  5.613703052E+00  1.976862425E-07  0.00000E+00  9.000E+00
</event>
<event>
      5  10001  2.40292E+09  6.63532E+00 -1.00000E+00  2.18817E-01
      21    -1     0     0   512   513  0.000000000E+00  0.000000000E+00  1.471472046E+01  1.471472046E+01  0.000000000E+00  0.00000E+00  9.000E+00
      21    -1     0     0   514   516  0.000000000E+00  0.000000000E+00 -4.167494252E+01  4.167494252E+01  0.000000000E+00  0.00000E+00  9.000E+00
      21     1     1     2   512   516  1.291939998E+00 -1.690799724E+01 -3.179443908E+01  3.603381517E+01  6.743495762E-07  0.00000E+00  9.000E+00
      21     1     1     2   514   511 -1.060132190E+00  1.027673209E+01 -2.330198737E+00  1.059079453E+01  2.169641819E-07  0.00000E+00  9.000E+00
      21     1     1     2   511   513 -2.318078083E-01  6.631265146E+00  7.164415763E+00  9.765053278E+00  2.665600750E-07  0.00000E+00  9.000E+00
</event>
<event>
      5  10001  2.40292E+09  4.12654E+00 -1.00000E+00  2.60218E-01
      21    -1     0     0   511   512  0.000000000E+00  0.000000000E+00  1.827602573E+02  1.827602573E+02  0.000000000E+00  0.00000E+00  9.000E+00
       2    -1     0     0   514     0  0.000000000E+00  0.000000000E+00 -2.557264792E+00  2.557264792E+00  0.000000000E+00  0.00000E+00  9.000E+00
      21     1     1     2   514   513  5.926722509E+00  7.906581518E+00  2.006997609E+01  2.237060597E+01  7.152557373E-07  0.00000E+00  9.000E+00
       2     1     1     2   511     0 -6.126265288E+00 -1.202796180E+01  3.180300148E+01  3.455058313E+01  3.300000131E-01  0.00000E+00  9.000E+00
      21     1     1     2   513   512  1.995427791E-01  4.121380287E+00  1.283300150E+02  1.283963330E+02  1.907348633E-06  0.00000E+00  9.000E+00
</event>
<event>
      5  10001  2.40292E+09  6.14012E+00 -1.00000E+00  2.23849E-01
      21    -1     0     0   515   511  0.000000000E+00  0.000000000E+00  3.318793376E+01  3.318793376E+01  0.000000000E+00  0.00000E+00  9.000E+00
      21    -1     0     0   513   512  0.000000000E+00  0.000000000E+00 -1.765798601E+01  1.765798601E+01  0.000000000E+00  0.00000E+00  9.000E+00
      21     1     1     2   515   512  9.495957316E+00 -6.826386512E+00 -6.626548285E+00  1.344187116E+01  3.039252468E-07  0.00000E+00  9.000E+00
      21     1     1     2   513   514 -1.294766510E+01  1.748318986E+00 -1.325803336E+00  1.313226581E+01  3.478711107E-07  0.00000E+00  9.000E+00
      21     1     1     2   514   511  3.451707783E+00  5.078067526E+00  2.348229937E+01  2.427178280E+01  0.000000000E+00  0.00000E+00  9.000E+00
</event>
<event>
      5  10001  2.40292E+09  1.11527E+01 -1.00000E+00  1.90380E-01
       2    -1     0     0   512     0  0.000000000E+00  0.000000000E+00  1.146078948E+03  1.146078948E+03  0.000000000E+00  0.00000E+00  9.000E+00
      21    -1     0     0   514   516  0.000000000E+00  0.000000000E+00 -1.449086385E+01  1.449086385E+01  0.000000000E+00  0.00000E+00  9.000E+00
      21     1     1     2   512   513  1.171381192E+01 -3.322901993E+00 -1.103722144E+01  1.643396862E+01  1.540523527E-06  0.00000E+00  9.000E+00
       2     1     1     2   514     0 -6.642775344E+00  1.067671510E+01  1.115631677E+03  1.115702589E+03  3.300000131E-01  0.00000E+00  9.000E+00
      21     1     1     2   513   516 -5.071036577E+00 -7.353813104E+00  2.699362776E+01  2.843325375E+01  5.840038640E-07  0.00000E+00  9.000E+00
</event>
<event>
      5  10001  2.40292E+09  6.35253E+00 -1.00000E+00  2.21613E-01
      21    -1     0     0   511   516  0.000000000E+00  0.000000000E+00  1.540285143E+01  1.540285143E+01  0.000000000E+00  0.00000E+00  9.000E+00
      21    -1     0     0   515   511  0.000000000E+00  0.000000000E+00 -5.133300600E+01  5.133300600E+01  0.000000000E+00  0.00000E+00  9.000E+00
      21     1     1     2   514   516  1.671729191E+01 -6.488282011E+00  6.747590383E+00  1.915973977E+01  6.019774043E-07  0.00000E+00  9.000E+00
       5     1     1     2   515     0 -7.057381416E+00  4.503988133E+00 -1.537457325E+01  1.815241158E+01  4.800000191E+00  0.00000E+00  9.000E+00
      -5     1     1     2     0   514 -9.659910489E+00  1.984293878E+00 -2.730317170E+01  2.942370608E+01  4.800000191E+00  0.00000E+00  9.000E+00
</event>
<event>
      5  10001  2.40292E+09  1.51434E+01 -1.00000E+00  1.76948E-01
      21    -1     0     0   512   515  0.000000000E+00  0.000000000E+00  2.257311137E+00  2.257311137E+00  0.000000000E+00  0.00000E+00  9.000E+00
      21    -1     0     0   514   513  0.000000000E+00  0.000000000E+00 -5.184095580E+02  5.184095580E+02  0.000000000E+00  0.00000E+00  9.000E+00
      21     1     1     2   512   513  9.854546564E+00 -4.524419812E+00 -1.271374434E+01  1.670992992E+01  5.840038640E-07  0.00000E+00  9.000E+00
      21     1     1     2   511   515 -1.525905920E+01  6.115459600E+00 -3.091362857E+02  3.095730623E+02  6.607249480E-06  0.00000E+00  9.000E+00
      21     1     1     2   514   511  5.404512635E+00 -1.591039788E+00 -1.943022168E+02  1.943838769E+02  2.697398305E-06  0.00000E+00  9.000E+00
</event>
<event>
      5  10001  2.40292E+09  4.07641E+01 -1.00000E+00  1.44301E-01
       4    -1     0     0   513     0  0.000000000E+00  0.000000000E+00  6.350018670E+02  6.350018670E+02  0.000000000E+00  0.00000E+00  9.000E+00
      21    -1     0     0   516   511  0.000000000E+00  0.000000000E+00 -7.085623289E+00  7.085623289E+00  0.000000000E+00  0.00000E+00  9.000E+00
      21     1     1     2   512   511 -4.468309236E+00  9.296756974E+00  3.305149849E+01  3.462364842E+01  6.743495762E-07  0.00000E+00  9.000E+00
       4     1     1     2   516     0  2.550045368E+01 -2.930083152E+01  5.630787469E+02  5.644189375E+02  1.500000000E+00  0.00000E+00  9.000E+00
      21     1     1     2   513   512 -2.103214445E+01  2.000407454E+01  3.178599836E+01  4.304490434E+01  1.348699152E-06  0.00000E+00  9.000E+00
</event>
<event>
      5  10001  2.40292E+09  9.70905E+00 -1.00000E+00  1.97192E-01
      21    -1     0     0   514   511  0.000000000E+00  0.000000000E+00  6.940402127E+01  6.940402127E+01  0.000000000E+00  0.00000E+00  9.000E+00
      21    -1     0     0   515   512  0.000000000E+00  0.000000000E+00 -1.061429401E+01  1.061429401E+01  0.000000000E+00  0.00000E+00  9.000E+00
      21     1     1     2   514   512 -3.638771880E+00  1.581390407E+01  6.130674216E+01  6.341795374E+01  9.536743164E-07  0.00000E+00  9.000E+00
      21     1     1     2   515   516  7.135005650E-01 -1.022863844E+00  2.475736701E-01  1.271466170E+00  3.504545935E-08  0.00000E+00  9.000E+00
      21     1     1     2   516   511  2.925271315E+00 -1.479104023E+01 -2.764588564E+00  1.532889537E+01  1.763129170E-07  0.00000E+00  9.000E+00
</event>
<event>
      5  10001  2.40292E+09  1.85258E+01 -1.00000E+00  1.69117E-01
      21    -1     0     0   513   512  0.000000000E+00  0.000000000E+00  1.396761109E+02  1.396761109E+02  0.000000000E+00  0.00000E+00  9.000E+00
      21    -1     0     0   517   511  0.000000000E+00  0.000000000E+00 -2.960058294E+00  2.960058294E+00  0.000000000E+00  0.00000E+00  9.000E+00
      21     1     1     2   513   511 -4.806818849E+00  1.691908695E+01  6.397381752E+01  6.634764758E+01  9.536743164E-07  0.00000E+00  9.000E+00
      21     1     1     2   514   512 -2.350498554E+00 -6.825341353E+00  4.886695362E+01  4.939725989E+01  1.168007728E-06  0.00000E+00  9.000E+00
      21     1     1     2   517   514  7.157317403E+00 -1.009374560E+01  2.387528149E+01  2.689126175E+01  6.743495762E-07  0.00000E+00  9.000E+00
</event>
<event>
      5  10001  2.40292E+09  7.07972E+00 -1.00000E+00  2.14790E-01
      21    -1     0     0   515   511  0.000000000E+00  0.000000000E+00  1.130896376E+01  1.130896376E+01  0.000000000E+00  0.00000E+00  9.000E+00
      -3    -1     0     0     0   515  0.000000000E+00  0.000000000E+00 -2.385921059E+02  2.385921059E+02  0.000000000E+00  0.00000E+00  9.000E+00
      -3     1     1     2     0   512 -3.390190587E+00 -1.446614228E+01 -2.191124565E+02  2.196162136E+02  5.000000000E-01  0.00000E+00  9.000E+00
      21     1     1     2   512   516  2.465733630E+00  7.447217047E+00 -1.714486955E+01  1.885437445E+01  4.129530925E-07  0.00000E+00  9.000E+00
      21     1     1     2   516   511  9.244569571E-01  7.018925233E+00  8.974183949E+00  1.143048160E+01  0.000000000E+00  0.00000E+00  9.000E+00
</event>
<event>
      5  10001  2.40292E+09  1.37519E+01 -1.00000E+00  1.80964E-01
      21    -1     0     0   513   512  0.000000000E+00  0.000000000E+00  3.405784651E+02  3.405784651E+02  0.000000000E+00  0.00000E+00  9.000E+00
      21    -1     0     0   514   511  0.000000000E+00  0.000000000E+00 -2.361382463E+01  2.361382463E+01  0.000000000E+00  0.00000E+00  9.000E+00
      21     1     1     2   513   511 -1.698313247E+01  1.152754393E+01 -1.860108742E+01  2.770038828E+01  1.039242493E-06  0.00000E+00  9.000E+00
      21     1     1     2   515   512  7.546161527E+00 -1.289488440E+01  1.716246852E+02  1.722737797E+02  3.303624740E-06  0.00000E+00  9.000E+00
      21     1     1     2   514   515  9.436970948E+00  1.367340467E+00  1.639410427E+02  1.642181218E+02  2.697398305E-06  0.00000E+00  9.000E+00
</event>
<event>
      5  10001  2.40292E+09  5.96391E+00 -1.00000E+00  2.25801E-01
      21    -1     0     0   516   511  0.000000000E+00  0.000000000E+00  5.968045596E+00  5.968045596E+00  0.000000000E+00  0.00000E+00  9.000E+00
      21    -1     0     0   514   517  0.000000000E+00  0.000000000E+00 -2.629779897E+02  2.629779897E+02  0.000000000E+00  0.00000E+00  9.000E+00
      21     1     1     2   516   517 -1.305189470E+01 -3.019242762E+00 -2.537655110E+02  2.541188744E+02  0.000000000E+00  0.00000E+00  9.000E+00
      21     1     1     2   512   511  3.385771494E+00  1.222836485E+00  1.513135226E+00  3.904914326E+00  1.919880320E-07  0.00000E+00  9.000E+00
      21     1     1     2   514   512  9.666123202E+00  1.796406276E+00 -4.757568393E+00  1.092224658E+01  1.788139343E-07  0.00000E+00  9.000E+00
</event>
<event>
      5  10001  2.40292E+09  5.80892E+00 -1.00000E+00  2.27597E-01
      21    -1     0     0   511   512  0.000000000E+00  0.000000000E+00  1.572530346E+02  1.572530346E+02  0.000000000E+00  0.00000E+00  9.000E+00
      21    -1     0     0   514   515  0.000000000E+00  0.000000000E+00 -4.373343307E+00  4.373343307E+00  0.000000000E+00  0.00000E+00  9.000E+00
      21     1     1     2   513   515 -3.223125917E+00 -1.358840990E+01  1.693747233E+01  2.195248035E+01  2.384185791E-07  0.00000E+00  9.000E+00
      21     1     1     2   514   512  5.145208743E+00  8.106700497E+00  1.101782766E+01  1.461452334E+01  4.616955931E-07  0.00000E+00  9.000E+00
      21     1     1     2   511   513 -1.922082826E+00  5.481709405E+00  1.249243913E+02  1.250593742E+02  1.348699152E-06  0.00000E+00  9.000E+00
</event>
<event>
      5  10001  2.40292E+09  8.39703E+00 -1.00000E+00  2.04893E-01
      21    -1     0     0   516   514  0.000000000E+00  0.000000000E+00  2.504891421E+01  2.504891421E+01  0.000000000E+00  0.00000E+00  9.000E+00
      21    -1     0     0   512   513  0.000000000E+00  0.000000000E+00 -2.238213777E+01  2.238213777E+01  0.000000000E+00  0.00000E+00  9.000E+00
      21     1     1     2   516   513  7.569188546E+00  1.284818259E+01  1.500701398E+01  2.115606012E+01  5.057621821E-07  0.00000E+00  9.000E+00
      21     1     1     2   517   514 -5.368299993E+00 -4.744712541E+00  3.778722994E+00  8.099980826E+00  1.685873940E-07  0.00000E+00  9.000E+00
      21     1     1     2   512   517 -2.200888553E+00 -8.103470052E+00 -1.611896054E+01  1.817501103E+01  2.384185791E-07  0.00000E+00  9.000E+00
</event>
<event>
      5  10001  2.40292E+09  9.93444E+00 -1.00000E+00  1.96029E-01
      -1    -1     0     0     0   511  0.000000000E+00  0.000000000E+00  2.083874879E+01  2.083874879E+01  0.000000000E+00  0.00000E+00  9.000E+00
       2    -1     0     0   511     0  0.000000000E+00  0.000000000E+00 -3.587019394E+01  3.587019394E+01  0.000000000E+00  0.00000E+00  9.000E+00
      -1     1     1     2     0   512  7.643869206E+00  7.231475620E+00  1.831705896E+01  2.112691470E+01  3.300000131E-01  0.00000E+00  9.000E+00
      21     1     1     2   512   513 -4.386214027E+00 -3.849835657E+00 -8.622052578E+00  1.041152720E+01  1.192092896E-07  0.00000E+00  9.000E+00
       2     1     1     2   513     0 -3.257655178E+00 -3.381639963E+00 -2.472645153E+01  2.517050082E+01  3.300000131E-01  0.00000E+00  9.000E+00
</event>
<event>
      5  10001  2.40292E+09  5.03270E+00 -1.00000E+00  2.37935E-01
      21    -1     0     0   514   513  0.000000000E+00  0.000000000E+00  4.787169886E-01  4.787169886E-01  0.000000000E+00  0.00000E+00  9.000E+00
       2    -1     0     0   511     0  0.000000000E+00  0.000000000E+00 -1.580381732E+03  1.580381732E+03  0.000000000E+00  0.00000E+00  9.000E+00
      21     1     1     2   515   513  2.873509167E+00 -1.314729396E+01 -1.117433833E+02  1.125508423E+02  1.348699152E-06  0.00000E+00  9.000E+00
      21     1     1     2   511   515  2.131176025E+00  1.262008153E+01 -6.055886965E+02  6.057239286E+02  7.629394531E-06  0.00000E+00  9.000E+00
       2     1     1     2   514     0 -5.004685192E+00  5.272124312E-01 -8.625709356E+02  8.625856784E+02  3.300000131E-01  0.00000E+00  9.000E+00
</event>
<event>
      5  10001  2.40292E+09  4.83250E+00 -1.00000E+00  2.45419E-01
      21    -1     0     0   511   512  0.000000000E+00  0.000000000E+00  2.481998929E+02  2.481998929E+02  0.000000000E+00  0.00000E+00  9.000E+00
      21    -1     0     0   512   514  0.000000000E+00  0.000000000E+00 -1.255581747E+00  1.255581747E+00  0.000000000E+00  0.00000E+00  9.000E+00
      -2     1     1     2     0   515 -2.255392112E+00  1.118564227E+01  1.475943272E+02  1.480351300E+02  3.300000131E-01  0.00000E+00  9.000E+00
      21     1     1     2   515   514  6.272420562E+00 -8.502419193E+00  2.834043484E+01  3.024590284E+01  5.840038640E-07  0.00000E+00  9.000E+00
       2     1     1     2   511     0 -4.017028451E+00 -2.683223076E+00  7.100954911E+01  7.117444182E+01  3.300000131E-01  0.00000E+00  9.000E+00
</event>
<event>
      5  10001  2.40292E+09  4.72585E+00 -1.00000E+00  2.47402E-01
      21    -1     0     0   514   515  0.000000000E+00  0.000000000E+00  4.129838621E+01  4.129838621E+01  0.000000000E+00  0.00000E+00  9.000E+00
      21    -1     0     0   512   513  0.000000000E+00  0.000000000E+00 -2.113629798E+01  2.113629798E+01  0.000000000E+00  0.00000E+00  9.000E+00
      21     1     1     2   512   516  7.638815546E-01 -1.049470903E+01 -1.770002338E+01  2.059158227E+01  5.331201500E-07  0.00000E+00  9.000E+00
      21     1     1     2   516   515  3.939425393E+00  1.003368610E+01  3.421720975E+01  3.587494073E+01  4.768371582E-07  0.00000E+00  9.000E+00
      21     1     1     2   514   513 -4.703306947E+00  4.610229321E-01  3.644901865E+00  5.968161190E+00  9.424321831E-08  0.00000E+00  9.000E+00
</event>
<event>
      5  10001  2.40292E+09  2.15248E+01 -1.00000E+00  1.63738E-01
      -2    -1     0     0     0   511  0.000000000E+00  0.000000000E+00  4.624690535E+00  4.624690535E+00  0.000000000E+00  0.00000E+00  9.000E+00
      21    -1     0     0   514   513  0.000000000E+00  0.000000000E+00 -4.339313887E+01  4.339313887E+01  0.000000000E+00  0.00000E+00  9.000E+00
      -2     1     1     2     0   512  6.690239128E+00  2.855601052E+00 -2.336359587E+00  7.647302340E+00  3.300000131E-01  0.00000E+00  9.000E+00
      21     1     1     2   514   511 -4.014952636E+00 -3.830003680E+00 -2.119146077E+00  5.939659330E+00  1.032382731E-07  0.00000E+00  9.000E+00
      21     1     1     2   512   513 -2.675286492E+00  9.744026287E-01 -3.431294267E+01  3.443086773E+01  0.000000000E+00  0.00000E+00  9.000E+00
</event>
<event>
      5  10001  2.40292E+09  1.43337E+01 -1.00000E+00  1.79214E-01
       2    -1     0     0   512     0  0.000000000E+00  0.000000000E+00  4.991337087E+02  4.991337087E+02  0.000000000E+00  0.00000E+00  9.000E+00
      21    -1     0     0   515   513  0.000000000E+00  0.000000000E+00 -1.758666816E+00  1.758666816E+00  0.000000000E+00  0.00000E+00  9.000E+00
      21     1     1     2   512   513 -4.236094588E+00 -1.515320908E+01  4.303876637E+01  4.582466207E+01  9.536743164E-07  0.00000E+00  9.000E+00
      21     1     1     2   515   511  1.234671606E+01  1.033178866E+01  3.158001493E+02  3.162102490E+02  0.000000000E+00  0.00000E+00  9.000E+00
       2     1     1     2   511     0 -8.110621475E+00  4.821420424E+00  1.385361262E+02  1.388574644E+02  3.300000131E-01  0.00000E+00  9.000E+00
</event>
<event>
      5  10001  2.40292E+09  1.40827E+01 -1.00000E+00  1.79956E-01
      21    -1     0     0   514   515  0.000000000E+00  0.000000000E+00  5.393831011E+00  5.393831011E+00  0.000000000E+00  0.00000E+00  9.000E+00
      21    -1     0     0   511   514  0.000000000E+00  0.000000000E+00 -2.867350114E+01  2.867350114E+01  0.000000000E+00  0.00000E+00  9.000E+00
      -2     1     1     2     0   515 -8.282237999E+00  1.742262296E+00 -3.387677145E+00  9.122291414E+00  3.300000131E-01  0.00000E+00  9.000E+00
       2     1     1     2   512     0  5.140546228E+00  4.112064348E+00 -3.974938272E+00  7.696968429E+00  3.300000131E-01  0.00000E+00  9.000E+00
      21     1     1     2   511   512  3.141691771E+00 -5.854326644E+00 -1.591705471E+01  1.724807231E+01  1.685873940E-07  0.00000E+00  9.000E+00
</event>
<event>
      5  10001  2.40292E+09  7.78379E+00 -1.00000E+00  2.09171E-01
      21    -1     0     0   513   512  0.000000000E+00  0.000000000E+00  6.128067514E+01  6.128067514E+01  0.000000000E+00  0.00000E+00  9.000E+00
      21    -1     0     0   514   516  0.000000000E+00  0.000000000E+00 -1.529489699E+01  1.529489699E+01  0.000000000E+00  0.00000E+00  9.000E+00
      21     1     1     2   513   516 -3.560834390E+00 -1.567067687E+01  4.249714881E+01  4.543409856E+01  4.768371582E-07  0.00000E+00  9.000E+00
      21     1     1     2   511   512  1.128168109E+01  1.665855165E+01  8.545950379E+00  2.185902420E+01  5.057621821E-07  0.00000E+00  9.000E+00
      21     1     1     2   514   511 -7.720846697E+00 -9.878747818E-01 -5.057321032E+00  9.282449371E+00  1.788139343E-07  0.00000E+00  9.000E+00
</event>
<event>
      5  10001  2.40292E+09  6.84833E+00 -1.00000E+00  2.16835E-01
       1    -1     0     0   514     0  0.000000000E+00  0.000000000E+00  1.716446142E+01  1.716446142E+01  0.000000000E+00  0.00000E+00  9.000E+00
      21    -1     0     0   512   511  0.000000000E+00  0.000000000E+00 -2.504459879E+02  2.504459879E+02  0.000000000E+00  0.00000E+00  9.000E+00
      21     1     1     2   514   511 -8.444706339E+00  5.408265128E+00  1.190266529E+01  1.556392746E+01  2.384185791E-07  0.00000E+00  9.000E+00
       1     1     1     2   515     0  8.518433834E+00 -1.225603602E+01 -1.310156464E+01  1.986288071E+01  3.300000131E-01  0.00000E+00  9.000E+00
      21     1     1     2   512   515 -7.372749461E-02  6.847770896E+00 -2.320826271E+02  2.321836412E+02  3.814697266E-06  0.00000E+00  9.000E+00
</event>
<event>
      5  10001  2.40292E+09  8.35851E+00 -1.00000E+00  2.05148E-01
      21    -1     0     0   512   515  0.000000000E+00  0.000000000E+00  4.555294926E+01  4.555294926E+01  0.000000000E+00  0.00000E+00  9.000E+00
      -5    -1     0     0     0   513  0.000000000E+00  0.000000000E+00 -4.488855040E+00  4.488855040E+00  0.000000000E+00  0.00000E+00  9.000E+00
      -5     1     1     2     0   515  9.554364808E-01 -1.261949621E+01  1.589662105E+01  2.087838850E+01  4.800000191E+00  0.00000E+00  9.000E+00
      21     1     1     2   511   513  2.258644869E-01  5.127073890E+00  1.803757598E+01  1.875345432E+01  3.371747881E-07  0.00000E+00  9.000E+00
      21     1     1     2   512   511 -1.181300968E+00  7.492422325E+00  7.129897186E+00  1.040996149E+01  2.795705652E-07  0.00000E+00  9.000E+00
</event>
<event>
      5  10001  2.40292E+09  6.18044E+00 -1.00000E+00  2.23415E-01
      21    -1     0     0   514   511  0.000000000E+00  0.000000000E+00  5.633429610E+01  5.633429610E+01  0.000000000E+00  0.00000E+00  9.000E+00
       1    -1     0     0   512     0  0.000000000E+00  0.000000000E+00 -4.035656146E+02  4.035656146E+02  0.000000000E+00  0.00000E+00  9.000E+00
      21     1     1     2   513   511  3.275836125E+00 -8.800985406E-01  4.760151652E+01  4.772221758E+01  3.989505894E-06  0.00000E+00  9.000E+00
       1     1     1     2   514     0 -9.965200461E+00  1.516506432E+00 -4.021308672E+02  4.022573160E+02  3.300000131E-01  0.00000E+00  9.000E+00
      21     1     1     2   512   513  6.689364336E+00 -6.364078918E-01  7.298032127E+00  9.920377168E+00  9.902267293E-07  0.00000E+00  9.000E+00
</event>
<event>
      5  10001  2.40292E+09  1.46429E+01 -1.00000E+00  1.78327E-01
      21    -1     0     0   512   515  0.000000000E+00  0.000000000E+00  3.207664814E+01  3.207664814E+01  0.000000000E+00  0.00000E+00  9.000E+00
      -4    -1     0     0     0   513  0.000000000E+00  0.000000000E+00 -2.865945224E+01  2.865945224E+01  0.000000000E+00  0.00000E+00  9.000E+00
      -4     1     1     2     0   515 -1.385189970E+01  2.891794366E+00 -1.924839281E+01  2.393717247E+01  1.500000000E+00  0.00000E+00  9.000E+00
      21     1     1     2   512   511  8.796879481E+00  3.019412854E+00  2.653063958E+01  2.811364045E+01  0.000000000E+00  0.00000E+00  9.000E+00
      21     1     1     2   511   513  5.055020217E+00 -5.911207220E+00 -3.865050874E+00  8.685287471E+00  2.107342426E-07  0.00000E+00  9.000E+00
</event>
<event>
      5  10001  2.40292E+09  8.46908E+00 -1.00000E+00  2.04423E-01
      -3    -1     0     0     0   513  0.000000000E+00  0.000000000E+00  4.012344225E+00  4.012344225E+00  0.000000000E+00  0.00000E+00  9.000E+00
      -2    -1     0     0     0   511  0.000000000E+00  0.000000000E+00 -4.214941538E+01  4.214941538E+01  0.000000000E+00  0.00000E+00  9.000E+00
      -3     1     1     2     0   511 -3.714325937E+00 -8.903124471E+00 -7.271538852E+00  1.209078657E+01  5.000000000E-01  0.00000E+00  9.000E+00
      -2     1     1     2     0   512  7.309544357E+00  4.403221543E+00 -2.060137548E+01  2.230119661E+01  3.300000131E-01  0.00000E+00  9.000E+00
      21     1     1     2   512   513 -3.595218421E+00  4.499902928E+00 -1.026415682E+01  1.176977643E+01  2.665600750E-07  0.00000E+00  9.000E+00
</event>
<event>
      5  10001  2.40292E+09  4.35786E+00 -1.00000E+00  2.54898E-01
       2    -1     0     0   511     0  0.000000000E+00  0.000000000E+00  8.285170123E+00  8.285170123E+00  0.000000000E+00  0.00000E+00  9.000E+00
      21    -1     0     0   512   515  0.000000000E+00  0.000000000E+00 -8.149193508E+01  8.149193508E+01  0.000000000E+00  0.00000E+00  9.000E+00
      21     1     1     2   511   514 -1.724570596E+01 -1.454318731E+01 -4.242551764E+01  4.805042371E+01  4.768371582E-07  0.00000E+00  9.000E+00
       2     1     1     2   512     0  1.439994366E+01  1.124307218E+01 -1.069267201E+01  2.117090418E+01  3.300000131E-01  0.00000E+00  9.000E+00
      21     1     1     2   514   515  2.845762307E+00  3.300115134E+00 -2.008857531E+01  2.055577731E+01  2.384185791E-07  0.00000E+00  9.000E+00
</event>
<event>
      5  10001  2.40292E+09  1.08645E+01 -1.00000E+00  1.91629E-01
      21    -1     0     0   513   512  0.000000000E+00  0.000000000E+00  1.101569504E+00  1.101569504E+00  0.000000000E+00  0.00000E+00  9.000E+00
       1    -1     0     0   514     0  0.000000000E+00  0.000000000E+00 -1.079223657E+02  1.079223657E+02  0.000000000E+00  0.00000E+00  9.000E+00
      21     1     1     2   514   512  6.005679114E+00  3.142811428E+00 -4.131526166E+01  4.186760432E+01  0.000000000E+00  0.00000E+00  9.000E+00
       1     1     1     2   511     0 -8.249498847E+00 -2.744914572E-03 -5.913049178E+01  5.970408861E+01  3.300000131E-01  0.00000E+00  9.000E+00
      21     1     1     2   513   511  2.243819733E+00 -3.140066514E+00 -6.375042725E+00  7.452242243E+00  8.429369702E-08  0.00000E+00  9.000E+00
</event>
<event>
      5  10001  2.40292E+09  1.05199E+01 -1.00000E+00  1.93190E-01
      21    -1     0     0   515   511  0.000000000E+00  0.000000000E+00  7.317702669E+00  7.317702669E+00  0.000000000E+00  0.00000E+00  9.000E+00
      21    -1     0     0   512   516  0.000000000E+00  0.000000000E+00 -2.335346199E+02  2.335346199E+02  0.000000000E+00  0.00000E+00  9.000E+00
      21     1     1     2   515   516 -2.583571270E+00  1.126117754E+01 -2.195871307E+02  2.198908751E+02  4.672030912E-06  0.00000E+00  9.000E+00
      21     1     1     2   512   514  6.626539618E+00 -2.912750874E+00  2.774781085E+00  7.752067791E+00  6.078504936E-07  0.00000E+00  9.000E+00
      21     1     1     2   514   511 -4.042968348E+00 -8.348426666E+00 -9.404567623E+00  1.320937974E+01  2.665600750E-07  0.00000E+00  9.000E+00
</event>
<event>
      5  10001  2.40292E+09  3.35473E+00 -1.00000E+00  2.82751E-01
       1    -1     0     0   512     0  0.000000000E+00  0.000000000E+00  3.690520325E+01  3.690520325E+01  0.000000000E+00  0.00000E+00  9.000E+00
      21    -1     0     0   513   514  0.000000000E+00  0.000000000E+00 -6.422855036E+00  6.422855036E+00  0.000000000E+00  0.00000E+00  9.000E+00
       3     1     1     2   512     0  5.269429309E+00 -4.649855051E+00  1.396433328E+00  7.182483086E+00  5.000000000E-01  0.00000E+00  9.000E+00
       1     1     1     2   513     0 -1.064379195E+01  5.211715776E+00  2.827314890E+01  3.065831270E+01  3.300000131E-01  0.00000E+00  9.000E+00
      -3     1     1     2     0   514  5.374362636E+00 -5.618607250E-01  8.127659763E-01  5.487262501E+00  5.000000000E-01  0.00000E+00  9.000E+00
</event>
<event>
      5  10001  2.40292E+09  1.84146E+01 -1.00000E+00  1.69341E-01
      21    -1     0     0   511   513  0.000000000E+00  0.000000000E+00  1.443988869E+02  1.443988869E+02  0.000000000E+00  0.00000E+00  9.000E+00
      21    -1     0     0   516   515  0.000000000E+00  0.000000000E+00 -1.223258221E+00  1.223258221E+00  0.000000000E+00  0.00000E+00  9.000E+00
      21     1     1     2   511   515 -2.009718277E+00  6.528478118E+00  2.568151970E+01  2.657443222E+01  4.768371582E-07  0.00000E+00  9.000E+00
      21     1     1     2   512   513 -5.012910854E+00 -1.891778741E+00  9.288773211E+01  9.304213496E+01  1.348699152E-06  0.00000E+00  9.000E+00
      21     1     1     2   516   512  7.022629131E+00 -4.636699377E+00  2.460637691E+01  2.600557797E+01  3.371747881E-07  0.00000E+00  9.000E+00
</event>
<event>
      5  10001  2.40292E+09  8.48607E+00 -1.00000E+00  2.04313E-01
      21    -1     0     0   514   512  0.000000000E+00  0.000000000E+00  4.343826217E+00  4.343826217E+00  0.000000000E+00  0.00000E+00  9.000E+00
      21    -1     0     0   516   517  0.000000000E+00  0.000000000E+00 -4.808259703E+01  4.808259703E+01  0.000000000E+00  0.00000E+00  9.000E+00
      21     1     1     2   514   517 -5.681790476E+00 -6.808563717E+00 -2.614742684E+00  9.245331914E+00  2.384185791E-07  0.00000E+00  9.000E+00
      21     1     1     2   516   511 -6.264585709E-01  4.115953931E+00 -2.860400293E+01  2.890540625E+01  3.371747881E-07  0.00000E+00  9.000E+00
      21     1     1     2   511   512  6.308249047E+00  2.692609786E+00 -1.252002520E+01  1.427568508E+01  0.000000000E+00  0.00000E+00  9.000E+00
</event>
<event>
      5  10001  2.40292E+09  4.66756E+00 -1.00000E+00  2.48519E-01
      21    -1     0     0   511   512  0.000000000E+00  0.000000000E+00  3.731270152E+02  3.731270152E+02  0.000000000E+00  0.00000E+00  9.000E+00
      -4    -1     0     0     0   513  0.000000000E+00  0.000000000E+00 -3.320706834E+00  3.320706834E+00  0.000000000E+00  0.00000E+00  9.000E+00
      -4     1     1     2     0   514 -9.597414412E+00 -1.476304094E+00  5.325875486E+00  1.117608102E+01  1.500000000E+00  0.00000E+00  9.000E+00
      21     1     1     2   511   513  1.267533834E+01 -1.528067159E+00  3.481582646E+02  3.483922738E+02  8.529922400E-06  0.00000E+00  9.000E+00
      21     1     1     2   514   512 -3.077923932E+00  3.004371253E+00  1.632216826E+01  1.687936726E+01  3.371747881E-07  0.00000E+00  9.000E+00
</event>
<event>
      5  10001  2.40292E+09  1.07798E+01 -1.00000E+00  1.92005E-01
       2    -1     0     0   515     0  0.000000000E+00  0.000000000E+00  2.180897724E+02  2.180897724E+02  0.000000000E+00  0.00000E+00  9.000E+00
      21    -1     0     0   514   512  0.000000000E+00  0.000000000E+00 -1.679929938E+01  1.679929938E+01  0.000000000E+00  0.00000E+00  9.000E+00
      21     1     1     2   515   512  6.467299485E-02 -8.745487714E+00 -1.464308099E+01  1.705601239E+01  2.920019320E-07  0.00000E+00  9.000E+00
      21     1     1     2   514   516 -1.060825870E+01  1.098934115E+01  7.818786488E+01  7.966582068E+01  9.536743164E-07  0.00000E+00  9.000E+00
       2     1     1     2   516     0  1.054358570E+01 -2.243853433E+00  1.377456892E+02  1.381672387E+02  3.300000131E-01  0.00000E+00  9.000E+00
</event>
<event>
      5  10001  2.40292E+09  8.03056E+00 -1.00000E+00  2.07388E-01
      21    -1     0     0   513   514  0.000000000E+00  0.000000000E+00  1.114436523E+01  1.114436523E+01  0.000000000E+00  0.00000E+00  9.000E+00
      -4    -1     0     0     0   511  0.000000000E+00  0.000000000E+00 -5.537033457E+01  5.537033457E+01  0.000000000E+00  0.00000E+00  9.000E+00
      -4     1     1     2     0   514  6.973739062E+00 -1.180950615E+01 -4.749946747E+01  4.946258063E+01  1.500000000E+00  0.00000E+00  9.000E+00
      -2     1     1     2     0   511 -3.463286747E+00  1.118267799E+01 -6.633354101E-01  1.173011322E+01  3.300000131E-01  0.00000E+00  9.000E+00
       2     1     1     2   513     0 -3.510452314E+00  6.268281586E-01  3.936833547E+00  5.322005954E+00  3.300000131E-01  0.00000E+00  9.000E+00
</event>
<event>
      5  10001  2.40292E+09  2.90961E+00 -1.00000E+00  3.00816E-01
      21    -1     0     0   511   515  0.000000000E+00  0.000000000E+00  2.067624735E+02  2.067624735E+02  0.000000000E+00  0.00000E+00  9.000E+00
      21    -1     0     0   514   511  0.000000000E+00  0.000000000E+00 -1.654824494E+00  1.654824494E+00  0.000000000E+00  0.00000E+00  9.000E+00
      -4     1     1     2     0   515  8.217267674E+00 -7.030445474E+00  1.591940638E+02  1.595680124E+02  1.500000000E+00  0.00000E+00  9.000E+00
       4     1     1     2   512     0 -1.103142799E+01  7.727258610E+00  3.432018885E+01  3.689889283E+01  1.500000000E+00  0.00000E+00  9.000E+00
      21     1     1     2   514   512  2.814160316E+00 -6.968131356E-01  1.159339643E+01  1.195039278E+01  0.000000000E+00  0.00000E+00  9.000E+00
</event>
<event>
      5  10001  2.40292E+09  1.04346E+01 -1.00000E+00  1.93588E-01
      21    -1     0     0   513   512  0.000000000E+00  0.000000000E+00  5.389465856E+01  5.389465856E+01  0.000000000E+00  0.00000E+00  9.000E+00
      21    -1     0     0   511   516  0.000000000E+00  0.000000000E+00 -6.668576840E+01  6.668576840E+01  0.000000000E+00  0.00000E+00  9.000E+00
      21     1     1     2   513   516 -8.828642989E+00  4.829301640E+00  4.799658063E+01  4.904017581E+01  0.000000000E+00  0.00000E+00  9.000E+00
      21     1     1     2   514   512  5.911781145E+00 -1.484793226E+01 -8.267218462E+00  1.799325289E+01  3.153981341E-07  0.00000E+00  9.000E+00
      21     1     1     2   511   514  2.916861844E+00  1.001863062E+01 -5.252047201E+01  5.354699826E+01  6.743495762E-07  0.00000E+00  9.000E+00
</event>
<event>
      5  10001  2.40292E+09  2.72314E+00 -1.00000E+00  3.10088E-01
      21    -1     0     0   515   512  0.000000000E+00  0.000000000E+00  6.044729404E+01  6.044729404E+01  0.000000000E+00  0.00000E+00  9.000E+00
      21    -1     0     0   511   517  0.000000000E+00  0.000000000E+00 -6.374850589E+00  6.374850589E+00  0.000000000E+00  0.00000E+00  9.000E+00
      21     1     1     2   515   517  7.853813134E+00  8.450503621E+00  3.641485299E+00  1.209767777E+01  2.457562462E-07  0.00000E+00  9.000E+00
      21     1     1     2   511   514 -6.051414096E+00 -6.409224088E+00  7.128230712E+00  1.133620038E+01  8.429369702E-08  0.00000E+00  9.000E+00
      21     1     1     2   514   512 -1.802399038E+00 -2.041279534E+00  4.330272744E+01  4.338826648E+01  4.768371582E-07  0.00000E+00  9.000E+00
</event>
<event>
      5  10001  2.40292E+09  1.09640E+00 -1.00000E+00  5.87908E-01
       5    -1     0     0   513     0  0.000000000E+00  0.000000000E+00  2.429160777E-01  2.429160777E-01  0.000000000E+00  0.00000E+00  9.000E+00
       2    -1     0     0   512     0  0.000000000E+00  0.000000000E+00 -9.090607105E+02  9.090607105E+02  0.000000000E+00  0.00000E+00  9.000E+00
       2     1     1     2   513     0 -3.939705891E+00 -1.100539142E+01 -6.779696324E+02  6.780704766E+02  3.300000131E-01  0.00000E+00  9.000E+00
       5     1     1     2   511     0  4.259805359E+00  1.017307432E+01 -1.929786601E+02  1.933531501E+02  4.800000191E+00  0.00000E+00  9.000E+00
      21     1     1     2   512   511 -3.200994676E-01  8.323171040E-01 -3.786950190E+01  3.787999986E+01  4.768371582E-07  0.00000E+00  9.000E+00
</event>
<event>
      5  10001  2.40292E+09  6.46285E+00 -1.00000E+00  2.20499E-01
      21    -1     0     0   514   513  0.000000000E+00  0.000000000E+00  1.427227852E+01  1.427227852E+01  0.000000000E+00  0.00000E+00  9.000E+00
      21    -1     0     0   512   515  0.000000000E+00  0.000000000E+00 -8.169171851E+01  8.169171851E+01  0.000000000E+00  0.00000E+00  9.000E+00
      21     1     1     2   514   515 -1.205317449E+01  4.481907752E+00 -7.776623128E-01  1.288298378E+01  4.446692262E-07  0.00000E+00  9.000E+00
      21     1     1     2   512   511  6.529484785E+00 -7.837099828E+00 -7.318010768E+01  7.388763405E+01  9.536743164E-07  0.00000E+00  9.000E+00
      21     1     1     2   511   513  5.523689703E+00  3.355192076E+00  6.538330006E+00  9.193379198E+00  1.884864366E-07  0.00000E+00  9.000E+00
</event>
<event>
      5  10001  2.40292E+09  8.84261E+00 -1.00000E+00  2.02080E-01
       3    -1     0     0   512     0  0.000000000E+00  0.000000000E+00  3.142022378E+00  3.142022378E+00  0.000000000E+00  0.00000E+00  9.000E+00
      21    -1     0     0   511   516  0.000000000E+00  0.000000000E+00 -9.667340100E+01  9.667340100E+01  0.000000000E+00  0.00000E+00  9.000E+00
       2     1     1     2   512     0  4.637937575E+00 -8.942242285E-01 -3.386964867E+01  3.419900734E+01  3.300000131E-01  0.00000E+00  9.000E+00
       3     1     1     2   511     0 -1.036023464E+01 -6.184371378E+00 -1.175886851E+01  1.685532260E+01  5.000000000E-01  0.00000E+00  9.000E+00
      -2     1     1     2     0   516  5.722297067E+00  7.078595606E+00 -4.790286144E+01  4.876109344E+01  3.300000131E-01  0.00000E+00  9.000E+00
</event>
<event>
      5  10001  2.40292E+09  1.40350E+01 -1.00000E+00  1.80099E-01
       2    -1     0     0   513     0  0.000000000E+00  0.000000000E+00  2.372187140E+02  2.372187140E+02  0.000000000E+00  0.00000E+00  9.000E+00
      21    -1     0     0   514   513  0.000000000E+00  0.000000000E+00 -6.078380885E+00  6.078380885E+00  0.000000000E+00  0.00000E+00  9.000E+00
      21     1     1     2   511   515 -1.797627389E+00  1.377664966E+01  5.159796865E+01  5.343573626E+01  6.743495762E-07  0.00000E+00  9.000E+00
      21     1     1     2   514   511 -9.723031289E+00 -2.179187688E+01  2.455644542E+01  3.424094401E+01  4.768371582E-07  0.00000E+00  9.000E+00
       2     1     1     2   515     0  1.152065868E+01  8.015227216E+00  1.549859190E+02  1.556204146E+02  3.300000131E-01  0.00000E+00  9.000E+00
</event>
<event>
      5  10001  2.40292E+09  1.26314E+01 -1.00000E+00  1.84665E-01
      21    -1     0     0   511   514  0.000000000E+00  0.000000000E+00  6.296344345E+02  6.296344345E+02  0.000000000E+00  0.00000E+00  9.000E+00
      21    -1     0     0   515   516  0.000000000E+00  0.000000000E+00 -2.689886155E+01  2.689886155E+01  0.000000000E+00  0.00000E+00  9.000E+00
      21     1     1     2   512   516  2.243633867E+01 -2.437490361E+01  2.229176977E+01  3.993054243E+01  7.907449699E-07  0.00000E+00  9.000E+00
      21     1     1     2   515   514 -2.865858460E+01  1.338237455E+01 -4.125447579E+00  3.189704904E+01  3.097148194E-07  0.00000E+00  9.000E+00
      21     1     1     2   511   512  6.222245931E+00  1.099252906E+01  5.845692507E+02  5.847057045E+02  0.000000000E+00  0.00000E+00  9.000E+00
</event>
<event>
      5  10001  2.40292E+09  5.79600E+00 -1.00000E+00  2.27750E-01
      21    -1     0     0   513   514  0.000000000E+00  0.000000000E+00  4.792542240E-01  4.792542240E-01  0.000000000E+00  0.00000E+00  9.000E+00
       1    -1     0     0   511     0  0.000000000E+00  0.000000000E+00 -6.459354709E+02  6.459354709E+02  0.000000000E+00  0.00000E+00  9.000E+00
      21     1     1     2   511   514 -5.226598623E+00  8.451074117E+00 -6.086656200E+01  6.167233056E+01  9.536743164E-07  0.00000E+00  9.000E+00
       1     1     1     2   515     0  6.955770630E+00 -3.876920269E+00 -4.345194803E+02  4.345925689E+02  3.300000131E-01  0.00000E+00  9.000E+00
      21     1     1     2   513   515 -1.729172007E+00 -4.574153848E+00 -1.500701744E+02  1.501498257E+02  2.697398305E-06  0.00000E+00  9.000E+00
</event>
<event>
      5  10001  2.40292E+09  6.57130E+00 -1.00000E+00  2.19433E-01
      21    -1     0     0   512   511  0.000000000E+00  0.000000000E+00  1.687142844E+00  1.687142844E+00  0.000000000E+00  0.00000E+00  9.000E+00
      21    -1     0     0   516   514  0.000000000E+00  0.000000000E+00 -1.833976455E+02  1.833976455E+02  0.000000000E+00  0.00000E+00  9.000E+00
      21     1     1     2   515   511 -7.333059814E+00  9.899445642E+00 -2.890079286E+01  3.141701161E+01  7.539457465E-07  0.00000E+00  9.000E+00
      21     1     1     2   516   515  7.684495488E-01 -9.603005735E+00 -9.367639191E+01  9.417045521E+01  0.000000000E+00  0.00000E+00  9.000E+00
      21     1     1     2   512   514  6.564610265E+00 -2.964399072E-01 -5.913331792E+01  5.949732156E+01  1.168007728E-06  0.00000E+00  9.000E+00
</event>
<event>
      5  10001  2.40292E+09  8.93252E+00 -1.00000E+00  2.01539E-01
      21    -1     0     0   515   514  0.000000000E+00  0.000000000E+00  3.232385900E+01  3.232385900E+01  0.000000000E+00  0.00000E+00  9.000E+00
      21    -1     0     0   511   517  0.000000000E+00  0.000000000E+00 -1.636273457E+02  1.636273457E+02  0.000000000E+00  0.00000E+00  9.000E+00
      21     1     1     2   513   517  1.601167553E+01 -4.965582563E+00  2.712275221E+01  3.188533285E+01  6.743495762E-07  0.00000E+00  9.000E+00
      21     1     1     2   511   514 -1.154593383E+01 -2.770509643E+00 -1.533155683E+02  1.537746656E+02  0.000000000E+00  0.00000E+00  9.000E+00
      21     1     1     2   515   513 -4.465741705E+00  7.736092206E+00 -5.110670667E+00  1.029120626E+01  1.576990671E-07  0.00000E+00  9.000E+00
</event>
<event>
      5  10001  2.40292E+09  2.92829E+00 -1.00000E+00  2.99951E-01
      21    -1     0     0   512   514  0.000000000E+00  0.000000000E+00  1.317061658E+01  1.317061658E+01  0.000000000E+00  0.00000E+00  9.000E+00
      21    -1     0     0   516   513  0.000000000E+00  0.000000000E+00 -7.519919919E+01  7.519919919E+01  0.000000000E+00  0.00000E+00  9.000E+00
      21     1     1     2   512   513  1.644983896E+00  1.138950046E+01 -5.006315676E+00  1.254949758E+01  4.420398764E-07  0.00000E+00  9.000E+00
      21     1     1     2   516   511  9.108253484E-01 -9.960269529E+00 -6.580578552E+01  6.656153529E+01  1.348699152E-06  0.00000E+00  9.000E+00
      21     1     1     2   511   514 -2.555809244E+00 -1.429230934E+00  8.783518587E+00  9.258782897E+00  2.064765462E-07  0.00000E+00  9.000E+00
</event>
<event>
      5  10001  2.40292E+09  4.43854E+00 -1.00000E+00  2.53160E-01
      -2    -1     0     0     0   514  0.000000000E+00  0.000000000E+00  7.521108481E+00  7.521108481E+00  0.000000000E+00  0.00000E+00  9.000E+00
      -1    -1     0     0     0   511  0.000000000E+00  0.000000000E+00 -1.762677251E+01  1.762677251E+01  0.000000000E+00  0.00000E+00  9.000E+00
      -2     1     1     2     0   512  3.834570564E+00  1.244783010E+00 -2.717937013E-01  4.054156876E+00  3.300000131E-01  0.00000E+00  9.000E+00
      -1     1     1     2     0   514 -1.121959980E+01 -7.316866372E-01 -5.590299682E+00  1.256085727E+01  3.300000131E-01  0.00000E+00  9.000E+00
      21     1     1     2   512   511  7.385029233E+00 -5.130963729E-01 -4.243570644E+00  8.532866838E+00  1.685873940E-07  0.00000E+00  9.000E+00
</event>
<event>
      5  10001  2.40292E+09  6.55825E+00 -1.00000E+00  2.19560E-01
      21    -1     0     0   513   514  0.000000000E+00  0.000000000E+00  1.038935415E+00  1.038935415E+00  0.000000000E+00  0.00000E+00  9.000E+00
       2    -1     0     0   512     0  0.000000000E+00  0.000000000E+00 -3.049195832E+02  3.049195832E+02  0.000000000E+00  0.00000E+00  9.000E+00
      21     1     1     2   512   514 -1.247340483E+00 -9.889916436E+00 -2.651073693E+01  2.832287906E+01  8.920806376E-07  0.00000E+00  9.000E+00
       2     1     1     2   515     0 -2.492535238E+00  4.257639501E+00 -1.552517617E+02  1.553304820E+02  3.300000131E-01  0.00000E+00  9.000E+00
      21     1     1     2   513   515  3.739875721E+00  5.632276935E+00 -1.221181492E+02  1.223051576E+02  1.348699152E-06  0.00000E+00  9.000E+00
</event>
<event>
      5  10001  2.40292E+09  6.10119E+00 -1.00000E+00  2.24272E-01
      21    -1     0     0   511   514  0.000000000E+00  0.000000000E+00  1.431457987E+01  1.431457987E+01  0.000000000E+00  0.00000E+00  9.000E+00
      21    -1     0     0   512   516  0.000000000E+00  0.000000000E+00 -6.200840111E+01  6.200840111E+01  0.000000000E+00  0.00000E+00  9.000E+00
      21     1     1     2   511   516  2.277208620E+00 -1.137645478E+01  1.111919639E+01  1.607003207E+01  2.064765462E-07  0.00000E+00  9.000E+00
      21     1     1     2   512   517 -1.616213650E+00  2.880561310E+00 -3.068965395E+01  3.086688581E+01  3.371747881E-07  0.00000E+00  9.000E+00
      21     1     1     2   517   514 -6.609949705E-01  8.495893468E+00 -2.812336367E+01  2.938606310E+01  3.371747881E-07  0.00000E+00  9.000E+00
</event>
<event>
      5  10001  2.40292E+09  8.70950E+00 -1.00000E+00  2.02897E-01
      21    -1     0     0   513   512  0.000000000E+00  0.000000000E+00  3.992686244E-01  3.992686244E-01  0.000000000E+00  0.00000E+00  9.000E+00
      21    -1     0     0   514   513  0.000000000E+00  0.000000000E+00 -3.021287992E+02  3.021287992E+02  0.000000000E+00  0.00000E+00  9.000E+00
      21     1     1     2   514   515 -1.514739627E+00 -9.984347640E+00 -1.472064981E+02  1.475524812E+02  3.303624740E-06  0.00000E+00  9.000E+00
       2     1     1     2   515     0  2.741657728E+00  2.250716477E+00 -3.096787864E+01  3.117211605E+01  3.300000131E-01  0.00000E+00  9.000E+00
      -2     1     1     2     0   512 -1.226918101E+00  7.733631162E+00 -1.235551539E+02  1.238034706E+02  3.300000131E-01  0.00000E+00  9.000E+00
</event>
<event>
      5  10001  2.40292E+09  1.06470E+01 -1.00000E+00  1.92605E-01
      21    -1     0     0   511   512  0.000000000E+00  0.000000000E+00  2.143442093E+02  2.143442093E+02  0.000000000E+00  0.00000E+00  9.000E+00
      -3    -1     0     0     0   511  0.000000000E+00  0.000000000E+00 -4.401360111E+00  4.401360111E+00  0.000000000E+00  0.00000E+00  9.000E+00
      -3     1     1     2     0   513  1.225496179E+01 -1.475294455E+01  2.275316916E+01  2.976222720E+01  5.000000000E-01  0.00000E+00  9.000E+00
      21     1     1     2   514   512 -1.653970216E+01  1.143420573E+01  1.311824777E+02  1.327145254E+02  1.907348633E-06  0.00000E+00  9.000E+00
      21     1     1     2   513   514  4.284740375E+00  3.318738814E+00  5.600720235E+01  5.626881678E+01  6.743495762E-07  0.00000E+00  9.000E+00
</event>
<event>
      5  10001  2.40292E+09  4.76373E+00 -1.00000E+00  2.46688E-01
      21    -1     0     0   515   514  0.000000000E+00  0.000000000E+00  5.628503976E+00  5.628503976E+00  0.000000000E+00  0.00000E+00  9.000E+00
      21    -1     0     0   513   516  0.000000000E+00  0.000000000E+00 -7.823729541E+01  7.823729541E+01  0.000000000E+00  0.00000E+00  9.000E+00
      21     1     1     2   515   516  1.717529739E+01  1.185548136E+01 -3.621572941E+01  4.179859250E+01  4.768371582E-07  0.00000E+00  9.000E+00
      21     1     1     2   513   511 -4.735702997E+00 -3.943720494E+00 -1.346822051E+01  1.481123823E+01  1.685873940E-07  0.00000E+00  9.000E+00
      21     1     1     2   511   514 -1.243959440E+01 -7.911760861E+00 -2.292484152E+01  2.725596866E+01  3.371747881E-07  0.00000E+00  9.000E+00
</event>
<event>
      5  10001  2.40292E+09  7.39103E+00 -1.00000E+00  2.12201E-01
      21    -1     0     0   512   511  0.000000000E+00  0.000000000E+00  2.443116158E+01  2.443116158E+01  0.000000000E+00  0.00000E+00  9.000E+00
      21    -1     0     0   514   512  0.000000000E+00  0.000000000E+00 -1.488493643E+01  1.488493643E+01  0.000000000E+00  0.00000E+00  9.000E+00
      21     1     1     2   513   511  3.477716839E+00 -1.579484124E+01 -5.119762741E+00  1.696418271E+01  3.576278687E-07  0.00000E+00  9.000E+00
      21     1     1     2   515   513 -1.849190523E-01  3.550412500E+00  6.065987147E+00  7.031061374E+00  8.429369702E-08  0.00000E+00  9.000E+00
      21     1     1     2   514   515 -3.292797787E+00  1.224442874E+01  8.600000746E+00  1.532085394E+01  3.953724850E-07  0.00000E+00  9.000E+00
</event>
<event>
      5  10001  2.40292E+09  9.13167E+00 -1.00000E+00  2.00370E-01
       5    -1     0     0   512     0  0.000000000E+00  0.000000000E+00  1.205157700E+01  1.205157700E+01  0.000000000E+00  0.00000E+00  9.000E+00
       2    -1     0     0   511     0  0.000000000E+00  0.000000000E+00 -2.266161610E+02  2.266161610E+02  0.000000000E+00  0.00000E+00  9.000E+00
       2     1     1     2   514     0  2.571285346E+01  2.008309484E+01 -1.883747571E+02  1.911796002E+02  3.300000131E-01  0.00000E+00  9.000E+00
       5     1     1     2   511     0 -2.305727892E+01 -1.136934079E+01 -8.342802891E+00  2.745072646E+01  4.800000191E+00  0.00000E+00  9.000E+00
      21     1     1     2   512   514 -2.655574536E+00 -8.713754049E+00 -1.784702397E+01  2.003741127E+01  2.384185791E-07  0.00000E+00  9.000E+00
</event>
<event>
      5  10001  2.40292E+09  4.19339E+00 -1.00000E+00  2.58626E-01
      -3    -1     0     0     0   513  0.000000000E+00  0.000000000E+00  2.516808106E+02  2.516808106E+02  0.000000000E+00  0.00000E+00  9.000E+00
      21    -1     0     0   512   514  0.000000000E+00  0.000000000E+00 -9.468899892E-01  9.468899892E-01  0.000000000E+00  0.00000E+00  9.000E+00
      -3     1     1     2     0   511  5.885470523E+00  3.856039970E+00  2.132665684E+02  2.133831929E+02  5.000000000E-01  0.00000E+00  9.000E+00
      21     1     1     2   512   513 -8.121870629E+00 -4.454388342E+00  2.775185873E+01  2.925699952E+01  6.743495762E-07  0.00000E+00  9.000E+00
      21     1     1     2   511   514  2.236400106E+00  5.983483716E-01  9.715493524E+00  9.987508229E+00  0.000000000E+00  0.00000E+00  9.000E+00
</event>
<event>
      5  10001  2.40292E+09  2.24104E+00 -1.00000E+00  3.41293E-01
      21    -1     0     0   515   512  0.000000000E+00  0.000000000E+00  1.464139860E+02  1.464139860E+02  0.000000000E+00  0.00000E+00  9.000E+00
       2    -1     0     0   511     0  0.000000000E+00  0.000000000E+00 -2.121245985E+02  2.121245985E+02  0.000000000E+00  0.00000E+00  9.000E+00
      21     1     1     2   515   516 -9.128429977E+00  8.112414567E+00  1.917200977E+01  2.273115621E+01  5.331201500E-07  0.00000E+00  9.000E+00
      21     1     1     2   511   512  6.997631378E+00 -8.806639579E+00  1.252041701E+02  1.257084243E+02  1.348699152E-06  0.00000E+00  9.000E+00
       2     1     1     2   516     0  2.130798599E+00  6.942250128E-01 -2.100867923E+02  2.100990040E+02  3.300000131E-01  0.00000E+00  9.000E+00
</event>
<event>
      5  10001  2.40292E+09  7.97122E+00 -1.00000E+00  2.07809E-01
      21    -1     0     0   513   511  0.000000000E+00  0.000000000E+00  1.302104608E+01  1.302104608E+01  0.000000000E+00  0.00000E+00  9.000E+00
       2    -1     0     0   512     0  0.000000000E+00  0.000000000E+00 -3.709557571E+02  3.709557571E+02  0.000000000E+00  0.00000E+00  9.000E+00
      21     1     1     2   512   511 -1.598366189E+01  1.347553729E+01  3.716450076E+00  2.123392459E+01  9.424321831E-08  0.00000E+00  9.000E+00
       2     1     1     2   514     0  1.145990102E+01 -1.775533546E+01 -3.095899645E+02  3.103105481E+02  3.300000131E-01  0.00000E+00  9.000E+00
      21     1     1     2   513   514  4.523760867E+00  4.279798166E+00 -5.206119663E+01  5.243233048E+01  6.743495762E-07  0.00000E+00  9.000E+00
</event>
<event>
      5  10001  2.40292E+09  5.53035E+00 -1.00000E+00  2.31031E-01
       1    -1     0     0   515     0  0.000000000E+00  0.000000000E+00  8.395770775E+01  8.395770775E+01  0.000000000E+00  0.00000E+00  9.000E+00
      21    -1     0     0   511   516  0.000000000E+00  0.000000000E+00 -8.081279602E+00  8.081279602E+00  0.000000000E+00  0.00000E+00  9.000E+00
      21     1     1     2   515   516  2.572292256E+00  8.392180240E+00  1.916558403E+00  8.984351548E+00  2.580956828E-07  0.00000E+00  9.000E+00
      21     1     1     2   511   512 -2.542843542E+00 -1.392218376E+01  6.861775908E+00  1.572823012E+01  8.429369702E-08  0.00000E+00  9.000E+00
       1     1     1     2   512     0 -2.944871393E-02  5.530003522E+00  6.709809383E+01  6.732640568E+01  3.300000131E-01  0.00000E+00  9.000E+00
</event>
<event>
      5  10001  2.40292E+09  7.06676E+00 -1.00000E+00  2.14902E-01
      21    -1     0     0   513   511  0.000000000E+00  0.000000000E+00  1.214388711E+01  1.214388711E+01  0.000000000E+00  0.00000E+00  9.000E+00
      21    -1     0     0   517   515  0.000000000E+00  0.000000000E+00 -4.800941281E+01  4.800941281E+01  0.000000000E+00  0.00000E+00  9.000E+00
      21     1     1     2   513   514 -3.225762431E+00  1.187303594E+01  1.984564389E-01  1.230503599E+01  5.789201806E-08  0.00000E+00  9.000E+00
      21     1     1     2   517   511  9.829978581E+00 -1.438768754E+01 -8.490401355E+00  1.938352256E+01  2.384185791E-07  0.00000E+00  9.000E+00
      21     1     1     2   514   515 -6.604216150E+00  2.514651601E+00 -2.757358079E+01  2.846474137E+01  0.000000000E+00  0.00000E+00  9.000E+00
</event>
<event>
      5  10001  2.40292E+09  8.46565E+00 -1.00000E+00  2.04445E-01
      21    -1     0     0   512   515  0.000000000E+00  0.000000000E+00  1.819798254E+01  1.819798254E+01  0.000000000E+00  0.00000E+00  9.000E+00
      21    -1     0     0   514   516  0.000000000E+00  0.000000000E+00 -1.826425436E+01  1.826425436E+01  0.000000000E+00  0.00000E+00  9.000E+00
      21     1     1     2   512   516  1.380333551E+01 -5.068779514E+00  8.681783125E+00  1.707623950E+01  3.153981341E-07  0.00000E+00  9.000E+00
      21     1     1     2   511   515 -1.016707501E+01  1.838207770E+00 -1.192982669E+00  1.040055911E+01  2.946513881E-07  0.00000E+00  9.000E+00
      21     1     1     2   514   511 -3.636260500E+00  3.230571744E+00 -7.555072274E+00  8.985438291E+00  1.460009660E-07  0.00000E+00  9.000E+00
</event>
<event>
      5  10001  2.40292E+09  1.27507E+01 -1.00000E+00  1.84248E-01
       3    -1     0     0   513     0  0.000000000E+00  0.000000000E+00  2.526089036E+00  2.526089036E+00  0.000000000E+00  0.00000E+00  9.000E+00
       2    -1     0     0   512     0  0.000000000E+00  0.000000000E+00 -4.723918919E+02  4.723918919E+02  0.000000000E+00  0.00000E+00  9.000E+00
       2     1     1     2   513     0  9.572426894E+00  1.001890343E+01 -4.043178829E+02  4.045553969E+02  3.300000131E-01  0.00000E+00  9.000E+00
       3     1     1     2   515     0 -5.171579657E-01 -6.166424031E+00 -2.735863976E+00  6.784334115E+00  5.000000000E-01  0.00000E+00  9.000E+00
      21     1     1     2   512   515 -9.055268928E+00 -3.852479401E+00 -6.281205600E+01  6.357824999E+01  6.743495762E-07  0.00000E+00  9.000E+00
</event>
<event>
      5  10001  2.40292E+09  2.19069E+01 -1.00000E+00  1.63131E-01
      21    -1     0     0   511   515  0.000000000E+00  0.000000000E+00  2.940376163E+01  2.940376163E+01  0.000000000E+00  0.00000E+00  9.000E+00
      21    -1     0     0   512   511  0.000000000E+00  0.000000000E+00 -2.090939378E+02  2.090939378E+02  0.000000000E+00  0.00000E+00  9.000E+00
      21     1     1     2   514   515  1.095903682E+01 -2.028722059E+01  2.385719637E+01  3.317887318E+01  1.348699152E-06  0.00000E+00  9.000E+00
      21     1     1     2   513   514 -9.181427445E+00  6.362993574E+00 -5.587013282E+01  5.697594263E+01  9.536743164E-07  0.00000E+00  9.000E+00
      21     1     1     2   512   513 -1.777609374E+00  1.392422701E+01 -1.476772397E+02  1.483428836E+02  1.907348633E-06  0.00000E+00  9.000E+00
</event>
<event>
      5  10001  2.40292E+09  4.90121E+00 -1.00000E+00  2.44181E-01
      21    -1     0     0   516   514  0.000000000E+00  0.000000000E+00  4.774727018E+00  4.774727018E+00  0.000000000E+00  0.00000E+00  9.000E+00
      21    -1     0     0   512   516  0.000000000E+00  0.000000000E+00 -2.109212294E+01  2.109212294E+01  0.000000000E+00  0.00000E+00  9.000E+00
      21     1     1     2   513   514 -8.172581210E+00  3.603800956E+00 -7.399021149E+00  1.159844726E+01  1.685873940E-07  0.00000E+00  9.000E+00
      21     1     1     2   512   511  7.196783660E+00  1.299413182E-01 -6.603912008E+00  9.768430458E+00  1.460009660E-07  0.00000E+00  9.000E+00
      21     1     1     2   511   513  9.757975491E-01 -3.733742274E+00 -2.314462762E+00  4.499972234E+00  9.884312124E-08  0.00000E+00  9.000E+00
</event>
<event>
      5  10001  2.40292E+09  2.94044E+00 -1.00000E+00  2.99394E-01
      21    -1     0     0   515   512  0.000000000E+00  0.000000000E+00  6.340102969E+00  6.340102969E+00  0.000000000E+00  0.00000E+00  9.000E+00
      21    -1     0     0   514   513  0.000000000E+00  0.000000000E+00 -2.664343638E+02  2.664343638E+02  0.000000000E+00  0.00000E+00  9.000E+00
      21     1     1     2   515   513  1.110222957E+01  8.013007996E-01 -2.611282469E+02  2.613653820E+02  3.814697266E-06  0.00000E+00  9.000E+00
      21     1     1     2   514   516 -3.466284944E+00  5.283116785E-01  1.043297692E+00  3.658239279E+00  2.908590629E-07  0.00000E+00  9.000E+00
      21     1     1     2   516   512 -7.635944624E+00 -1.329612478E+00 -9.311666661E-03  7.750845525E+00  3.518315828E-07  0.00000E+00  9.000E+00
</event>
<event>
      5  10001  2.40292E+09  7.00083E+00 -1.00000E+00  2.15475E-01
      21    -1     0     0   514   512  0.000000000E+00  0.000000000E+00  3.686531633E+01  3.686531633E+01  0.000000000E+00  0.00000E+00  9.000E+00
       1    -1     0     0   512     0  0.000000000E+00  0.000000000E+00 -4.286232796E+01  4.286232796E+01  0.000000000E+00  0.00000E+00  9.000E+00
      21     1     1     2   514   511 -1.028574413E+01 -1.195309050E+01  3.335402081E+01  3.689395084E+01  9.536743164E-07  0.00000E+00  9.000E+00
      21     1     1     2   511   513  3.585994988E+00  7.974233446E+00 -1.626919961E+01  1.846982986E+01  4.129530925E-07  0.00000E+00  9.000E+00
       1     1     1     2   513     0  6.699749137E+00  3.978857057E+00 -2.308183283E+01  2.436386358E+01  3.300000131E-01  0.00000E+00  9.000E+00
</event>
<event>
      5  10001  2.40292E+09  8.44689E+00 -1.00000E+00  2.04567E-01
      -3    -1     0     0     0   515  0.000000000E+00  0.000000000E+00  1.060779173E+02  1.060779173E+02  0.000000000E+00  0.00000E+00  9.000E+00
      21    -1     0     0   515   514  0.000000000E+00  0.000000000E+00 -3.402815436E+00  3.402815436E+00  0.000000000E+00  0.00000E+00  9.000E+00
      -3     1     1     2     0   511 -3.604297969E+00 -5.097171245E+00  7.955838383E+01  7.980450210E+01  5.000000000E-01  0.00000E+00  9.000E+00
      21     1     1     2   512   514  9.533299195E+00  3.033024967E+00  6.544320611E+00  1.195454584E+01  0.000000000E+00  0.00000E+00  9.000E+00
      21     1     1     2   511   512 -5.929001226E+00  2.064146278E+00  1.657239740E+01  1.772168477E+01  4.129530925E-07  0.00000E+00  9.000E+00
</event>
<event>
      5  10001  2.40292E+09  3.23372E+01 -1.00000E+00  1.50777E-01
      21    -1     0     0   513   512  0.000000000E+00  0.000000000E+00  1.515450990E+02  1.515450990E+02  0.000000000E+00  0.00000E+00  9.000E+00
      21    -1     0     0   511   516  0.000000000E+00  0.000000000E+00 -4.092294633E+01  4.092294633E+01  0.000000000E+00  0.00000E+00  9.000E+00
      21     1     1     2   513   516 -1.295943160E+01  1.537087923E+00  1.243793110E+02  1.250620746E+02  1.348699152E-06  0.00000E+00  9.000E+00
      21     1     1     2   514   512  1.307848051E+01 -1.901213126E+01 -3.372928918E+01  4.086774690E+01  1.168007728E-06  0.00000E+00  9.000E+00
      21     1     1     2   511   514 -1.190489142E-01  1.747504334E+01  1.997213087E+01  2.653822383E+01  2.384185791E-07  0.00000E+00  9.000E+00
</event>
<event>
      5  10001  2.40292E+09  2.22233E+00 -1.00000E+00  3.42787E-01
      21    -1     0     0   515   514  0.000000000E+00  0.000000000E+00  4.922886621E+01  4.922886621E+01  0.000000000E+00  0.00000E+00  9.000E+00
      21    -1     0     0   511   512  0.000000000E+00  0.000000000E+00 -2.541442558E+01  2.541442558E+01  0.000000000E+00  0.00000E+00  9.000E+00
      21     1     1     2   515   517 -6.086337555E-01  1.196943896E+01  4.630906478E+01  4.783479262E+01  6.743495762E-07  0.00000E+00  9.000E+00
      21     1     1     2   511   514 -1.606451731E+00 -1.214877426E+01 -1.775150958E+01  2.157057013E+01  6.307962682E-07  0.00000E+00  9.000E+00
      21     1     1     2   517   512  2.215085486E+00  1.793353001E-01 -4.743114569E+00  5.237929045E+00  1.032382731E-07  0.00000E+00  9.000E+00
</event>
<event>
      5  10001  2.40292E+09  7.64448E+00 -1.00000E+00  2.10218E-01
      21    -1     0     0   513   511  0.000000000E+00  0.000000000E+00  7.492757527E+00  7.492757527E+00  0.000000000E+00  0.00000E+00  9.000E+00
       2    -1     0     0   517     0  0.000000000E+00  0.000000000E+00 -6.519795289E+02  6.519795289E+02  0.000000000E+00  0.00000E+00  9.000E+00
      21     1     1     2   513   516  1.921311381E+01 -3.467728512E+00 -1.314626553E+02  1.329044718E+02  0.000000000E+00  0.00000E+00  9.000E+00
      21     1     1     2   517   511 -1.401066602E+01 -2.133320870E+00 -7.030116005E-01  1.418957524E+01  2.098102546E-07  0.00000E+00  9.000E+00
       2     1     1     2   516     0 -5.202447794E+00  5.601049382E+00 -5.123211045E+02  5.123782394E+02  3.300000131E-01  0.00000E+00  9.000E+00
</event>
<event>
      5  10001  2.40292E+09  2.49302E+00 -1.00000E+00  3.23440E-01
      21    -1     0     0   512   511  0.000000000E+00  0.000000000E+00  5.258430023E+00  5.258430023E+00  0.000000000E+00  0.00000E+00  9.000E+00
       2    -1     0     0   514     0  0.000000000E+00  0.000000000E+00 -7.191050812E+02  7.191050812E+02  0.000000000E+00  0.00000E+00  9.000E+00
      21     1     1     2   515   511 -2.496966124E+00  8.986704468E+00 -8.225058264E-01  9.363344106E+00  2.151657504E-07  0.00000E+00  9.000E+00
      21     1     1     2   514   515  4.568835666E+00 -1.037321364E+01 -3.160004121E+01  3.357142274E+01  5.840038640E-07  0.00000E+00  9.000E+00
       2     1     1     2   512     0 -2.071869542E+00  1.386509175E+00 -6.814241042E+02  6.814287444E+02  3.300000131E-01  0.00000E+00  9.000E+00
</event>
<event>
      5  10001  2.40292E+09  9.80884E+00 -1.00000E+00  1.96672E-01
      21    -1     0     0   515   514  0.000000000E+00  0.000000000E+00  5.538115753E+00  5.538115753E+00  0.000000000E+00  0.00000E+00  9.000E+00
      21    -1     0     0   513   515  0.000000000E+00  0.000000000E+00 -5.962693625E+01  5.962693625E+01  0.000000000E+00  0.00000E+00  9.000E+00
      -1     1     1     2     0   511  4.932454306E+00 -1.133343154E+01 -2.247827125E+01  2.565457765E+01  3.300000131E-01  0.00000E+00  9.000E+00
       1     1     1     2   513     0 -1.482274536E+00  1.560246868E+01 -2.990161477E+01  3.376165921E+01  3.300000131E-01  0.00000E+00  9.000E+00
      21     1     1     2   511   514 -3.450179770E+00 -4.269037139E+00 -1.708934477E+00  5.748815146E+00  9.657056180E-08  0.00000E+00  9.000E+00
</event>
<event>
      5  10001  2.40292E+09  6.82059E+00 -1.00000E+00  2.17087E-01
      21    -1     0     0   515   513  0.000000000E+00  0.000000000E+00  5.643068955E+01  5.643068955E+01  0.000000000E+00  0.00000E+00  9.000E+00
       2    -1     0     0   511     0  0.000000000E+00  0.000000000E+00 -4.108131656E+00  4.108131656E+00  0.000000000E+00  0.00000E+00  9.000E+00
      21     1     1     2   511   513  7.269584990E+00 -2.212908352E+00  1.113583745E+01  1.348149491E+01  2.920019320E-07  0.00000E+00  9.000E+00
       2     1     1     2   512     0 -1.384645307E+01  4.091140481E-01  1.702238078E+01  2.194907707E+01  3.300000131E-01  0.00000E+00  9.000E+00
      21     1     1     2   515   512  6.576868080E+00  1.803794304E+00  2.416433967E+01  2.510824923E+01  3.371747881E-07  0.00000E+00  9.000E+00
</event>
<event>
      5  10001  2.40292E+09  1.89807E+01 -1.00000E+00  1.68223E-01
      21    -1     0     0   514   512  0.000000000E+00  0.000000000E+00  2.826868639E+01  2.826868639E+01  0.000000000E+00  0.00000E+00  9.000E+00
      21    -1     0     0   511   516  0.000000000E+00  0.000000000E+00 -2.577067446E+02  2.577067446E+02  0.000000000E+00  0.00000E+00  9.000E+00
      21     1     1     2   514   516 -2.777839877E+01 -2.397625559E+01  1.060102252E+01  3.819531317E+01  9.000103993E-07  0.00000E+00  9.000E+00
      21     1     1     2   513   512  3.765992286E+01  1.727347436E+01 -2.239166146E+02  2.277175728E+02  2.697398305E-06  0.00000E+00  9.000E+00
      21     1     1     2   511   513 -9.881524098E+00  6.702781225E+00 -1.612246612E+01  2.006254492E+01  3.371747881E-07  0.00000E+00  9.000E+00
</event>
<event>
      5  10001  2.40292E+09  3.52575E+00 -1.00000E+00  2.76970E-01
      21    -1     0     0   515   513  0.000000000E+00  0.000000000E+00  1.101312423E+02  1.101312423E+02  0.000000000E+00  0.00000E+00  9.000E+00
      21    -1     0     0   512   517  0.000000000E+00  0.000000000E+00 -2.821580091E+01  2.821580091E+01  0.000000000E+00  0.00000E+00  9.000E+00
      21     1     1     2   515   517 -7.468412340E+00  1.064642131E+01 -1.090216529E+01  1.696999345E+01  6.743495762E-07  0.00000E+00  9.000E+00
      21     1     1     2   511   513  6.179174660E+00 -7.364837411E+00  1.066601587E+02  1.070925417E+02  1.348699152E-06  0.00000E+00  9.000E+00
      21     1     1     2   512   511  1.289237680E+00 -3.281583900E+00 -1.384255198E+01  1.428450812E+01  3.371747881E-07  0.00000E+00  9.000E+00
</event>
<event>
      5  10001  2.40292E+09  9.51578E+00 -1.00000E+00  1.98222E-01
      21    -1     0     0   514   511  0.000000000E+00  0.000000000E+00  2.975762733E+02  2.975762733E+02  0.000000000E+00  0.00000E+00  9.000E+00
      21    -1     0     0   512   514  0.000000000E+00  0.000000000E+00 -1.069493723E+00  1.069493723E+00  0.000000000E+00  0.00000E+00  9.000E+00
      21     1     1     2   512   516  1.012613749E+01  2.733899696E+00  2.979074976E+01  3.158324935E+01  1.011524364E-06  0.00000E+00  9.000E+00
      21     1     1     2   513   511 -2.499888493E+00  1.954333520E+00  1.375715374E+02  1.376081276E+02  1.907348633E-06  0.00000E+00  9.000E+00
      21     1     1     2   516   513 -7.626248997E+00 -4.688233216E+00  1.291444923E+02  1.294543901E+02  0.000000000E+00  0.00000E+00  9.000E+00
</event>
<event>
      5  10001  2.40292E+09  3.02102E+00 -1.00000E+00  2.95813E-01
      21    -1     0     0   515   513  0.000000000E+00  0.000000000E+00  2.472358898E+01  2.472358898E+01  0.000000000E+00  0.00000E+00  9.000E+00
      21    -1     0     0   512   517  0.000000000E+00  0.000000000E+00 -7.216602084E+01  7.216602084E+01  0.000000000E+00  0.00000E+00  9.000E+00
      21     1     1     2   515   517 -1.213251484E+00 -1.244382102E+01  2.249312743E+01  2.573444078E+01  7.539457465E-07  0.00000E+00  9.000E+00
      21     1     1     2   511   513  1.333988307E+00  6.143818388E+00 -4.493881856E+01  4.537646354E+01  8.259061849E-07  0.00000E+00  9.000E+00
      21     1     1     2   512   511 -1.207368234E-01  6.300002634E+00 -2.499674072E+01  2.577870550E+01  3.371747881E-07  0.00000E+00  9.000E+00
</event>
<event>
      5  10001  2.40292E+09  4.38957E+00 -1.00000E+00  2.54208E-01
      21    -1     0     0   514   513  0.000000000E+00  0.000000000E+00  9.024852502E-01  9.024852502E-01  0.000000000E+00  0.00000E+00  9.000E+00
      21    -1     0     0   512   516  0.000000000E+00  0.000000000E+00 -5.104262189E+02  5.104262189E+02  0.000000000E+00  0.00000E+00  9.000E+00
      21     1     1     2   514   516  1.535388769E+01  3.159232813E+00 -3.120042483E+02  3.123977810E+02  7.629394531E-06  0.00000E+00  9.000E+00
      21     1     1     2   512   511 -1.873230305E+01 -3.566171664E-01 -1.739579739E+02  1.749640050E+02  3.814697266E-06  0.00000E+00  9.000E+00
      21     1     1     2   511   513  3.378415361E+00 -2.802615647E+00 -2.356151141E+01  2.396691813E+01  4.768371582E-07  0.00000E+00  9.000E+00
</event>
<event>
      5  10001  2.40292E+09  1.20091E+01 -1.00000E+00  1.86941E-01
      21    -1     0     0   515   512  0.000000000E+00  0.000000000E+00  2.304438423E+01  2.304438423E+01  0.000000000E+00  0.00000E+00  9.000E+00
      21    -1     0     0   511   514  0.000000000E+00  0.000000000E+00 -1.164953962E+02  1.164953962E+02  0.000000000E+00  0.00000E+00  9.000E+00
      -4     1     1     2     0   512  2.039976221E+01  1.518244150E+01  9.205612224E+00  2.708597653E+01  1.500000000E+00  0.00000E+00  9.000E+00
       4     1     1     2   511     0 -3.140890620E+01 -1.039936202E+01 -8.372373015E+01  9.003654319E+01  1.500000000E+00  0.00000E+00  9.000E+00
      21     1     1     2   515   514  1.100914399E+01 -4.783079482E+00 -1.893289405E+01  2.241726071E+01  0.000000000E+00  0.00000E+00  9.000E+00
</event>
<event>
      5  10001  2.40292E+09  7.92091E+00 -1.00000E+00  2.08170E-01
      21    -1     0     0   513   517  0.000000000E+00  0.000000000E+00  1.739526215E+02  1.739526215E+02  0.000000000E+00  0.00000E+00  9.000E+00
      21    -1     0     0   512   516  0.000000000E+00  0.000000000E+00 -2.175619321E+00  2.175619321E+00  0.000000000E+00  0.00000E+00  9.000E+00
      21     1     1     2   513   516 -3.055719561E+00 -7.752635232E+00  1.020708535E+01  1.317669786E+01  6.743495762E-07  0.00000E+00  9.000E+00
      21     1     1     2   512   511 -2.948176486E+00  1.291926057E+01  9.993230534E+01  1.008070667E+02  1.907348633E-06  0.00000E+00  9.000E+00
      21     1     1     2   511   517  6.003896047E+00 -5.166625337E+00  6.163761149E+01  6.214447630E+01  1.348699152E-06  0.00000E+00  9.000E+00
</event>
<event>
      5  10001  2.40292E+09  3.32256E+00 -1.00000E+00  2.83901E-01
      21    -1     0     0   511   512  0.000000000E+00  0.000000000E+00  3.478446558E+01  3.478446558E+01  0.000000000E+00  0.00000E+00  9.000E+00
      21    -1     0     0   513   514  0.000000000E+00  0.000000000E+00 -5.869458492E+00  5.869458492E+00  0.000000000E+00  0.00000E+00  9.000E+00
      -2     1     1     2     0   512 -3.927677329E+00  9.829172018E+00  1.273272895E+01  1.656111585E+01  3.300000131E-01  0.00000E+00  9.000E+00
      21     1     1     2   511   514  5.534908765E+00 -1.273463655E+01  1.525808366E+01  2.063044595E+01  3.371747881E-07  0.00000E+00  9.000E+00
       2     1     1     2   513     0 -1.607231436E+00  2.905464531E+00  9.241944732E-01  3.462362267E+00  3.300000131E-01  0.00000E+00  9.000E+00
</event>
<event>
      5  10001  2.40292E+09  3.16331E+00 -1.00000E+00  2.89920E-01
       4    -1     0     0   513     0  0.000000000E+00  0.000000000E+00  8.165005022E+00  8.165005022E+00  0.000000000E+00  0.00000E+00  9.000E+00
      21    -1     0     0   515   511  0.000000000E+00  0.000000000E+00 -3.062387102E+01  3.062387102E+01  0.000000000E+00  0.00000E+00  9.000E+00
      21     1     1     2   513   511  8.634265082E+00 -6.907747066E+00 -2.427510055E+01  2.667485726E+01  0.000000000E+00  0.00000E+00  9.000E+00
      21     1     1     2   515   512 -6.240139136E+00  5.253071880E+00 -3.896479181E-01  8.166145120E+00  1.607496218E-07  0.00000E+00  9.000E+00
       4     1     1     2   512     0 -2.394125946E+00  1.654675186E+00  2.205882468E+00  3.947873666E+00  1.500000000E+00  0.00000E+00  9.000E+00
</event>
<event>
      5  10001  2.40292E+09  2.02957E+01 -1.00000E+00  1.65803E-01
       3    -1     0     0   511     0  0.000000000E+00  0.000000000E+00  1.961769524E+02  1.961769524E+02  0.000000000E+00  0.00000E+00  9.000E+00
       2    -1     0     0   514     0  0.000000000E+00  0.000000000E+00 -1.184346806E+02  1.184346806E+02  0.000000000E+00  0.00000E+00  9.000E+00
      21     1     1     2   514   512 -1.914286080E+01 -5.164836948E+00 -2.614825632E+00  1.999904931E+01  8.825715122E-07  0.00000E+00  9.000E+00
       3     1     1     2   512     0  8.137222871E-01  1.388003412E+01  1.862615439E+02  1.867804332E+02  5.000000000E-01  0.00000E+00  9.000E+00
       2     1     1     2   511     0  1.832913851E+01 -8.715197177E+00 -1.059044465E+02  1.078321504E+02  3.300000131E-01  0.00000E+00  9.000E+00
</event>
<event>
      5  10001  2.40292E+09  9.61593E+00 -1.00000E+00  1.97684E-01
      21    -1     0     0   514   515  0.000000000E+00  0.000000000E+00  6.802299984E+01  6.802299984E+01  0.000000000E+00  0.00000E+00  9.000E+00
      -1    -1     0     0     0   513  0.000000000E+00  0.000000000E+00 -2.199219454E+00  2.199219454E+00  0.000000000E+00  0.00000E+00  9.000E+00
      -1     1     1     2     0   515  7.667116782E+00  6.162969219E+00  1.559794540E+01  1.844374339E+01  3.300000131E-01  0.00000E+00  9.000E+00
       1     1     1     2   514     0 -3.049455084E+00 -4.157408514E+00  1.017895442E+01  1.141504424E+01  3.300000131E-01  0.00000E+00  9.000E+00
      -1     1     1     2     0   513 -4.617661698E+00 -2.005560705E+00  4.004688055E+01  4.036343166E+01  3.300000131E-01  0.00000E+00  9.000E+00
</event>
<event>
      5  10001  2.40292E+09  5.74653E+00 -1.00000E+00  2.28342E-01
       2    -1     0     0   513     0  0.000000000E+00  0.000000000E+00  5.585956403E+02  5.585956403E+02  0.000000000E+00  0.00000E+00  9.000E+00
      21    -1     0     0   512   514  0.000000000E+00  0.000000000E+00 -1.151085820E+01  1.151085820E+01  0.000000000E+00  0.00000E+00  9.000E+00
      21     1     1     2   512   511  6.723475588E+00 -1.064235050E+01  5.250924046E+01  5.399708401E+01  9.536743164E-07  0.00000E+00  9.000E+00
       2     1     1     2   511     0 -7.838859158E+00  5.005135941E+00  5.045297466E+02  5.046155697E+02  3.300000131E-01  0.00000E+00  9.000E+00
      21     1     1     2   513   514  1.115383570E+00  5.637214562E+00 -9.954205022E+00  1.149384471E+01  2.384185791E-07  0.00000E+00  9.000E+00
</event>
<event>
      5  10001  2.40292E+09  3.26902E+00 -1.00000E+00  2.85862E-01
      21    -1     0     0   515   516  0.000000000E+00  0.000000000E+00  2.407048292E+01  2.407048292E+01  0.000000000E+00  0.00000E+00  9.000E+00
       3    -1     0     0   511     0  0.000000000E+00  0.000000000E+00 -7.764890453E+00  7.764890453E+00  0.000000000E+00  0.00000E+00  9.000E+00
      21     1     1     2   511   516  7.579197842E+00  7.703281357E+00 -6.757098416E-01  1.082780529E+01  1.662665129E-07  0.00000E+00  9.000E+00
      21     1     1     2   515   512 -4.362924347E+00 -6.851102605E+00  1.511720576E+01  1.716107880E+01  2.384185791E-07  0.00000E+00  9.000E+00
       3     1     1     2   512     0 -3.216273495E+00 -8.521787525E-01  1.864096547E+00  3.846489277E+00  5.000000000E-01  0.00000E+00  9.000E+00
</event>
<event>
      5  10001  2.40292E+09  6.16022E+00 -1.00000E+00  2.23632E-01
      21    -1     0     0   513   516  0.000000000E+00  0.000000000E+00  5.425394552E+01  5.425394552E+01  0.000000000E+00  0.00000E+00  9.000E+00
      21    -1     0     0   514   515  0.000000000E+00  0.000000000E+00 -9.289059345E+00  9.289059345E+00  0.000000000E+00  0.00000E+00  9.000E+00
      21     1     1     2   514   511 -2.812268685E+00 -9.630999114E+00  6.554107305E+00  1.198421135E+01  2.064765462E-07  0.00000E+00  9.000E+00
      21     1     1     2   511   516 -3.296835359E+00  1.042293684E+01  4.268391998E+01  4.406159053E+01  6.743495762E-07  0.00000E+00  9.000E+00
      21     1     1     2   513   515  6.109104044E+00 -7.919377257E-01 -4.273141109E+00  7.497202980E+00  8.429369702E-08  0.00000E+00  9.000E+00
</event>
<event>
      5  10001  2.40292E+09  1.36120E+01 -1.00000E+00  1.81401E-01
      21    -1     0     0   512   511  0.000000000E+00  0.000000000E+00  1.018706985E+02  1.018706985E+02  0.000000000E+00  0.00000E+00  9.000E+00
      21    -1     0     0   517   512  0.000000000E+00  0.000000000E+00 -5.139429940E+00  5.139429940E+00  0.000000000E+00  0.00000E+00  9.000E+00
      21     1     1     2   517   514  2.167953961E+00  7.875705255E+00  9.606834028E-01  8.224941960E+00  2.418858272E-07  0.00000E+00  9.000E+00
       2     1     1     2   514     0  3.185904919E+00 -5.803812945E+00  9.119769022E+01  9.143829524E+01  3.300000131E-01  0.00000E+00  9.000E+00
      -2     1     1     2     0   511 -5.353858880E+00 -2.071892311E+00  4.572894913E+00  7.346891217E+00  3.300000131E-01  0.00000E+00  9.000E+00
</event>
<event>
      5  10001  2.40292E+09  9.01476E+00 -1.00000E+00  2.01051E-01
      21    -1     0     0   513   514  0.000000000E+00  0.000000000E+00  3.849154527E+00  3.849154527E+00  0.000000000E+00  0.00000E+00  9.000E+00
      21    -1     0     0   511   513  0.000000000E+00  0.000000000E+00 -2.637346914E+02  2.637346914E+02  0.000000000E+00  0.00000E+00  9.000E+00
      21     1     1     2   511   515  6.195593674E+00 -1.466526195E+01 -2.394843083E+02  2.400128938E+02  0.000000000E+00  0.00000E+00  9.000E+00
      -2     1     1     2     0   514 -7.902838574E+00  6.990216119E+00 -1.322008497E+01  1.691737348E+01  3.300000131E-01  0.00000E+00  9.000E+00
       2     1     1     2   515     0  1.707244901E+00  7.675045829E+00 -7.181143611E+00  1.065357861E+01  3.300000131E-01  0.00000E+00  9.000E+00
</event>
<event>
      5  10001  2.40292E+09  6.15217E+00 -1.00000E+00  2.23719E-01
      21    -1     0     0   512   515  0.000000000E+00  0.000000000E+00  5.091954058E+01  5.091954058E+01  0.000000000E+00  0.00000E+00  9.000E+00
      21    -1     0     0   511   516  0.000000000E+00  0.000000000E+00 -2.546387348E+00  2.546387348E+00  0.000000000E+00  0.00000E+00  9.000E+00
      21     1     1     2   512   516 -8.623438922E+00 -6.370462307E+00  3.085379083E+01  3.266347957E+01  0.000000000E+00  0.00000E+00  9.000E+00
      21     1     1     2   513   515  1.427310723E+00  1.035363110E+00  1.043996026E+00  2.049175535E+00  5.161913656E-08  0.00000E+00  9.000E+00
      21     1     1     2   511   513  7.196128199E+00  5.335099196E+00  1.647536638E+01  1.875327283E+01  0.000000000E+00  0.00000E+00  9.000E+00
</event>
<event>
      5  10001  2.40292E+09  7.42680E+00 -1.00000E+00  2.11915E-01
      21    -1     0     0   513   514  0.000000000E+00  0.000000000E+00  5.389048620E+00  5.389048620E+00  0.000000000E+00  0.00000E+00  9.000E+00
       3    -1     0     0   514     0  0.000000000E+00  0.000000000E+00 -5.248672078E+01  5.248672078E+01  0.000000000E+00  0.00000E+00  9.000E+00
      21     1     1     2   513   511 -2.757379782E+00 -1.172440454E+01 -4.927733518E+00  1.301335324E+01  1.332800375E-07  0.00000E+00  9.000E+00
       3     1     1     2   512     0  5.058138150E+00  5.301378984E+00 -3.024251769E+01  3.112152401E+01  5.000000000E-01  0.00000E+00  9.000E+00
      21     1     1     2   511   512 -2.300758367E+00  6.423025554E+00 -1.192742095E+01  1.374089214E+01  1.685873940E-07  0.00000E+00  9.000E+00
</event>
<event>
      5  10001  2.40292E+09  4.56393E+00 -1.00000E+00  2.50568E-01
      21    -1     0     0   515   512  0.000000000E+00  0.000000000E+00  4.442919764E+02  4.442919764E+02  0.000000000E+00  0.00000E+00  9.000E+00
      21    -1     0     0   511   513  0.000000000E+00  0.000000000E+00 -1.097239048E+00  1.097239048E+00  0.000000000E+00  0.00000E+00  9.000E+00
      21     1     1     2   515   516  2.618013825E+00 -1.157838712E+01  6.512362981E+01  6.619667820E+01  2.132480600E-06  0.00000E+00  9.000E+00
      21     1     1     2   511   512 -5.483334233E+00  8.026009933E+00  3.680806350E+02  3.682089592E+02  0.000000000E+00  0.00000E+00  9.000E+00
      21     1     1     2   516   513  2.865320407E+00  3.552377188E+00  9.990472561E+00  1.098357805E+01  3.769728732E-07  0.00000E+00  9.000E+00
</event>
<event>
      5  10001  2.40292E+09  8.06973E+00 -1.00000E+00  2.07113E-01
      21    -1     0     0   514   511  0.000000000E+00  0.000000000E+00  2.284728783E+01  2.284728783E+01  0.000000000E+00  0.00000E+00  9.000E+00
      21    -1     0     0   516   517  0.000000000E+00  0.000000000E+00 -2.905402559E+02  2.905402559E+02  0.000000000E+00  0.00000E+00  9.000E+00
      21     1     1     2   514   517  1.694202809E+00  1.009366362E+01  2.128349080E+01  2.361650586E+01  1.215700987E-06  0.00000E+00  9.000E+00
      21     1     1     2   516   512  5.126991907E+00 -7.896155179E+00 -2.475731049E+02  2.477520486E+02  2.697398305E-06  0.00000E+00  9.000E+00
      21     1     1     2   512   511 -6.821194717E+00 -2.197508441E+00 -4.140335394E+01  4.201898926E+01  4.768371582E-07  0.00000E+00  9.000E+00
</event>
<event>
      5  10001  2.40292E+09  3.17915E+00 -1.00000E+00  2.89296E-01
      -2    -1     0     0     0   511  0.000000000E+00  0.000000000E+00  8.690811364E+01  8.690811364E+01  0.000000000E+00  0.00000E+00  9.000E+00
       1    -1     0     0   511     0  0.000000000E+00  0.000000000E+00 -1.888901278E+00  1.888901278E+00  0.000000000E+00  0.00000E+00  9.000E+00
      -2     1     1     2     0   513 -2.658471159E+00 -4.092312442E+00  3.477649751E+01  3.511877231E+01  3.300000131E-01  0.00000E+00  9.000E+00
       1     1     1     2   512     0  7.817090652E+00  7.735944675E+00  2.043538227E+01  2.320916834E+01  3.300000131E-01  0.00000E+00  9.000E+00
      21     1     1     2   513   512 -5.158619493E+00 -3.643632233E+00  2.980733259E+01  3.046907427E+01  0.000000000E+00  0.00000E+00  9.000E+00
</event>
<event>
      5  10001  2.40292E+09  3.23809E+00 -1.00000E+00  2.87023E-01
      21    -1     0     0   514   516  0.000000000E+00  0.000000000E+00  2.617242589E+01  2.617242589E+01  0.000000000E+00  0.00000E+00  9.000E+00
      21    -1     0     0   511   515  0.000000000E+00  0.000000000E+00 -2.264223776E+01  2.264223776E+01  0.000000000E+00  0.00000E+00  9.000E+00
      21     1     1     2   514   515 -4.160846028E+00  1.025711804E+01  9.306045577E+00  1.446110627E+01  3.953724850E-07  0.00000E+00  9.000E+00
      21     1     1     2   511   512  9.805679636E-01 -9.647964999E+00 -1.868112135E+01  2.104825496E+01  4.768371582E-07  0.00000E+00  9.000E+00
      21     1     1     2   512   516  3.180278064E+00 -6.091530417E-01  1.290526390E+01  1.330530241E+01  1.685873940E-07  0.00000E+00  9.000E+00
</event>
<event>
      5  10001  2.40292E+09  2.08779E+01 -1.00000E+00  1.64803E-01
      21    -1     0     0   513   511  0.000000000E+00  0.000000000E+00  1.458998535E+00  1.458998535E+00  0.000000000E+00  0.00000E+00  9.000E+00
      21    -1     0     0   517   516  0.000000000E+00  0.000000000E+00 -2.132947561E+02  2.132947561E+02  0.000000000E+00  0.00000E+00  9.000E+00
      21     1     1     2   513   516 -2.198162637E+00  1.162199354E+01 -3.262525250E+01  3.470316633E+01  0.000000000E+00  0.00000E+00  9.000E+00
      21     1     1     2   514   511  5.012987182E+00 -1.896457633E+00 -2.844783959E+01  2.894833621E+01  3.371747881E-07  0.00000E+00  9.000E+00
      21     1     1     2   517   514 -2.814824546E+00 -9.725535906E+00 -1.507626655E+02  1.511022521E+02  2.697398305E-06  0.00000E+00  9.000E+00
</event>
<event>
      5  10001  2.40292E+09  6.52577E+00 -1.00000E+00  2.19877E-01
      21    -1     0     0   512   511  0.000000000E+00  0.000000000E+00  1.282649143E+02  1.282649143E+02  0.000000000E+00  0.00000E+00  9.000E+00
      21    -1     0     0   515   513  0.000000000E+00  0.000000000E+00 -1.113658727E+02  1.113658727E+02  0.000000000E+00  0.00000E+00  9.000E+00
      21     1     1     2   514   511  1.457539192E+01 -4.795620621E+00  1.059489366E+02  1.070542722E+02  1.907348633E-06  0.00000E+00  9.000E+00
      21     1     1     2   515   514 -1.364873519E+01 -1.664022221E+00  1.948374182E+01  2.384686851E+01  5.840038640E-07  0.00000E+00  9.000E+00
      21     1     1     2   512   513 -9.266567239E-01  6.459642841E+00 -1.085336368E+02  1.087296463E+02  1.907348633E-06  0.00000E+00  9.000E+00
</event>
<event>
      5  10001  2.40292E+09  6.27843E+00 -1.00000E+00  2.22379E-01
      21    -1     0     0   516   513  0.000000000E+00  0.000000000E+00  9.079681977E+01  9.079681977E+01  0.000000000E+00  0.00000E+00  9.000E+00
      21    -1     0     0   511   517  0.000000000E+00  0.000000000E+00 -1.075928707E+01  1.075928707E+01  0.000000000E+00  0.00000E+00  9.000E+00
      21     1     1     2   516   517 -5.233226113E+00  8.265702021E+00 -7.756833109E+00  1.248506890E+01  3.039252468E-07  0.00000E+00  9.000E+00
      21     1     1     2   511   514  7.660524562E+00 -3.504966291E+00  6.960503254E+01  7.011297298E+01  9.536743164E-07  0.00000E+00  9.000E+00
      21     1     1     2   514   513 -2.427298449E+00 -4.760735730E+00  1.818933326E+01  1.895806496E+01  2.384185791E-07  0.00000E+00  9.000E+00
</event>
<event>
      5  10001  2.40292E+09  7.15773E+00 -1.00000E+00  2.14125E-01
      21    -1     0     0   511   513  0.000000000E+00  0.000000000E+00  4.282819129E-01  4.282819129E-01  0.000000000E+00  0.00000E+00  9.000E+00
       2    -1     0     0   513     0  0.000000000E+00  0.000000000E+00 -3.123264073E+02  3.123264073E+02  0.000000000E+00  0.00000E+00  9.000E+00
      21     1     1     2   511   512  9.290939262E+00  3.711043830E+00 -8.590180767E+01  8.648244885E+01  0.000000000E+00  0.00000E+00  9.000E+00
      21     1     1     2   512   515 -3.548746785E+00  1.042185277E+00 -7.028405559E+01  7.038130593E+01  9.536743164E-07  0.00000E+00  9.000E+00
       2     1     1     2   515     0 -5.742192477E+00 -4.753229107E+00 -1.557122622E+02  1.558909345E+02  3.300000131E-01  0.00000E+00  9.000E+00
</event>
<event>
      5  10001  2.40292E+09  5.16508E+00 -1.00000E+00  2.35991E-01
      -2    -1     0     0     0   512  0.000000000E+00  0.000000000E+00  5.572151066E+01  5.572151066E+01  0.000000000E+00  0.00000E+00  9.000E+00
      21    -1     0     0   513   516  0.000000000E+00  0.000000000E+00 -1.915491052E+01  1.915491052E+01  0.000000000E+00  0.00000E+00  9.000E+00
      21     1     1     2   514   516  8.661640974E-01  1.435781792E+01 -4.161145894E+00  1.497372068E+01  1.685873940E-07  0.00000E+00  9.000E+00
      21     1     1     2   513   512 -3.029837687E-01 -9.223681112E+00 -7.194583126E+00  1.170171435E+01  2.528810911E-07  0.00000E+00  9.000E+00
      -2     1     1     2     0   514 -5.631803287E-01 -5.134136812E+00  4.792232917E+01  4.820098615E+01  3.300000131E-01  0.00000E+00  9.000E+00
</event>
<event>
      5  10001  2.40292E+09  6.56052E+00 -1.00000E+00  2.19538E-01
      21    -1     0     0   511   513  0.000000000E+00  0.000000000E+00  1.643752763E+02  1.643752763E+02  0.000000000E+00  0.00000E+00  9.000E+00
      21    -1     0     0   515   511  0.000000000E+00  0.000000000E+00 -2.598820213E+01  2.598820213E+01  0.000000000E+00  0.00000E+00  9.000E+00
      21     1     1     2   515   514  9.596384931E+00  5.694556759E+00 -2.381295478E+01  2.629782112E+01  8.920806376E-07  0.00000E+00  9.000E+00
      21     1     1     2   514   512 -5.328524434E+00 -8.724097207E+00  1.539920761E+02  1.543310162E+02  3.303624740E-06  0.00000E+00  9.000E+00
      21     1     1     2   512   513 -4.267860497E+00  3.029540448E+00  8.207952842E+00  9.734641154E+00  2.064765462E-07  0.00000E+00  9.000E+00
</event>
<event>
      5  10001  2.40292E+09  6.58392E+00 -1.00000E+00  2.19311E-01
      21    -1     0     0   516   514  0.000000000E+00  0.000000000E+00  1.609860695E+01  1.609860695E+01  0.000000000E+00  0.00000E+00  9.000E+00
      21    -1     0     0   513   516  0.000000000E+00  0.000000000E+00 -1.514892385E+01  1.514892385E+01  0.000000000E+00  0.00000E+00  9.000E+00
      21     1     1     2   513   515  6.523135531E+00 -7.650964039E+00 -9.111715601E+00  1.356878436E+01  1.192092896E-07  0.00000E+00  9.000E+00
      21     1     1     2   515   511 -1.824849482E+00  6.574036992E+00  1.082784755E+01  1.279805925E+01  0.000000000E+00  0.00000E+00  9.000E+00
      21     1     1     2   511   514 -4.698286048E+00  1.076927048E+00 -7.664488496E-01  4.880687195E+00  1.079691704E-07  0.00000E+00  9.000E+00
</event>
<event>
      5  10001  2.40292E+09  6.19302E+00 -1.00000E+00  2.23280E-01
      21    -1     0     0   516   515  0.000000000E+00  0.000000000E+00  1.085824604E+01  1.085824604E+01  0.000000000E+00  0.00000E+00  9.000E+00
      21    -1     0     0   513   514  0.000000000E+00  0.000000000E+00 -2.444488254E+02  2.444488254E+02  0.000000000E+00  0.00000E+00  9.000E+00
      21     1     1     2   512   514 -1.200312107E+01 -1.030902720E+01 -6.363008900E+01  6.556782125E+01  0.000000000E+00  0.00000E+00  9.000E+00
      21     1     1     2   513   515  6.304993607E+00  7.883170559E+00 -1.787237208E+02  1.790085632E+02  3.814697266E-06  0.00000E+00  9.000E+00
      21     1     1     2   516   512  5.698127466E+00  2.425856646E+00  8.763230400E+00  1.073068703E+01  4.616955931E-07  0.00000E+00  9.000E+00
</event>
<event>
      5  10001  2.40292E+09  1.09998E+01 -1.00000E+00  1.91036E-01
      21    -1     0     0   511   513  0.000000000E+00  0.000000000E+00  7.614154059E+01  7.614154059E+01  0.000000000E+00  0.00000E+00  9.000E+00
      21    -1     0     0   517   511  0.000000000E+00  0.000000000E+00 -4.520128626E+01  4.520128626E+01  0.000000000E+00  0.00000E+00  9.000E+00
      21     1     1     2   517   512  1.030740592E+01 -2.489761931E+00 -4.392304403E+01  4.518490155E+01  8.259061849E-07  0.00000E+00  9.000E+00
      21     1     1     2   512   514 -7.672814870E+00 -1.734813468E+00  2.981384547E+01  3.083418635E+01  4.768371582E-07  0.00000E+00  9.000E+00
      21     1     1     2   514   513 -2.634591053E+00  4.224575399E+00  4.504945288E+01  4.532373895E+01  6.743495762E-07  0.00000E+00  9.000E+00
</event>
<event>
      5  10001  2.40292E+09  4.25153E+00 -1.00000E+00  2.57279E-01
       2    -1     0     0   515     0  0.000000000E+00  0.000000000E+00  3.884222690E+02  3.884222690E+02  0.000000000E+00  0.00000E+00  9.000E+00
      21    -1     0     0   514   511  0.000000000E+00  0.000000000E+00 -5.962799747E+00  5.962799747E+00  0.000000000E+00  0.00000E+00  9.000E+00
      21     1     1     2   512   511 -6.599023290E+00  7.551100377E+00 -1.281659821E+00  1.010984061E+01  1.290478414E-07  0.00000E+00  9.000E+00
       2     1     1     2   514     0  4.063575566E+00 -1.096371934E+01  1.372819090E+02  1.377793425E+02  3.300000131E-01  0.00000E+00  9.000E+00
      21     1     1     2   515   512  2.535447724E+00  3.412618965E+00  2.464592201E+02  2.464958856E+02  0.000000000E+00  0.00000E+00  9.000E+00
</event>
<event>
      5  10001 -2.40292E+09  8.14412E+00 -1.00000E+00  2.06596E-01
      21    -1     0     0   514   511  0.000000000E+00  0.000000000E+00  7.998616349E+01  7.998616349E+01  0.000000000E+00  0.00000E+00  9.000E+00
      21    -1     0     0   516   512  0.000000000E+00  0.000000000E+00 -3.699635187E+02  3.699635187E+02  0.000000000E+00  0.00000E+00  9.000E+00
      21     1     1     2   513   512  1.836951800E+00  9.747588727E+00 -3.675111255E+02  3.676449608E+02  5.394796609E-06  0.00000E+00  9.000E+00
      21     1     1     2   516   511 -3.515961855E+00 -1.771675452E+01  6.408944591E+01  6.658605301E+01  0.000000000E+00  0.00000E+00  9.000E+00
      21     1     1     2   514   513  1.679010055E+00  7.969165796E+00  1.344432434E+01  1.571866836E+01  3.769728732E-07  0.00000E+00  9.000E+00
</event>
<event>
      5  10001  2.40292E+09  6.09809E+00 -1.00000E+00  2.24306E-01
      21    -1     0     0   515   511  0.000000000E+00  0.000000000E+00  1.090068507E+01  1.090068507E+01  0.000000000E+00  0.00000E+00  9.000E+00
      21    -1     0     0   517   515  0.000000000E+00  0.000000000E+00 -2.153331394E+01  2.153331394E+01  0.000000000E+00  0.00000E+00  9.000E+00
      21     1     1     2   516   511  7.017511777E+00  8.242702457E+00  6.036791664E+00  1.239477587E+01  1.685873940E-07  0.00000E+00  9.000E+00
      21     1     1     2   517   512 -2.315857937E-01 -1.135175099E+00 -2.900171118E+00  3.123018892E+00  4.214684851E-08  0.00000E+00  9.000E+00
      21     1     1     2   512   516 -6.785925983E+00 -7.107527358E+00 -1.376924941E+01  1.691620424E+01  1.685873940E-07  0.00000E+00  9.000E+00
</event>
<event>
      5  10001  2.40292E+09  4.63271E+00 -1.00000E+00  2.49199E-01
       2    -1     0     0   514     0  0.000000000E+00  0.000000000E+00  2.831785197E+00  2.831785197E+00  0.000000000E+00  0.00000E+00  9.000E+00
      21    -1     0     0   512   513  0.000000000E+00  0.000000000E+00 -1.897959776E+02  1.897959776E+02  0.000000000E+00  0.00000E+00  9.000E+00
      21     1     1     2   514   511  7.119152656E-01  8.519703440E+00 -1.031592498E+02  1.035129122E+02  1.348699152E-06  0.00000E+00  9.000E+00
       2     1     1     2   512     0 -3.266939186E+00 -1.035152269E+01 -8.622290360E+00  1.386649576E+01  3.300000131E-01  0.00000E+00  9.000E+00
      21     1     1     2   511   513  2.555023920E+00  1.831819252E+00 -7.518265221E+01  7.524835482E+01  9.536743164E-07  0.00000E+00  9.000E+00
</event>
<event>
      5  10001  2.40292E+09  2.65230E+00 -1.00000E+00  3.13949E-01
      21    -1     0     0   515   514  0.000000000E+00  0.000000000E+00  9.257520110E+00  9.257520110E+00  0.000000000E+00  0.00000E+00  9.000E+00
       1    -1     0     0   511     0  0.000000000E+00  0.000000000E+00 -5.089563086E+01  5.089563086E+01  0.000000000E+00  0.00000E+00  9.000E+00
      21     1     1     2   511   512  6.904211274E+00 -7.900328312E+00  1.053083978E+00  1.054477627E+01  2.388837865E-07  0.00000E+00  9.000E+00
       1     1     1     2   515     0 -4.515293440E+00  9.052256423E+00 -4.498030278E+01  4.610496458E+01  3.300000131E-01  0.00000E+00  9.000E+00
      21     1     1     2   512   514 -2.388917834E+00 -1.151928111E+00  2.289108049E+00  3.503410117E+00  5.960464478E-08  0.00000E+00  9.000E+00
</event>
<event>
      5  10001  2.40292E+09  1.13524E+01 -1.00000E+00  1.89543E-01
       1    -1     0     0   515     0  0.000000000E+00  0.000000000E+00  1.502971700E+02  1.502971700E+02  0.000000000E+00  0.00000E+00  9.000E+00
      21    -1     0     0   512   515  0.000000000E+00  0.000000000E+00 -7.315732234E+00  7.315732234E+00  0.000000000E+00  0.00000E+00  9.000E+00
      21     1     1     2   511   513  4.775388826E+00 -7.952341379E+00 -2.159990411E+00  9.524160353E+00  2.402740046E-07  0.00000E+00  9.000E+00
       1     1     1     2   513     0 -4.719227119E+00  1.675159702E+01  1.235951366E+02  1.248148781E+02  3.300000131E-01  0.00000E+00  9.000E+00
      21     1     1     2   512   511 -5.616170683E-02 -8.799255636E+00  2.154629153E+01  2.327386373E+01  0.000000000E+00  0.00000E+00  9.000E+00
</event>
<event>
      5  10001  2.40292E+09  8.55885E+00 -1.00000E+00  2.03845E-01
      21    -1     0     0   511   512  0.000000000E+00  0.000000000E+00  5.914589503E+01  5.914589503E+01  0.000000000E+00  0.00000E+00  9.000E+00
      -2    -1     0     0     0   511  0.000000000E+00  0.000000000E+00 -1.106236249E+02  1.106236249E+02  0.000000000E+00  0.00000E+00  9.000E+00
      -2     1     1     2     0   513  4.575105620E+00  3.998339616E+00 -9.439217821E+01  9.458810982E+01  3.300000131E-01  0.00000E+00  9.000E+00
      21     1     1     2   514   512 -1.321660091E+01 -3.437454197E+00  5.701848342E+01  5.863106755E+01  1.507891493E-06  0.00000E+00  9.000E+00
      21     1     1     2   513   514  8.641495286E+00 -5.608854194E-01 -1.410403513E+01  1.655034260E+01  2.384185791E-07  0.00000E+00  9.000E+00
</event>
<event>
      5  10001  2.40292E+09  4.09055E+00 -1.00000E+00  2.61094E-01
      21    -1     0     0   515   514  0.000000000E+00  0.000000000E+00  1.800840107E+01  1.800840107E+01  0.000000000E+00  0.00000E+00  9.000E+00
      21    -1     0     0   513   516  0.000000000E+00  0.000000000E+00 -3.360733649E+02  3.360733649E+02  0.000000000E+00  0.00000E+00  9.000E+00
      21     1     1     2   515   516 -1.873803972E+01  1.562721603E+00 -3.281308903E+02  3.286691914E+02  3.814697266E-06  0.00000E+00  9.000E+00
      21     1     1     2   511   514  1.448996915E+01  4.150570080E-01  1.333699540E+01  1.969789137E+01  1.884864366E-06  0.00000E+00  9.000E+00
      21     1     1     2   513   511  4.248070569E+00 -1.977778611E+00 -3.271068969E+00  5.714683193E+00  1.685873940E-07  0.00000E+00  9.000E+00
</event>
<event>
      5  10001  2.40292E+09  6.36828E+00 -1.00000E+00  2.21452E-01
      21    -1     0     0   512   514  0.000000000E+00  0.000000000E+00  9.240995769E+00  9.240995769E+00  0.000000000E+00  0.00000E+00  9.000E+00
      21    -1     0     0   513   512  0.000000000E+00  0.000000000E+00 -2.600261806E+02  2.600261806E+02  0.000000000E+00  0.00000E+00  9.000E+00
      21     1     1     2   511   514  9.931750778E+00  4.452460676E-01  6.327505171E+00  1.178453390E+01  5.717076687E-07  0.00000E+00  9.000E+00
      21     1     1     2   513   515 -2.859701403E+00  1.030069810E+00 -1.815386161E+02  1.815640605E+02  3.814697266E-06  0.00000E+00  9.000E+00
      21     1     1     2   515   511 -7.072049375E+00 -1.475315877E+00 -7.557407383E+01  7.591858188E+01  1.348699152E-06  0.00000E+00  9.000E+00
</event>
<event>
      5  10001  2.40292E+09  7.34752E+00 -1.00000E+00  2.12553E-01
      21    -1     0     0   516   513  0.000000000E+00  0.000000000E+00  6.190606174E+02  6.190606174E+02  0.000000000E+00  0.00000E+00  9.000E+00
      21    -1     0     0   514   511  0.000000000E+00  0.000000000E+00 -1.637146257E+00  1.637146257E+00  0.000000000E+00  0.00000E+00  9.000E+00
      21     1     1     2   516   511 -5.354540937E+00  8.364453705E+00  5.770145990E+02  5.771000630E+02  1.078959322E-05  0.00000E+00  9.000E+00
      21     1     1     2   514   512  9.450751061E+00 -5.218152380E+00  2.244966228E+01  2.491050274E+01  6.307962682E-07  0.00000E+00  9.000E+00
      21     1     1     2   512   513 -4.096210124E+00 -3.146301324E+00  1.795920987E+01  1.868719798E+01  6.743495762E-07  0.00000E+00  9.000E+00
</event>
<event>
      5  10001  2.40292E+09  5.22872E+00 -1.00000E+00  2.35086E-01
      21    -1     0     0   514   511  0.000000000E+00  0.000000000E+00  2.392887738E+02  2.392887738E+02  0.000000000E+00  0.00000E+00  9.000E+00
       3    -1     0     0   513     0  0.000000000E+00  0.000000000E+00 -2.516792123E+01  2.516792123E+01  0.000000000E+00  0.00000E+00  9.000E+00
      21     1     1     2   514   512 -9.413463538E+00  4.151764931E+00  1.707729412E+01  1.993701137E+01  0.000000000E+00  0.00000E+00  9.000E+00
       3     1     1     2   512     0  6.941397979E+00 -8.759134057E+00 -2.238709974E+01  2.502673910E+01  5.000000000E-01  0.00000E+00  9.000E+00
      21     1     1     2   513   511  2.472065559E+00  4.607369127E+00  2.194306582E+02  2.194929445E+02  2.697398305E-06  0.00000E+00  9.000E+00
</event>
<event>
      5  10001  2.40292E+09  8.71621E+00 -1.00000E+00  2.02855E-01
      21    -1     0     0   514   512  0.000000000E+00  0.000000000E+00  1.620440740E+01  1.620440740E+01  0.000000000E+00  0.00000E+00  9.000E+00
      21    -1     0     0   513   511  0.000000000E+00  0.000000000E+00 -3.444184204E+01  3.444184204E+01  0.000000000E+00  0.00000E+00  9.000E+00
      21     1     1     2   515   511  7.511693381E+00 -1.188973215E+00 -1.773888173E+01  1.930044352E+01  4.129530925E-07  0.00000E+00  9.000E+00
      21     1     1     2   513   512 -1.266830475E+01  8.216183279E+00 -1.026294546E+01  1.825704418E+01  2.920019320E-07  0.00000E+00  9.000E+00
      21     1     1     2   514   515  5.156611370E+00 -7.027210064E+00  9.764392552E+00  1.308876174E+01  2.920019320E-07  0.00000E+00  9.000E+00
</event>
<event>
      5  10001  2.40292E+09  2.05712E+01 -1.00000E+00  1.65325E-01
      21    -1     0     0   516   512  0.000000000E+00  0.000000000E+00  2.921217230E+02  2.921217230E+02  0.000000000E+00  0.00000E+00  9.000E+00
       1    -1     0     0   513     0  0.000000000E+00  0.000000000E+00 -3.347286532E+02  3.347286532E+02  0.000000000E+00  0.00000E+00  9.000E+00
      21     1     1     2   511   512  9.058403852E+00 -7.184810806E+00  2.846815620E+02  2.849162472E+02  3.814697266E-06  0.00000E+00  9.000E+00
       1     1     1     2   516     0 -2.379053654E+01  7.254888845E+00 -3.262158600E+02  3.271628330E+02  3.300000131E-01  0.00000E+00  9.000E+00
      21     1     1     2   513   511  1.473213268E+01 -7.007803916E-02 -1.072632200E+00  1.477129596E+01  2.117852927E-07  0.00000E+00  9.000E+00
</event>
<event>
      5  10001  2.40292E+09  5.02601E+00 -1.00000E+00  2.38035E-01
      21    -1     0     0   514   512  0.000000000E+00  0.000000000E+00  2.770881185E+01  2.770881185E+01  0.000000000E+00  0.00000E+00  9.000E+00
      21    -1     0     0   513   514  0.000000000E+00  0.000000000E+00 -7.661088046E+00  7.661088046E+00  0.000000000E+00  0.00000E+00  9.000E+00
      21     1     1     2   513   511 -5.101546731E+00  9.296698962E+00 -4.908251175E-01  1.061580425E+01  1.735361621E-07  0.00000E+00  9.000E+00
      21     1     1     2   515   512  5.113616402E+00 -5.683739776E+00  1.957460549E+01  2.101473651E+01  2.384185791E-07  0.00000E+00  9.000E+00
      21     1     1     2   511   515 -1.206967106E-02 -3.612959186E+00  9.639434259E-01  3.739359127E+00  5.674193133E-08  0.00000E+00  9.000E+00
</event>
<event>
      5  10001  2.40292E+09  1.50485E+01 -1.00000E+00  1.77204E-01
      21    -1     0     0   513   512  0.000000000E+00  0.000000000E+00  2.480531149E+01  2.480531149E+01  0.000000000E+00  0.00000E+00  9.000E+00
       2    -1     0     0   511     0  0.000000000E+00  0.000000000E+00 -1.721074210E+02  1.721074210E+02  0.000000000E+00  0.00000E+00  9.000E+00
      21     1     1     2   511   512  8.337685632E+00  2.058859036E+01 -1.159803646E+01  2.505836197E+01  2.384185791E-07  0.00000E+00  9.000E+00
       2     1     1     2   516     0 -2.314359289E+01 -1.789793998E+01 -1.489562198E+02  1.518025905E+02  3.300000131E-01  0.00000E+00  9.000E+00
      21     1     1     2   513   516  1.480590725E+01 -2.690650379E+00  1.325214678E+01  2.005178005E+01  2.920019320E-07  0.00000E+00  9.000E+00
</event>
<event>
      5  10001  2.40292E+09  5.18491E+00 -1.00000E+00  2.35707E-01
       3    -1     0     0   513     0  0.000000000E+00  0.000000000E+00  7.838028000E-01  7.838028000E-01  0.000000000E+00  0.00000E+00  9.000E+00
       2    -1     0     0   511     0  0.000000000E+00  0.000000000E+00 -1.196320384E+03  1.196320384E+03  0.000000000E+00  0.00000E+00  9.000E+00
       2     1     1     2   513     0 -8.695306186E+00 -6.720513858E+00 -1.145937488E+03  1.145990230E+03  3.300000131E-01  0.00000E+00  9.000E+00
       3     1     1     2   512     0  7.303893773E+00  2.869335339E+00 -3.822069245E+01  3.902116453E+01  5.000000000E-01  0.00000E+00  9.000E+00
      21     1     1     2   511   512  1.391412413E+00  3.851178519E+00 -1.137840152E+01  1.209279230E+01  3.769728732E-07  0.00000E+00  9.000E+00
</event>
<event>
      5  10001  2.40292E+09  5.14035E+00 -1.00000E+00  2.36348E-01
       4    -1     0     0   511     0  0.000000000E+00  0.000000000E+00  1.357330811E+01  1.357330811E+01  0.000000000E+00  0.00000E+00  9.000E+00
      21    -1     0     0   513   512  0.000000000E+00  0.000000000E+00 -4.051958084E+01  4.051958084E+01  0.000000000E+00  0.00000E+00  9.000E+00
      21     1     1     2   511   512  1.550611467E+01  7.302085333E+00 -1.415327510E+01  2.222780327E+01  4.460403188E-07  0.00000E+00  9.000E+00
       4     1     1     2   514     0 -1.501220115E+01 -1.241292862E+01 -1.662921693E+00  1.960770993E+01  1.500000000E+00  0.00000E+00  9.000E+00
      21     1     1     2   513   514 -4.939135199E-01  5.110843287E+00 -1.113007595E+01  1.225737575E+01  1.685873940E-07  0.00000E+00  9.000E+00
</event>
<event>
      5  10001  2.40292E+09  4.79983E+00 -1.00000E+00  2.46018E-01
      21    -1     0     0   515   512  0.000000000E+00  0.000000000E+00  1.330262201E+02  1.330262201E+02  0.000000000E+00  0.00000E+00  9.000E+00
      21    -1     0     0   513   511  0.000000000E+00  0.000000000E+00 -1.145828024E+01  1.145828024E+01  0.000000000E+00  0.00000E+00  9.000E+00
      21     1     1     2   513   516 -8.768514039E+00 -4.110481832E+00 -7.345274792E+00  1.215466828E+01  4.298152060E-07  0.00000E+00  9.000E+00
      21     1     1     2   516   512  1.347965028E+01  5.028915045E+00  1.257748884E+02  1.265950770E+02  1.348699152E-06  0.00000E+00  9.000E+00
      21     1     1     2   515   511 -4.711136240E+00 -9.184332130E-01  3.138326220E+00  5.734755069E+00  7.300048300E-08  0.00000E+00  9.000E+00
</event>
<event>
      5  10001  2.40292E+09  7.71065E+00 -1.00000E+00  2.09717E-01
      21    -1     0     0   515   512  0.000000000E+00  0.000000000E+00  5.578375132E+01  5.578375132E+01  0.000000000E+00  0.00000E+00  9.000E+00
      21    -1     0     0   514   511  0.000000000E+00  0.000000000E+00 -1.279376603E+01  1.279376603E+01  0.000000000E+00  0.00000E+00  9.000E+00
      21     1     1     2   515   511 -9.308970616E+00  8.372818963E+00 -7.452126107E+00  1.457035397E+01  4.842304232E-07  0.00000E+00  9.000E+00
       2     1     1     2   514     0  1.015644028E+01 -7.100116501E-01  1.822315672E+01  2.087701455E+01  3.300000131E-01  0.00000E+00  9.000E+00
      -2     1     1     2     0   512 -8.474696587E-01 -7.662807313E+00  3.221895468E+01  3.313014882E+01  3.300000131E-01  0.00000E+00  9.000E+00
</event>
<event>
      5  10001  2.40292E+09  5.42553E+00 -1.00000E+00  2.32398E-01
      -1    -1     0     0     0   512  0.000000000E+00  0.000000000E+00  1.458306808E+00  1.458306808E+00  0.000000000E+00  0.00000E+00  9.000E+00
       2    -1     0     0   512     0  0.000000000E+00  0.000000000E+00 -7.439891205E+02  7.439891205E+02  0.000000000E+00  0.00000E+00  9.000E+00
      -1     1     1     2     0   513  8.621635019E+00 -6.706996747E+00 -1.978530603E+01  2.260273502E+01  3.300000131E-01  0.00000E+00  9.000E+00
      21     1     1     2   513   511 -5.850501385E+00  4.117037977E+00 -3.141431093E+02  3.142245559E+02  3.814697266E-06  0.00000E+00  9.000E+00
       2     1     1     2   511     0 -2.771133634E+00  2.589958770E+00 -4.086023983E+02  4.086201364E+02  3.300000131E-01  0.00000E+00  9.000E+00
</event>
<event>
      5  10001  2.40292E+09  1.55865E+01 -1.00000E+00  1.75782E-01
      -2    -1     0     0     0   514  0.000000000E+00  0.000000000E+00  2.388901229E+00  2.388901229E+00  0.000000000E+00  0.00000E+00  9.000E+00
      21    -1     0     0   511   515  0.000000000E+00  0.000000000E+00 -4.831905450E+01  4.831905450E+01  0.000000000E+00  0.00000E+00  9.000E+00
      -2     1     1     2     0   512  2.835882462E+00 -1.474205646E+00 -5.440058167E-01  3.258888455E+00  3.300000131E-01  0.00000E+00  9.000E+00
      21     1     1     2   511   514 -6.064529995E+00  1.706442622E-01 -8.748314965E+00  1.064615697E+01  1.685873940E-07  0.00000E+00  9.000E+00
      21     1     1     2   512   515  3.228647533E+00  1.303561384E+00 -3.663783249E+01  3.680291030E+01  4.768371582E-07  0.00000E+00  9.000E+00
</event>
<event>
      5  10001  2.40292E+09  7.22481E+00 -1.00000E+00  2.13561E-01
      21    -1     0     0   513   514  0.000000000E+00  0.000000000E+00  1.194540804E+01  1.194540804E+01  0.000000000E+00  0.00000E+00  9.000E+00
       1    -1     0     0   512     0  0.000000000E+00  0.000000000E+00 -9.553218571E+01  9.553218571E+01  0.000000000E+00  0.00000E+00  9.000E+00
      21     1     1     2   512   511 -1.059747646E+01 -6.149004829E-01 -6.059261541E+00  1.222289901E+01  2.665600750E-07  0.00000E+00  9.000E+00
       1     1     1     2   513     0  1.420326288E+01 -5.645577689E+00 -8.410577023E+01  8.548388567E+01  3.300000131E-01  0.00000E+00  9.000E+00
      21     1     1     2   511   514 -3.605786418E+00  6.260478172E+00  6.578254109E+00  9.770809063E+00  2.230201594E-07  0.00000E+00  9.000E+00
</event>
<event>
      5  10001  2.40292E+09  8.63279E+00 -1.00000E+00  2.03377E-01
      21    -1     0     0   515   512  0.000000000E+00  0.000000000E+00  5.439150481E+01  5.439150481E+01  0.000000000E+00  0.00000E+00  9.000E+00
      21    -1     0     0   511   514  0.000000000E+00  0.000000000E+00 -3.166166771E+00  3.166166771E+00  0.000000000E+00  0.00000E+00  9.000E+00
      21     1     1     2   515   514 -1.117307703E+01 -6.135670085E-01  1.827802053E+01  2.143128903E+01  2.384185791E-07  0.00000E+00  9.000E+00
      21     1     1     2   511   513  7.479173972E+00  1.133887779E-01  8.196959288E+00  1.109689334E+01  1.192092896E-07  0.00000E+00  9.000E+00
      21     1     1     2   513   512  3.693903060E+00  5.001782307E-01  2.475035822E+01  2.502948921E+01  3.371747881E-07  0.00000E+00  9.000E+00
</event>
<event>
      5  10001  2.40292E+09  9.85178E+00 -1.00000E+00  1.96451E-01
      21    -1     0     0   516   511  0.000000000E+00  0.000000000E+00  6.583293675E+00  6.583293675E+00  0.000000000E+00  0.00000E+00  9.000E+00
      21    -1     0     0   517   512  0.000000000E+00  0.000000000E+00 -2.452923095E+01  2.452923095E+01  0.000000000E+00  0.00000E+00  9.000E+00
      21     1     1     2   516   512  1.115246072E+01  4.674955215E+00 -9.389033459E+00  1.530968764E+01  1.685873940E-07  0.00000E+00  9.000E+00
      -2     1     1     2     0   511 -1.745614230E+00 -1.780006973E+00 -4.494137337E+00  5.149928570E+00  3.300000131E-01  0.00000E+00  9.000E+00
       2     1     1     2   517     0 -9.406846489E+00 -2.894948242E+00 -4.062766478E+00  1.065290841E+01  3.300000131E-01  0.00000E+00  9.000E+00
</event>
<event>
      5  10001  2.40292E+09  1.04282E+01 -1.00000E+00  1.93619E-01
      21    -1     0     0   513   512  0.000000000E+00  0.000000000E+00  9.372187213E-01  9.372187213E-01  0.000000000E+00  0.00000E+00  9.000E+00
      21    -1     0     0   515   514  0.000000000E+00  0.000000000E+00 -1.427651075E+02  1.427651075E+02  0.000000000E+00  0.00000E+00  9.000E+00
      21     1     1     2   513   514 -7.835325801E+00 -4.977248660E+00 -3.824568809E+01  3.935604137E+01  4.768371582E-07  0.00000E+00  9.000E+00
      21     1     1     2   511   512  3.864996498E+00  2.449079277E+00 -1.610052144E+01  1.673806972E+01  2.384185791E-07  0.00000E+00  9.000E+00
      21     1     1     2   515   511  3.970329303E+00  2.528169383E+00 -8.748167930E+01  8.760821518E+01  9.536743164E-07  0.00000E+00  9.000E+00
</event>
<event>
      5  10001  2.40292E+09  9.06836E+00 -1.00000E+00  2.00737E-01
      21    -1     0     0   516   511  0.000000000E+00  0.000000000E+00  7.384485370E+01  7.384485370E+01  0.000000000E+00  0.00000E+00  9.000E+00
      21    -1     0     0   515   517  0.000000000E+00  0.000000000E+00 -8.849816177E+01  8.849816177E+01  0.000000000E+00  0.00000E+00  9.000E+00
      21     1     1     2   516   517  9.308856021E+00  8.744555649E+00 -8.670060845E+01  8.763627993E+01  9.536743164E-07  0.00000E+00  9.000E+00
      -3     1     1     2     0   511 -1.337794166E+01 -5.293960794E+00  5.283799446E+01  5.476403019E+01  5.000000000E-01  0.00000E+00  9.000E+00
       3     1     1     2   515     0  4.069085637E+00 -3.450594855E+00  1.920930592E+01  1.994270535E+01  5.000000000E-01  0.00000E+00  9.000E+00
</event>
<event>
      5  10001  2.40292E+09  5.65623E+00 -1.00000E+00  2.29445E-01
      21    -1     0     0   512   515  0.000000000E+00  0.000000000E+00  1.333376563E+02  1.333376563E+02  0.000000000E+00  0.00000E+00  9.000E+00
      21    -1     0     0   514   513  0.000000000E+00  0.000000000E+00 -8.535946196E+00  8.535946196E+00  0.000000000E+00  0.00000E+00  9.000E+00
      21     1     1     2   512   513  9.109991249E+00  4.467195505E+00  1.294269944E+02  1.298240912E+02  0.000000000E+00  0.00000E+00  9.000E+00
      21     1     1     2   511   515 -5.576738105E+00 -8.723195308E-01 -7.556619726E-01  5.694907749E+00  3.648502990E-07  0.00000E+00  9.000E+00
      21     1     1     2   514   511 -3.533253144E+00 -3.594875974E+00 -3.869622239E+00  6.354603632E+00  3.650024150E-07  0.00000E+00  9.000E+00
</event>
<event>
      5  10001  2.40292E+09  8.49476E+00 -1.00000E+00  2.04257E-01
      21    -1     0     0   516   511  0.000000000E+00  0.000000000E+00  1.085227133E+02  1.085227133E+02  0.000000000E+00  0.00000E+00  9.000E+00
      21    -1     0     0   514   517  0.000000000E+00  0.000000000E+00 -2.564365807E+00  2.564365807E+00  0.000000000E+00  0.00000E+00  9.000E+00
      21     1     1     2   516   517 -7.662838190E+00 -2.161377665E+00  7.741434379E+01  7.782269121E+01  1.348699152E-06  0.00000E+00  9.000E+00
      21     1     1     2   514   512  4.999991032E+00  8.512086260E-01  5.366499322E-01  5.100241131E+00  2.310881379E-07  0.00000E+00  9.000E+00
      21     1     1     2   512   511  2.662847159E+00  1.310169039E+00  2.800735374E+01  2.816414674E+01  0.000000000E+00  0.00000E+00  9.000E+00
</event>
<event>
      5  10001  2.40292E+09  2.55525E+01 -1.00000E+00  1.58006E-01
      21    -1     0     0   512   511  0.000000000E+00  0.000000000E+00  3.180300091E+00  3.180300091E+00  0.000000000E+00  0.00000E+00  9.000E+00
       2    -1     0     0   513     0  0.000000000E+00  0.000000000E+00 -3.801832038E+02  3.801832038E+02  0.000000000E+00  0.00000E+00  9.000E+00
      21     1     1     2   514   511  3.407994343E+00 -4.147844626E+00 -3.154795603E+01  3.200144638E+01  4.768371582E-07  0.00000E+00  9.000E+00
       2     1     1     2   512     0 -3.046936718E+01  8.441154925E+00 -2.519198126E+02  2.538963102E+02  3.300000131E-01  0.00000E+00  9.000E+00
      21     1     1     2   513   514  2.706137283E+01 -4.293310299E+00 -9.353513503E+01  9.746574731E+01  0.000000000E+00  0.00000E+00  9.000E+00
</event>
<event>
      5  10001  2.40292E+09  5.54456E+00 -1.00000E+00  2.30849E-01
       2    -1     0     0   515     0  0.000000000E+00  0.000000000E+00  8.474695681E+02  8.474695681E+02  0.000000000E+00  0.00000E+00  9.000E+00
      21    -1     0     0   514   515  0.000000000E+00  0.000000000E+00 -1.582449825E+00  1.582449825E+00  0.000000000E+00  0.00000E+00  9.000E+00
      -1     1     1     2     0   513  1.131610140E+01 -2.532670867E+00  1.002392065E+02  1.009082553E+02  3.300000131E-01  0.00000E+00  9.000E+00
       1     1     1     2   514     0 -1.063470166E+01  8.034589205E+00  3.468631686E+01  3.716047605E+01  3.300000131E-01  0.00000E+00  9.000E+00
       2     1     1     2   513     0 -6.813997426E-01 -5.501918338E+00  7.109615949E+02  7.109832866E+02  3.300000131E-01  0.00000E+00  9.000E+00
</event>
<event>
      5  10001  2.40292E+09  1.29155E+01 -1.00000E+00  1.83681E-01
      21    -1     0     0   515   516  0.000000000E+00  0.000000000E+00  4.364888769E+02  4.364888769E+02  0.000000000E+00  0.00000E+00  9.000E+00
      21    -1     0     0   512   511  0.000000000E+00  0.000000000E+00 -9.390771175E+01  9.390771175E+01  0.000000000E+00  0.00000E+00  9.000E+00
      21     1     1     2   514   516 -1.309684510E+01 -1.472112004E+01  2.484307781E+02  2.492109353E+02  2.697398305E-06  0.00000E+00  9.000E+00
      21     1     1     2   512   514  4.950484090E+00  2.474347921E+01 -9.158707595E+01  9.499968178E+01  3.568322551E-06  0.00000E+00  9.000E+00
      21     1     1     2   515   511  8.146361009E+00 -1.002235917E+01  1.857374629E+02  1.861859716E+02  0.000000000E+00  0.00000E+00  9.000E+00
</event>
<event>
      5  10001  2.40292E+09  1.36879E+01 -1.00000E+00  1.81163E-01
      -2    -1     0     0     0   513  0.000000000E+00  0.000000000E+00  9.122325328E+01  9.122325328E+01  0.000000000E+00  0.00000E+00  9.000E+00
      21    -1     0     0   513   511  0.000000000E+00  0.000000000E+00 -1.014510042E+01  1.014510042E+01  0.000000000E+00  0.00000E+00  9.000E+00
      -2     1     1     2     0   512  1.671539360E+01 -9.827875430E+00  3.953455225E+01  4.403500017E+01  3.300000131E-01  0.00000E+00  9.000E+00
      21     1     1     2   514   511 -2.435169150E+01  2.319200932E+00  1.496040488E+01  2.867398274E+01  6.078504936E-07  0.00000E+00  9.000E+00
      21     1     1     2   512   514  7.636297903E+00  7.508674498E+00  2.658319573E+01  2.865937078E+01  4.768371582E-07  0.00000E+00  9.000E+00
</event>
<event>
      5  10001  2.40292E+09  2.11779E+01 -1.00000E+00  1.64304E-01
      21    -1     0     0   515   513  0.000000000E+00  0.000000000E+00  4.209701218E+01  4.209701218E+01  0.000000000E+00  0.00000E+00  9.000E+00
      -3    -1     0     0     0   515  0.000000000E+00  0.000000000E+00 -1.171372890E+01  1.171372890E+01  0.000000000E+00  0.00000E+00  9.000E+00
      -3     1     1     2     0   516 -4.696915724E+00  3.343348552E+00 -7.009121108E+00  9.089377072E+00  5.000000000E-01  0.00000E+00  9.000E+00
      21     1     1     2   511   513  8.072950110E+00 -1.219804690E+01  1.848853136E+01  2.357521291E+01  2.384185791E-07  0.00000E+00  9.000E+00
      21     1     1     2   516   511 -3.376034386E+00  8.854698348E+00  1.890387302E+01  2.114615110E+01  4.768371582E-07  0.00000E+00  9.000E+00
</event>
<event>
      5  10001  2.40292E+09  6.79013E+00 -1.00000E+00  2.17367E-01
      21    -1     0     0   512   511  0.000000000E+00  0.000000000E+00  2.875204731E+01  2.875204731E+01  0.000000000E+00  0.00000E+00  9.000E+00
      21    -1     0     0   516   514  0.000000000E+00  0.000000000E+00 -2.860286278E+01  2.860286278E+01  0.000000000E+00  0.00000E+00  9.000E+00
      21     1     1     2   512   514  2.207030408E+00 -9.022459024E+00  2.416998005E+01  2.589331353E+01  3.371747881E-07  0.00000E+00  9.000E+00
      21     1     1     2   513   511 -5.861388226E+00  9.962255732E+00 -2.501774579E+01  2.755884641E+01  0.000000000E+00  0.00000E+00  9.000E+00
      21     1     1     2   516   513  3.654357818E+00 -9.397967082E-01  9.969502685E-01  3.902750153E+00  6.233602960E-08  0.00000E+00  9.000E+00
</event>
<event>
      5  10001  2.40292E+09  3.17471E+00 -1.00000E+00  2.89470E-01
      21    -1     0     0   515   513  0.000000000E+00  0.000000000E+00  6.966073234E+00  6.966073234E+00  0.000000000E+00  0.00000E+00  9.000E+00
       1    -1     0     0   516     0  0.000000000E+00  0.000000000E+00 -6.418228598E+01  6.418228598E+01  0.000000000E+00  0.00000E+00  9.000E+00
      21     1     1     2   515   517 -6.956723848E+00  9.675443446E+00 -2.133832345E+00  1.210633937E+01  2.457562462E-07  0.00000E+00  9.000E+00
      21     1     1     2   516   513  3.835969483E+00 -9.094130501E+00 -1.074593877E+01  1.459085575E+01  3.371747881E-07  0.00000E+00  9.000E+00
       1     1     1     2   517     0  3.120754365E+00 -5.813129449E-01 -4.433644163E+01  4.445116409E+01  3.300000131E-01  0.00000E+00  9.000E+00
</event>
<event>
      5  10001  2.40292E+09  3.98880E+00 -1.00000E+00  2.63649E-01
      21    -1     0     0   514   513  0.000000000E+00  0.000000000E+00  1.599704921E+01  1.599704921E+01  0.000000000E+00  0.00000E+00  9.000E+00
      21    -1     0     0   512   514  0.000000000E+00  0.000000000E+00 -6.518946631E+01  6.518946631E+01  0.000000000E+00  0.00000E+00  9.000E+00
      21     1     1     2   512   511  1.149207016E+01  3.882819648E+00 -4.047019437E+01  4.224903072E+01  1.066240300E-06  0.00000E+00  9.000E+00
       4     1     1     2   511     0 -1.010513442E+01 -1.508666693E-01 -2.239637678E+01  2.461674624E+01  1.500000000E+00  0.00000E+00  9.000E+00
      -4     1     1     2     0   513 -1.386935742E+00 -3.731952979E+00  1.367415405E+01  1.432073855E+01  1.500000000E+00  0.00000E+00  9.000E+00
</event>
<event>
      5  10001  2.40292E+09  9.66773E+00 -1.00000E+00  1.97410E-01
       5    -1     0     0   514     0  0.000000000E+00  0.000000000E+00  7.319767540E+02  7.319767540E+02  0.000000000E+00  0.00000E+00  9.000E+00
      21    -1     0     0   511   512  0.000000000E+00  0.000000000E+00 -1.640164156E+00  1.640164156E+00  0.000000000E+00  0.00000E+00  9.000E+00
      21     1     1     2   511   515 -3.894537884E+00 -2.151403436E+01  1.468510017E+02  1.484696528E+02  1.907348633E-06  0.00000E+00  9.000E+00
       5     1     1     2   515     0  1.215162758E+01  1.658925880E+01  5.472704414E+02  5.476776804E+02  4.800000191E+00  0.00000E+00  9.000E+00
      21     1     1     2   514   512 -8.257089692E+00  4.924775561E+00  3.621514664E+01  3.746958487E+01  4.768371582E-07  0.00000E+00  9.000E+00
</event>
<event>
      5  10001  2.40292E+09  1.63913E+01 -1.00000E+00  1.73784E-01
      21    -1     0     0   515   511  0.000000000E+00  0.000000000E+00  7.612365759E+01  7.612365759E+01  0.000000000E+00  0.00000E+00  9.000E+00
       1    -1     0     0   511     0  0.000000000E+00  0.000000000E+00 -1.364863098E+01  1.364863098E+01  0.000000000E+00  0.00000E+00  9.000E+00
      21     1     1     2   515   513 -6.331127462E+00  7.344341978E+00  6.819164393E+01  6.887759314E+01  0.000000000E+00  0.00000E+00  9.000E+00
      21     1     1     2   513   516 -5.053136955E+00 -3.596622048E+00 -6.365146278E+00  8.887348895E+00  0.000000000E+00  0.00000E+00  9.000E+00
       1     1     1     2   516     0  1.138426442E+01 -3.747719929E+00  6.485289532E-01  1.200734653E+01  3.300000131E-01  0.00000E+00  9.000E+00
</event>
<event>
      5  10001  2.40292E+09  8.66547E+00 -1.00000E+00  2.03171E-01
      21    -1     0     0   512   513  0.000000000E+00  0.000000000E+00  1.183468238E+02  1.183468238E+02  0.000000000E+00  0.00000E+00  9.000E+00
      21    -1     0     0   511   514  0.000000000E+00  0.000000000E+00 -1.026780880E+01  1.026780880E+01  0.000000000E+00  0.00000E+00  9.000E+00
      21     1     1     2   512   514  1.115832710E+01  1.469818152E+00 -6.681795507E+00  1.308873639E+01  4.214684851E-07  0.00000E+00  9.000E+00
      21     1     1     2   515   513 -2.542054841E+00  2.225863843E+00  4.674652666E+01  4.686847840E+01  0.000000000E+00  0.00000E+00  9.000E+00
      21     1     1     2   511   515 -8.616272260E+00 -3.695681995E+00  6.801428382E+01  6.865741778E+01  1.348699152E-06  0.00000E+00  9.000E+00
</event>
<event>
      5  10001  2.40292E+09  2.20502E+00 -1.00000E+00  3.44195E-01
       4    -1     0     0   511     0  0.000000000E+00  0.000000000E+00  9.007333749E+00  9.007333749E+00  0.000000000E+00  0.00000E+00  9.000E+00
      21    -1     0     0   516   515  0.000000000E+00  0.000000000E+00 -1.626090158E+02  1.626090158E+02  0.000000000E+00  0.00000E+00  9.000E+00
      21     1     1     2   511   515  8.782580221E+00 -4.796642685E+00 -1.592283916E+02  1.595425404E+02  1.907348633E-06  0.00000E+00  9.000E+00
       4     1     1     2   512     0 -4.622444338E+00  2.989408139E+00  4.815530078E+00  7.466115631E+00  1.500000000E+00  0.00000E+00  9.000E+00
      21     1     1     2   516   512 -4.160135883E+00  1.807234546E+00  8.111795100E-01  4.607693508E+00  1.089925977E-07  0.00000E+00  9.000E+00
</event>
<event>
      5  10001  2.40292E+09  4.30163E+00 -1.00000E+00  2.56144E-01
      21    -1     0     0   513   516  0.000000000E+00  0.000000000E+00  3.811638345E+00  3.811638345E+00  0.000000000E+00  0.00000E+00  9.000E+00
      21    -1     0     0   514   513  0.000000000E+00  0.000000000E+00 -2.646638112E+02  2.646638112E+02  0.000000000E+00  0.00000E+00  9.000E+00
      21     1     1     2   512   516 -4.462455829E+00  1.000427885E+01 -4.510439696E+00  1.184665242E+01  4.042583694E-07  0.00000E+00  9.000E+00
      21     1     1     2   511   512  3.588671295E+00 -3.682103925E+00 -1.557180501E+02  1.558029126E+02  2.697398305E-06  0.00000E+00  9.000E+00
      21     1     1     2   514   511  8.737845339E-01 -6.322174926E+00 -1.006236831E+02  1.008258846E+02  2.336015456E-06  0.00000E+00  9.000E+00
</event>
<event>
      5  10001  2.40292E+09  2.30490E+00 -1.00000E+00  3.36383E-01
       2    -1     0     0   512     0  0.000000000E+00  0.000000000E+00  2.819119212E+02  2.819119212E+02  0.000000000E+00  0.00000E+00  9.000E+00
      21    -1     0     0   511   512  0.000000000E+00  0.000000000E+00 -1.437034935E+00  1.437034935E+00  0.000000000E+00  0.00000E+00  9.000E+00
      21     1     1     2   511   515  7.292779584E+00  8.254310996E+00  2.276199706E+01  2.528688977E+01  1.305872339E-06  0.00000E+00  9.000E+00
       2     1     1     2   513     0 -5.589840407E+00 -8.382148863E+00  2.476669232E+02  2.478719841E+02  3.300000131E-01  0.00000E+00  9.000E+00
      21     1     1     2   515   513 -1.702939178E+00  1.278378672E-01  1.004596601E+01  1.019008231E+01  1.192092896E-07  0.00000E+00  9.000E+00
</event>
<event>
      5  10001  2.40292E+09  7.40821E+00 -1.00000E+00  2.12063E-01
      21    -1     0     0   514   512  0.000000000E+00  0.000000000E+00  7.558423228E+00  7.558423228E+00  0.000000000E+00  0.00000E+00  9.000E+00
      21    -1     0     0   511   516  0.000000000E+00  0.000000000E+00 -2.302272502E+02  2.302272502E+02  0.000000000E+00  0.00000E+00  9.000E+00
      21     1     1     2   514   516 -1.070315231E+01  6.419915841E+00 -1.243904716E+02  1.250150479E+02  2.336015456E-06  0.00000E+00  9.000E+00
      21     1     1     2   511   513  1.418342610E+01  1.199005827E-01 -1.030089213E+02  1.039808724E+02  1.907348633E-06  0.00000E+00  9.000E+00
      21     1     1     2   513   512 -3.480273790E+00 -6.539816423E+00  4.730565972E+00  8.789753064E+00  6.664001875E-07  0.00000E+00  9.000E+00
</event>
<event>
      5  10001  2.40292E+09  2.95815E+01 -1.00000E+00  1.53430E-01
      21    -1     0     0   515   511  0.000000000E+00  0.000000000E+00  2.649985033E+01  2.649985033E+01  0.000000000E+00  0.00000E+00  9.000E+00
      21    -1     0     0   517   512  0.000000000E+00  0.000000000E+00 -1.354972476E+01  1.354972476E+01  0.000000000E+00  0.00000E+00  9.000E+00
      21     1     1     2   515   512  5.589841144E+00 -5.120807856E-01  1.751610574E+00  5.880194754E+00  3.822372955E-07  0.00000E+00  9.000E+00
      21     1     1     2   517   514 -8.550430113E+00  6.402004264E+00  2.029564339E+01  2.293487855E+01  4.129530925E-07  0.00000E+00  9.000E+00
      21     1     1     2   514   511  2.960588969E+00 -5.889923479E+00 -9.097128389E+00  1.123450179E+01  3.371747881E-07  0.00000E+00  9.000E+00
</event>
<event>
      5  10001  2.40292E+09  8.55686E+00 -1.00000E+00  2.03858E-01
      21    -1     0     0   513   512  0.000000000E+00  0.000000000E+00  9.908247563E+02  9.908247563E+02  0.000000000E+00  0.00000E+00  9.000E+00
      21    -1     0     0   516   515  0.000000000E+00  0.000000000E+00 -1.080483179E+01  1.080483179E+01  0.000000000E+00  0.00000E+00  9.000E+00
      21     1     1     2   513   511  3.483476608E+00 -1.647886811E+01 -1.981482349E+00  1.695918558E+01  1.820260859E-06  0.00000E+00  9.000E+00
      21     1     1     2   516   512 -7.315518755E+00  8.828033983E+00  9.692276860E+02  9.692954958E+02  1.078959322E-05  0.00000E+00  9.000E+00
      21     1     1     2   511   515  3.832042147E+00  7.650834122E+00  1.277372089E+01  1.537490667E+01  3.769728732E-07  0.00000E+00  9.000E+00
</event>
<event>
      5  10001  2.40292E+09  1.04053E+01 -1.00000E+00  1.93726E-01
      21    -1     0     0   514   515  0.000000000E+00  0.000000000E+00  5.981688037E+02  5.981688037E+02  0.000000000E+00  0.00000E+00  9.000E+00
      21    -1     0     0   511   512  0.000000000E+00  0.000000000E+00 -9.191010351E+00  9.191010351E+00  0.000000000E+00  0.00000E+00  9.000E+00
      21     1     1     2   514   517 -2.092127192E+01 -4.194366981E+00  5.611370367E+02  5.615425775E+02  1.525878906E-05  0.00000E+00  9.000E+00
      21     1     1     2   511   515  1.052087863E+01  3.874738826E+00 -4.319926314E+00  1.201516756E+01  1.421792560E-06  0.00000E+00  9.000E+00
      21     1     1     2   517   512  1.040039329E+01  3.196281555E-01  3.216068295E+01  3.380206903E+01  4.768371582E-07  0.00000E+00  9.000E+00
</event>
<event>
      5  10001  2.40292E+09  6.39478E+00 -1.00000E+00  2.21183E-01
      21    -1     0     0   513   511  0.000000000E+00  0.000000000E+00  2.668569195E+02  2.668569195E+02  0.000000000E+00  0.00000E+00  9.000E+00
      21    -1     0     0   517   514  0.000000000E+00  0.000000000E+00 -7.693225651E+00  7.693225651E+00  0.000000000E+00  0.00000E+00  9.000E+00
      21     1     1     2   513   516  1.223806725E+01  2.479641130E+00  3.759739452E+00  1.304049657E+01  7.189713765E-07  0.00000E+00  9.000E+00
      21     1     1     2   517   511 -1.303613283E+01 -8.824429048E+00  2.545751265E+02  2.550613776E+02  6.607249480E-06  0.00000E+00  9.000E+00
      21     1     1     2   516   514  7.980655813E-01  6.344787917E+00  8.288278423E-01  6.448270929E+00  1.622106214E-07  0.00000E+00  9.000E+00
</event>
<event>
      5  10001  2.40292E+09  5.82726E+00 -1.00000E+00  2.27380E-01
      21    -1     0     0   512   513  0.000000000E+00  0.000000000E+00  1.101155559E+02  1.101155559E+02  0.000000000E+00  0.00000E+00  9.000E+00
      21    -1     0     0   515   512  0.000000000E+00  0.000000000E+00 -1.678159296E+02  1.678159296E+02  0.000000000E+00  0.00000E+00  9.000E+00
      21     1     1     2   514   511  1.216960433E+01 -1.535466124E+01 -1.196023866E+01  2.295456818E+01  6.307962682E-07  0.00000E+00  9.000E+00
      21     1     1     2   515   514 -1.739251145E+01  1.277044279E+01 -1.495022326E+02  1.510513198E+02  1.907348633E-06  0.00000E+00  9.000E+00
      21     1     1     2   511   513  5.222907117E+00  2.584218451E+00  1.037620975E+02  1.039255976E+02  1.907348633E-06  0.00000E+00  9.000E+00
</event>
<event>
      5  10001  2.40292E+09  6.54484E+00 -1.00000E+00  2.19691E-01
      21    -1     0     0   516   515  0.000000000E+00  0.000000000E+00  8.849026402E+01  8.849026402E+01  0.000000000E+00  0.00000E+00  9.000E+00
      21    -1     0     0   511   513  0.000000000E+00  0.000000000E+00 -1.288636754E+00  1.288636754E+00  0.000000000E+00  0.00000E+00  9.000E+00
      21     1     1     2   516   513  9.103132036E+00  3.244958626E+00  4.492031004E+01  4.594813406E+01  0.000000000E+00  0.00000E+00  9.000E+00
      21     1     1     2   512   515 -5.454116295E+00  1.300547761E+00  2.382300783E+01  2.447395578E+01  3.371747881E-07  0.00000E+00  9.000E+00
      21     1     1     2   511   512 -3.649015741E+00 -4.545506386E+00  1.845830939E+01  1.935681094E+01  4.768371582E-07  0.00000E+00  9.000E+00
</event>
<event>
      5  10001  2.40292E+09  3.78662E+00 -1.00000E+00  2.69096E-01
      21    -1     0     0   514   512  0.000000000E+00  0.000000000E+00  1.415834505E+02  1.415834505E+02  0.000000000E+00  0.00000E+00  9.000E+00
      21    -1     0     0   511   513  0.000000000E+00  0.000000000E+00 -2.838075302E+00  2.838075302E+00  0.000000000E+00  0.00000E+00  9.000E+00
      21     1     1     2   514   517 -9.431864051E+00 -8.864536979E+00  4.394097766E+01  4.580774599E+01  9.536743164E-07  0.00000E+00  9.000E+00
      21     1     1     2   511   512  9.683041971E+00  5.086252308E+00  9.413518172E+01  9.476847420E+01  1.348699152E-06  0.00000E+00  9.000E+00
      21     1     1     2   517   513 -2.511779203E-01  3.778284671E+00  6.692158145E-01  3.845305607E+00  4.532011248E-08  0.00000E+00  9.000E+00
</event>
<event>
      5  10001  2.40292E+09  1.56458E+00 -1.00000E+00  4.21176E-01
      21    -1     0     0   513   511  0.000000000E+00  0.000000000E+00  1.940753854E+01  1.940753854E+01  0.000000000E+00  0.00000E+00  9.000E+00
      21    -1     0     0   515   512  0.000000000E+00  0.000000000E+00 -6.409738125E+00  6.409738125E+00  0.000000000E+00  0.00000E+00  9.000E+00
      -2     1     1     2     0   511  8.102013929E+00  6.305302708E+00  9.258261869E+00  1.382836884E+01  3.300000131E-01  0.00000E+00  9.000E+00
       2     1     1     2   515     0 -8.547991668E+00 -4.806406325E+00  3.432437029E+00  1.039520213E+01  3.300000131E-01  0.00000E+00  9.000E+00
      21     1     1     2   513   512  4.459777391E-01 -1.498896383E+00  3.071015182E-01  1.593705698E+00  2.471078031E-08  0.00000E+00  9.000E+00
</event>
<event>
      5  10001  2.40292E+09  5.94196E+00 -1.00000E+00  2.26051E-01
      21    -1     0     0   514   515  0.000000000E+00  0.000000000E+00  1.471298720E+03  1.471298720E+03  0.000000000E+00  0.00000E+00  9.000E+00
      21    -1     0     0   511   516  0.000000000E+00  0.000000000E+00 -4.363496698E-01  4.363496698E-01  0.000000000E+00  0.00000E+00  9.000E+00
      21     1     1     2   514   516  1.005023751E+01 -8.545364363E+00  1.227128156E+02  1.234198754E+02  2.336015456E-06  0.00000E+00  9.000E+00
      21     1     1     2   511   512 -4.112970307E+00  8.309352237E+00  2.884245290E+02  2.885735102E+02  5.394796609E-06  0.00000E+00  9.000E+00
      21     1     1     2   512   515 -5.937267207E+00  2.360121266E-01  1.059725026E+03  1.059741684E+03  0.000000000E+00  0.00000E+00  9.000E+00
</event>
<event>
      5  10001  2.40292E+09  4.16345E+00 -1.00000E+00  2.59333E-01
      21    -1     0     0   513   511  0.000000000E+00  0.000000000E+00  3.075926858E+01  3.075926858E+01  0.000000000E+00  0.00000E+00  9.000E+00
      21    -1     0     0   514   515  0.000000000E+00  0.000000000E+00 -1.032982440E+01  1.032982440E+01  0.000000000E+00  0.00000E+00  9.000E+00
      21     1     1     2   513   515  1.257359664E+01  9.922807247E-01  2.180006952E+01  2.518576949E+01  4.129530925E-07  0.00000E+00  9.000E+00
      21     1     1     2   517   511 -8.475512027E+00 -1.727125713E+00  3.643697323E+00  9.385829613E+00  3.009887021E-07  0.00000E+00  9.000E+00
      21     1     1     2   514   517 -4.098084612E+00  7.348449881E-01 -5.014322672E+00  6.517493882E+00  1.192092896E-07  0.00000E+00  9.000E+00
</event>
<event>
      5  10001  2.40292E+09  6.07698E+00 -1.00000E+00  2.24538E-01
      21    -1     0     0   512   511  0.000000000E+00  0.000000000E+00  2.391165969E+01  2.391165969E+01  0.000000000E+00  0.00000E+00  9.000E+00
      21    -1     0     0   514   512  0.000000000E+00  0.000000000E+00 -1.415958434E+01  1.415958434E+01  0.000000000E+00  0.00000E+00  9.000E+00
      21     1     1     2   516   511  1.330002882E+01  8.223452977E+00  1.415206390E+01  2.109020763E+01  3.371747881E-07  0.00000E+00  9.000E+00
       3     1     1     2   514     0 -5.524410695E+00 -4.457593977E+00  3.204252300E-01  7.123336993E+00  5.000000000E-01  0.00000E+00  9.000E+00
      -3     1     1     2     0   516 -7.775618123E+00 -3.765858999E+00 -4.720413781E+00  9.857699400E+00  5.000000000E-01  0.00000E+00  9.000E+00
</event>
<event>
      5  10001  2.40292E+09  1.19191E+01 -1.00000E+00  1.87284E-01
      21    -1     0     0   514   511  0.000000000E+00  0.000000000E+00  1.378939647E+03  1.378939647E+03  0.000000000E+00  0.00000E+00  9.000E+00
       3    -1     0     0   511     0  0.000000000E+00  0.000000000E+00 -5.721660421E+01  5.721660421E+01  0.000000000E+00  0.00000E+00  9.000E+00
      21     1     1     2   514   513  1.397930200E+01  1.974759128E+01  1.371981221E+03  1.372194541E+03  1.525878906E-05  0.00000E+00  9.000E+00
       3     1     1     2   512     0 -1.791766551E+01 -8.696141879E+00 -4.805942088E+01  5.202522038E+01  5.000000000E-01  0.00000E+00  9.000E+00
      21     1     1     2   513   512  3.938363512E+00 -1.105144940E+01 -2.198757644E+00  1.193648927E+01  7.603973640E-07  0.00000E+00  9.000E+00
</event>
<event>
      5  10001  2.40292E+09  5.30153E+00 -1.00000E+00  2.34072E-01
      21    -1     0     0   515   512  0.000000000E+00  0.000000000E+00  9.885327829E+01  9.885327829E+01  0.000000000E+00  0.00000E+00  9.000E+00
      21    -1     0     0   514   515  0.000000000E+00  0.000000000E+00 -3.669099883E+01  3.669099883E+01  0.000000000E+00  0.00000E+00  9.000E+00
      21     1     1     2   511   516  3.909617721E-01 -1.103396678E+01  1.666112558E+01  1.998735550E+01  4.129530925E-07  0.00000E+00  9.000E+00
      21     1     1     2   516   512  4.374128551E+00  1.335777527E+01  7.970996691E+01  8.093974293E+01  1.348699152E-06  0.00000E+00  9.000E+00
      21     1     1     2   514   511 -4.765090323E+00 -2.323808488E+00 -3.420881304E+01  3.461717870E+01  0.000000000E+00  0.00000E+00  9.000E+00
</event>
<event>
      5  10001  2.40292E+09  5.47213E+00 -1.00000E+00  2.31785E-01
      21    -1     0     0   514   512  0.000000000E+00  0.000000000E+00  5.701517234E+01  5.701517234E+01  0.000000000E+00  0.00000E+00  9.000E+00
       2    -1     0     0   511     0  0.000000000E+00  0.000000000E+00 -3.049892420E+01  3.049892420E+01  0.000000000E+00  0.00000E+00  9.000E+00
      21     1     1     2   514   513  4.725782343E+00 -1.417220579E+01  5.022065343E+01  5.239559587E+01  6.743495762E-07  0.00000E+00  9.000E+00
       2     1     1     2   513     0 -4.578285397E+00  8.702160840E+00 -2.699588059E+01  2.873281694E+01  3.300000131E-01  0.00000E+00  9.000E+00
      21     1     1     2   511   512 -1.474969456E-01  5.470044948E+00  3.291475295E+00  6.385683730E+00  5.960464478E-08  0.00000E+00  9.000E+00
</event>
<event>
      5  10001  2.40292E+09  9.84433E+00 -1.00000E+00  1.96489E-01
      21    -1     0     0   515   516  0.000000000E+00  0.000000000E+00  2.469179030E+00  2.469179030E+00  0.000000000E+00  0.00000E+00  9.000E+00
      21    -1     0     0   511   515  0.000000000E+00  0.000000000E+00 -8.001001202E+01  8.001001202E+01  0.000000000E+00  0.00000E+00  9.000E+00
      21     1     1     2   512   516 -2.966026194E+00 -9.484720411E+00 -1.218285986E+01  1.572193713E+01  1.685873940E-07  0.00000E+00  9.000E+00
      21     1     1     2   513   512 -3.141735182E+00  5.316516882E+00 -3.183429623E+01  3.242773917E+01  3.371747881E-07  0.00000E+00  9.000E+00
      21     1     1     2   511   513  6.107761376E+00  4.168203529E+00 -3.352367691E+01  3.432951475E+01  4.768371582E-07  0.00000E+00  9.000E+00
</event>
<event>
      5  10001  2.40292E+09  8.50132E+00 -1.00000E+00  2.04214E-01
      21    -1     0     0   514   512  0.000000000E+00  0.000000000E+00  1.722439931E+01  1.722439931E+01  0.000000000E+00  0.00000E+00  9.000E+00
      21    -1     0     0   511   514  0.000000000E+00  0.000000000E+00 -1.105112266E+01  1.105112266E+01  0.000000000E+00  0.00000E+00  9.000E+00
      21     1     1     2   513   512  4.681551319E-01  7.518841005E+00  9.285287804E+00  1.195695232E+01  2.064765462E-07  0.00000E+00  9.000E+00
      21     1     1     2   511   515 -3.839368273E+00 -7.035281990E+00 -7.354835576E+00  1.087793858E+01  8.429369702E-08  0.00000E+00  9.000E+00
      21     1     1     2   515   513  3.371213141E+00 -4.835590145E-01  4.242824423E+00  5.440631071E+00  0.000000000E+00  0.00000E+00  9.000E+00
</event>
<event>
      5  10001  2.40292E+09  1.10031E+01 -1.00000E+00  1.91022E-01
      21    -1     0     0   516   511  0.000000000E+00  0.000000000E+00  3.259291027E+00  3.259291027E+00  0.000000000E+00  0.00000E+00  9.000E+00
      21    -1     0     0   512   513  0.000000000E+00  0.000000000E+00 -7.127473310E+01  7.127473310E+01  0.000000000E+00  0.00000E+00  9.000E+00
      21     1     1     2   516   513 -3.336726267E+00  1.255970192E+01 -1.620727554E+01  2.077391718E+01  0.000000000E+00  0.00000E+00  9.000E+00
      -3     1     1     2     0   511 -8.087549265E-01 -3.507208203E+00 -7.366109099E+00  8.213656748E+00  5.000000000E-01  0.00000E+00  9.000E+00
       3     1     1     2   512     0  4.145481193E+00 -9.052493720E+00 -4.444205744E+01  4.554645020E+01  5.000000000E-01  0.00000E+00  9.000E+00
</event>
<event>
      5  10001  2.40292E+09  9.38722E+00 -1.00000E+00  1.98926E-01
      21    -1     0     0   515   511  0.000000000E+00  0.000000000E+00  4.301866183E+00  4.301866183E+00  0.000000000E+00  0.00000E+00  9.000E+00
      21    -1     0     0   514   515  0.000000000E+00  0.000000000E+00 -2.711484875E+01  2.711484875E+01  0.000000000E+00  0.00000E+00  9.000E+00
      -1     1     1     2     0   511  6.326874556E+00 -4.869285977E+00 -8.857678085E+00  1.192923504E+01  3.300000131E-01  0.00000E+00  9.000E+00
       1     1     1     2   513     0 -3.027904770E+00  5.872534720E+00 -1.455473146E+01  1.598761956E+01  3.300000131E-01  0.00000E+00  9.000E+00
      21     1     1     2   514   513 -3.298969787E+00 -1.003248743E+00  5.994269711E-01  3.499860338E+00  6.622220887E-08  0.00000E+00  9.000E+00
</event>
<event>
      5  10001  2.40292E+09  4.01981E+00 -1.00000E+00  2.62858E-01
       2    -1     0     0   515     0  0.000000000E+00  0.000000000E+00  6.354710228E+02  6.354710228E+02  0.000000000E+00  0.00000E+00  9.000E+00
      21    -1     0     0   511   515  0.000000000E+00  0.000000000E+00 -1.025452318E+00  1.025452318E+00  0.000000000E+00  0.00000E+00  9.000E+00
      21     1     1     2   513   512 -8.601516351E+00  6.363907283E+00  6.632891102E+01  6.718638133E+01  2.336015456E-06  0.00000E+00  9.000E+00
       2     1     1     2   512     0  1.200129069E+01 -4.219384388E+00  5.609406139E+02  5.610849449E+02  3.300000131E-01  0.00000E+00  9.000E+00
      21     1     1     2   511   513 -3.399774337E+00 -2.144522895E+00  7.176045511E+00  8.225148823E+00  3.576278687E-07  0.00000E+00  9.000E+00
</event>
<event>
      5  10001  2.40292E+09  4.07595E+00 -1.00000E+00  2.61454E-01
      21    -1     0     0   514   512  0.000000000E+00  0.000000000E+00  9.939661845E+02  9.939661845E+02  0.000000000E+00  0.00000E+00  9.000E+00
      21    -1     0     0   511   514  0.000000000E+00  0.000000000E+00 -9.471463755E+00  9.471463755E+00  0.000000000E+00  0.00000E+00  9.000E+00
      21     1     1     2   516   513 -4.143958407E-01 -1.008626521E+01  7.455425474E+01  7.523457563E+01  9.536743164E-07  0.00000E+00  9.000E+00
      21     1     1     2   511   516 -3.147583664E+00  1.206759230E+01 -4.866379125E+00  1.338714729E+01  5.022376641E-07  0.00000E+00  9.000E+00
      21     1     1     2   513   512  3.561979504E+00 -1.981327089E+00  9.148068451E+02  9.148159253E+02  1.525878906E-05  0.00000E+00  9.000E+00
</event>
<event>
      5  10001  2.40292E+09  1.63856E+01 -1.00000E+00  1.73798E-01
      21    -1     0     0   515   511  0.000000000E+00  0.000000000E+00  5.359374551E+01  5.359374551E+01  0.000000000E+00  0.00000E+00  9.000E+00
      21    -1     0     0   513   512  0.000000000E+00  0.000000000E+00 -1.681747942E+02  1.681747942E+02  0.000000000E+00  0.00000E+00  9.000E+00
      21     1     1     2   515   512 -6.288217292E+00  9.781337418E+00 -1.559967502E+02  1.564295443E+02  1.907348633E-06  0.00000E+00  9.000E+00
      21     1     1     2   514   511  1.157567043E+01 -1.561376440E+00  5.059791111E+01  5.192863036E+01  9.536743164E-07  0.00000E+00  9.000E+00
      21     1     1     2   513   514 -5.287453134E+00 -8.219960978E+00 -9.182209558E+00  1.341036508E+01  1.685873940E-07  0.00000E+00  9.000E+00
</event>
<event>
      5  10001  2.40292E+09  7.33574E+00 -1.00000E+00  2.12648E-01
      21    -1     0     0   512   511  0.000000000E+00  0.000000000E+00  7.653019604E+00  7.653019604E+00  0.000000000E+00  0.00000E+00  9.000E+00
       1    -1     0     0   514     0  0.000000000E+00  0.000000000E+00 -1.278747126E+02  1.278747126E+02  0.000000000E+00  0.00000E+00  9.000E+00
      21     1     1     2   514   511 -1.439066997E+00  8.585384466E+00 -2.011423708E+01  2.191716846E+01  6.307962682E-07  0.00000E+00  9.000E+00
       1     1     1     2   513     0  7.514873921E+00 -1.269564206E+01 -1.041803008E+02  1.052202292E+02  3.300000131E-01  0.00000E+00  9.000E+00
      21     1     1     2   512   513 -6.075806923E+00  4.110257593E+00  4.072844925E+00  8.390334500E+00  5.960464478E-08  0.00000E+00  9.000E+00
</event>
<event>
      5  10001  2.40292E+09  2.34468E+01 -1.00000E+00  1.60827E-01
      21    -1     0     0   515   513  0.000000000E+00  0.000000000E+00  1.481238872E+00  1.481238872E+00  0.000000000E+00  0.00000E+00  9.000E+00
      21    -1     0     0   511   516  0.000000000E+00  0.000000000E+00 -3.394706020E+02  3.394706020E+02  0.000000000E+00  0.00000E+00  9.000E+00
      21     1     1     2   515   516 -1.101410207E+01 -1.507729164E+00 -6.665211281E+01  6.757283354E+01  1.348699152E-06  0.00000E+00  9.000E+00
      21     1     1     2   514   513  1.950708476E+01  8.904261868E+00 -1.508335379E+02  1.523501506E+02  0.000000000E+00  0.00000E+00  9.000E+00
      21     1     1     2   511   514 -8.492982690E+00 -7.396532705E+00 -1.205037124E+02  1.210288567E+02  1.907348633E-06  0.00000E+00  9.000E+00
</event>
<event>
      5  10001  2.40292E+09  3.50272E+00 -1.00000E+00  2.77718E-01
      21    -1     0     0   512   514  0.000000000E+00  0.000000000E+00  1.492821670E+01  1.492821670E+01  0.000000000E+00  0.00000E+00  9.000E+00
       1    -1     0     0   511     0  0.000000000E+00  0.000000000E+00 -1.317131340E+02  1.317131340E+02  0.000000000E+00  0.00000E+00  9.000E+00
      21     1     1     2   512   517 -1.227746958E+01  1.088587054E-01  1.120173049E+01  1.662007447E+01  2.384185791E-07  0.00000E+00  9.000E+00
      21     1     1     2   511   514  8.878591548E+00 -9.551922528E-01 -1.917063824E+01  2.114840776E+01  3.371747881E-07  0.00000E+00  9.000E+00
       1     1     1     2   517     0  3.398878031E+00  8.463335474E-01 -1.088160096E+02  1.088728685E+02  3.300000131E-01  0.00000E+00  9.000E+00
</event>
<event>
      5  10001  2.40292E+09  8.81001E+00 -1.00000E+00  2.02278E-01
      -5    -1     0     0     0   513  0.000000000E+00  0.000000000E+00  1.191657458E+00  1.191657458E+00  0.000000000E+00  0.00000E+00  9.000E+00
       2    -1     0     0   513     0  0.000000000E+00  0.000000000E+00 -6.182798540E+02  6.182798540E+02  0.000000000E+00  0.00000E+00  9.000E+00
      -5     1     1     2     0   512  6.848427510E+00  1.272197347E+01 -5.335271261E+01  5.548244328E+01  4.800000191E+00  0.00000E+00  9.000E+00
       2     1     1     2   511     0  1.087365292E-01 -4.804100107E+00 -3.063464953E+02  3.063843587E+02  3.300000131E-01  0.00000E+00  9.000E+00
      21     1     1     2   512   511 -6.957164040E+00 -7.917873360E+00 -2.573889886E+02  2.576047094E+02  0.000000000E+00  0.00000E+00  9.000E+00
</event>
<event>
      5  10001  2.40292E+09  2.52877E+00 -1.00000E+00  3.21204E-01
      -1    -1     0     0     0   514  0.000000000E+00  0.000000000E+00  1.335716817E+01  1.335716817E+01  0.000000000E+00  0.00000E+00  9.000E+00
      21    -1     0     0   514   515  0.000000000E+00  0.000000000E+00 -2.371292201E+02  2.371292201E+02  0.000000000E+00  0.00000E+00  9.000E+00
      -1     1     1     2     0   513  4.595121996E+00 -1.005329935E+01  1.086162079E+01  1.550057032E+01  3.300000131E-01  0.00000E+00  9.000E+00
      21     1     1     2   513   516 -1.870860606E+00  9.141849271E+00 -2.052631810E+02  2.054751737E+02  2.697398305E-06  0.00000E+00  9.000E+00
      21     1     1     2   516   515 -2.724261390E+00  9.114500781E-01 -2.937049175E+01  2.951064430E+01  0.000000000E+00  0.00000E+00  9.000E+00
</event>
<event>
      5  10001  2.40292E+09  1.31911E+01 -1.00000E+00  1.82757E-01
      21    -1     0     0   512   514  0.000000000E+00  0.000000000E+00  1.227365211E+01  1.227365211E+01  0.000000000E+00  0.00000E+00  9.000E+00
      21    -1     0     0   511   512  0.000000000E+00  0.000000000E+00 -1.656410559E+02  1.656410559E+02  0.000000000E+00  0.00000E+00  9.000E+00
      21     1     1     2   513   514 -2.363054569E+00 -9.833520581E+00  3.428959625E+00  1.067894742E+01  7.873681077E-07  0.00000E+00  9.000E+00
       4     1     1     2   511     0 -8.670279527E+00  1.588389501E+01 -1.529048081E+02  1.539792265E+02  1.500000000E+00  0.00000E+00  9.000E+00
      -4     1     1     2     0   513  1.103333410E+01 -6.050374425E+00 -3.891555318E+00  1.325653404E+01  1.500000000E+00  0.00000E+00  9.000E+00
</event>
<event>
      5  10001  2.40292E+09  4.52240E+01 -1.00000E+00  1.41580E-01
      21    -1     0     0   515   511  0.000000000E+00  0.000000000E+00  1.139767809E+01  1.139767809E+01  0.000000000E+00  0.00000E+00  9.000E+00
      21    -1     0     0   514   513  0.000000000E+00  0.000000000E+00 -1.368474120E+02  1.368474120E+02  0.000000000E+00  0.00000E+00  9.000E+00
      21     1     1     2   515   513  4.197479230E+00  8.742078484E+00 -1.249936795E+02  1.253693052E+02  1.348699152E-06  0.00000E+00  9.000E+00
      21     1     1     2   512   511 -6.686083825E+00 -2.726309322E+00 -9.375173849E+00  1.183344262E+01  1.685873940E-07  0.00000E+00  9.000E+00
      21     1     1     2   514   512  2.488604596E+00 -6.015769162E+00  8.919119446E+00  1.104234229E+01  6.194296387E-07  0.00000E+00  9.000E+00
</event>
<event>
      5  10001  2.40292E+09  8.98801E+00 -1.00000E+00  2.01209E-01
      21    -1     0     0   516   512  0.000000000E+00  0.000000000E+00  2.720978067E+01  2.720978067E+01  0.000000000E+00  0.00000E+00  9.000E+00
      21    -1     0     0   514   516  0.000000000E+00  0.000000000E+00 -2.632763391E+01  2.632763391E+01  0.000000000E+00  0.00000E+00  9.000E+00
      21     1     1     2   514   517  2.867900006E+00  1.187963719E+01 -2.082537616E+01  2.414636458E+01  2.384185791E-07  0.00000E+00  9.000E+00
      21     1     1     2   511   512  3.388939090E+00 -1.237838107E+01  1.798158214E+01  2.209177499E+01  3.371747881E-07  0.00000E+00  9.000E+00
      21     1     1     2   517   511 -6.256839096E+00  4.987438781E-01  3.725940785E+00  7.299275009E+00  8.429369702E-08  0.00000E+00  9.000E+00
</event>
<event>
      5  10001  2.40292E+09  9.84949E+00 -1.00000E+00  1.96463E-01
       1    -1     0     0   515     0  0.000000000E+00  0.000000000E+00  2.227821775E+02  2.227821775E+02  0.000000000E+00  0.00000E+00  9.000E+00
      21    -1     0     0   511   512  0.000000000E+00  0.000000000E+00 -1.940875894E+01  1.940875894E+01  0.000000000E+00  0.00000E+00  9.000E+00
      21     1     1     2   511   513 -1.550626311E+00 -7.034903803E+00 -1.591724714E+01  1.747149306E+01  8.920806376E-07  0.00000E+00  9.000E+00
       1     1     1     2   513     0  4.416871348E+00  1.645805892E+01  2.114352634E+02  2.121210880E+02  3.300000131E-01  0.00000E+00  9.000E+00
      21     1     1     2   515   512 -2.866245037E+00 -9.423155120E+00  7.855402261E+00  1.259835536E+01  2.384185791E-07  0.00000E+00  9.000E+00
</event>
<event>
      5  10001  2.40292E+09  1.31136E+01 -1.00000E+00  1.83014E-01
      21    -1     0     0   514   511  0.000000000E+00  0.000000000E+00  3.294770353E+01  3.294770353E+01  0.000000000E+00  0.00000E+00  9.000E+00
      21    -1     0     0   516   514  0.000000000E+00  0.000000000E+00 -1.217265851E+01  1.217265851E+01  0.000000000E+00  0.00000E+00  9.000E+00
      21     1     1     2   512   511  3.764441950E+00  1.760860884E+01  1.199973893E+01  2.163857349E+01  4.129530925E-07  0.00000E+00  9.000E+00
      21     1     1     2   516   513 -7.373034186E+00 -6.497371303E+00  2.180482779E+00  1.006637830E+01  9.424321831E-08  0.00000E+00  9.000E+00
      21     1     1     2   513   512  3.608592236E+00 -1.111123753E+01  6.594823309E+00  1.341541024E+01  2.384185791E-07  0.00000E+00  9.000E+00
</event>
<event>
      5  10001  2.40292E+09  9.59616E+00 -1.00000E+00  1.97790E-01
      21    -1     0     0   515   516  0.000000000E+00  0.000000000E+00  1.948583851E+01  1.948583851E+01  0.000000000E+00  0.00000E+00  9.000E+00
      21    -1     0     0   511   512  0.000000000E+00  0.000000000E+00 -5.484363076E+00  5.484363076E+00  0.000000000E+00  0.00000E+00  9.000E+00
      21     1     1     2   515   512  2.791699103E+00 -7.334507160E+00  5.322949663E+00  9.482740757E+00  2.064765462E-07  0.00000E+00  9.000E+00
      21     1     1     2   511   514  3.055157065E+00  5.987323600E+00  5.571800348E+00  8.730806818E+00  1.576990671E-07  0.00000E+00  9.000E+00
      21     1     1     2   514   516 -5.846856167E+00  1.347183560E+00  3.106725426E+00  6.756654014E+00  4.214684851E-08  0.00000E+00  9.000E+00
</event>
<event>
      5  10001  2.40292E+09  3.45882E+00 -1.00000E+00  2.79169E-01
      21    -1     0     0   513   511  0.000000000E+00  0.000000000E+00  2.411446911E+00  2.411446911E+00  0.000000000E+00  0.00000E+00  9.000E+00
      21    -1     0     0   512   513  0.000000000E+00  0.000000000E+00 -8.092432032E+02  8.092432032E+02  0.000000000E+00  0.00000E+00  9.000E+00
      21     1     1     2   516   517 -7.546012031E+00 -5.179235376E+00 -4.150870749E+02  4.151879653E+02  9.344061824E-06  0.00000E+00  9.000E+00
      21     1     1     2   517   511  9.098936312E+00  8.269847624E+00 -1.370887538E+01  1.841505596E+01  9.830249847E-07  0.00000E+00  9.000E+00
      21     1     1     2   512   516 -1.552924281E+00 -3.090612248E+00 -3.780358060E+02  3.780516288E+02  5.394796609E-06  0.00000E+00  9.000E+00
</event>
<event>
      5  10001  2.40292E+09  8.12549E+00 -1.00000E+00  2.06725E-01
       3    -1     0     0   512     0  0.000000000E+00  0.000000000E+00  2.025876178E+01  2.025876178E+01  0.000000000E+00  0.00000E+00  9.000E+00
       2    -1     0     0   514     0  0.000000000E+00  0.000000000E+00 -7.909645966E+02  7.909645966E+02  0.000000000E+00  0.00000E+00  9.000E+00
      21     1     1     2   514   511  6.642104939E+00  1.043801384E+01 -3.786599008E+02  3.788619671E+02  5.394796609E-06  0.00000E+00  9.000E+00
       2     1     1     2   512     0 -1.435026833E+01 -7.867635965E+00 -4.112122122E+02  4.115378746E+02  3.300000131E-01  0.00000E+00  9.000E+00
       3     1     1     2   511     0  7.708163393E+00 -2.570377880E+00  1.916627816E+01  2.082351660E+01  5.000000000E-01  0.00000E+00  9.000E+00
</event>
<event>
      5  10001 -2.40292E+09  7.57260E+00 -1.00000E+00  2.10770E-01
      21    -1     0     0   513   514  0.000000000E+00  0.000000000E+00  9.336360181E+01  9.336360181E+01  0.000000000E+00  0.00000E+00  9.000E+00
      21    -1     0     0   511   515  0.000000000E+00  0.000000000E+00 -8.705482866E+02  8.705482866E+02  0.000000000E+00  0.00000E+00  9.000E+00
      21     1     1     2   513   515 -8.510688558E+00  8.733479877E+00 -8.693431042E+02  8.694286275E+02  1.525878906E-05  0.00000E+00  9.000E+00
      21     1     1     2   512   514  9.298355315E+00 -1.384463216E+00  7.748785221E+01  7.805602725E+01  5.800974398E-06  0.00000E+00  9.000E+00
      21     1     1     2   511   512 -7.876667568E-01 -7.349016660E+00  1.467056719E+01  1.642723368E+01  1.526623782E-06  0.00000E+00  9.000E+00
</event>
<event>
      5  10001  2.40292E+09  1.22368E+01 -1.00000E+00  1.86088E-01
      21    -1     0     0   516   512  0.000000000E+00  0.000000000E+00  6.625418948E+00  6.625418948E+00  0.000000000E+00  0.00000E+00  9.000E+00
      21    -1     0     0   511   517  0.000000000E+00  0.000000000E+00 -1.482981898E+02  1.482981898E+02  0.000000000E+00  0.00000E+00  9.000E+00
      21     1     1     2   516   517  7.960911254E+00  4.659141294E+00 -1.291297982E+02  1.294588293E+02  2.697398305E-06  0.00000E+00  9.000E+00
      -4     1     1     2     0   512 -2.947413826E+00  3.091469041E+00  4.271798310E+00  6.224362609E+00  1.500000000E+00  0.00000E+00  9.000E+00
       4     1     1     2   511     0 -5.013497428E+00 -7.750610335E+00 -1.681477099E+01  1.924041685E+01  1.500000000E+00  0.00000E+00  9.000E+00
</event>
<event>
      5  10001  2.40292E+09  6.56223E+00 -1.00000E+00  2.19521E-01
      21    -1     0     0   513   515  0.000000000E+00  0.000000000E+00  4.879833493E+00  4.879833493E+00  0.000000000E+00  0.00000E+00  9.000E+00
      21    -1     0     0   511   513  0.000000000E+00  0.000000000E+00 -4.309367165E+01  4.309367165E+01  0.000000000E+00  0.00000E+00  9.000E+00
      21     1     1     2   511   514  1.160308099E+01  2.658814567E-01 -3.262474732E+01  3.462768140E+01  6.743495762E-07  0.00000E+00  9.000E+00
      21     1     1     2   514   512 -2.761827205E+00  1.215266717E+00 -2.311402134E+00  3.800939691E+00  5.161913656E-08  0.00000E+00  9.000E+00
      21     1     1     2   512   515 -8.841253784E+00 -1.481148174E+00 -3.277688703E+00  9.544884055E+00  1.332800375E-07  0.00000E+00  9.000E+00
</event>
<event>
      5  10001  2.40292E+09  9.34357E+00 -1.00000E+00  1.99168E-01
      21    -1     0     0   516   514  0.000000000E+00  0.000000000E+00  1.634712536E+01  1.634712536E+01  0.000000000E+00  0.00000E+00  9.000E+00
      21    -1     0     0   513   516  0.000000000E+00  0.000000000E+00 -1.148676365E+02  1.148676365E+02  0.000000000E+00  0.00000E+00  9.000E+00
      21     1     1     2   515   511  2.608256758E+00 -2.187237803E+01 -3.553588287E+01  4.180912454E+01  4.768371582E-07  0.00000E+00  9.000E+00
      21     1     1     2   511   514 -8.885677770E+00  2.879309462E+01 -4.845027941E+00  3.052002397E+01  3.625608999E-07  0.00000E+00  9.000E+00
      21     1     1     2   513   515  6.277421012E+00 -6.920716600E+00 -5.813960029E+01  5.888561331E+01  6.743495762E-07  0.00000E+00  9.000E+00
</event>
<event>
      5  10001  2.40292E+09  1.40380E+01 -1.00000E+00  1.80090E-01
      21    -1     0     0   512   513  0.000000000E+00  0.000000000E+00  7.971682604E+02  7.971682604E+02  0.000000000E+00  0.00000E+00  9.000E+00
       2    -1     0     0   511     0  0.000000000E+00  0.000000000E+00 -2.555371739E-01  2.555371739E-01  0.000000000E+00  0.00000E+00  9.000E+00
      21     1     1     2   511   513  8.301221185E+00 -5.927731729E+00  4.294388551E+02  4.295599824E+02  5.394796609E-06  0.00000E+00  9.000E+00
      21     1     1     2   512   514 -7.771521075E+00  7.290215284E-01  3.211704982E+02  3.212653373E+02  5.394796609E-06  0.00000E+00  9.000E+00
       2     1     1     2   514     0 -5.297001099E-01  5.198710200E+00  4.630336998E+01  4.659847789E+01  3.300000131E-01  0.00000E+00  9.000E+00
</event>
<event>
      5  10001  2.40292E+09  6.18870E+00 -1.00000E+00  2.23326E-01
      21    -1     0     0   515   513  0.000000000E+00  0.000000000E+00  2.215898986E+01  2.215898986E+01  0.000000000E+00  0.00000E+00  9.000E+00
      21    -1     0     0   516   515  0.000000000E+00  0.000000000E+00 -2.852857267E+01  2.852857267E+01  0.000000000E+00  0.00000E+00  9.000E+00
      21     1     1     2   516   511 -9.105346316E+00 -7.546058442E+00 -2.510499559E+01  2.775087626E+01  3.371747881E-07  0.00000E+00  9.000E+00
      21     1     1     2   512   513  3.327077082E+00  6.339707320E+00  8.426954499E+00  1.105779783E+01  0.000000000E+00  0.00000E+00  9.000E+00
      21     1     1     2   511   512  5.778269234E+00  1.206351122E+00  1.030845828E+01  1.187888844E+01  1.685873940E-07  0.00000E+00  9.000E+00
</event>
<event>
      5  10001  2.40292E+09  2.12747E+01 -1.00000E+00  1.64145E-01
      21    -1     0     0   514   512  0.000000000E+00  0.000000000E+00  1.509509185E+00  1.509509185E+00  0.000000000E+00  0.00000E+00  9.000E+00
      21    -1     0     0   511   517  0.000000000E+00  0.000000000E+00 -9.088735294E+01  9.088735294E+01  0.000000000E+00  0.00000E+00  9.000E+00
      21     1     1     2   514   517 -7.049813662E-01 -8.168677489E-01 -2.228660201E+00  2.476125590E+00  7.300048300E-08  0.00000E+00  9.000E+00
      21     1     1     2   511   513  4.046895322E+00  6.291357640E-01 -8.639194553E+01  8.648896707E+01  9.536743164E-07  0.00000E+00  9.000E+00
      21     1     1     2   513   512 -3.341913956E+00  1.877319849E-01 -7.572380239E-01  3.431769458E+00  1.781919709E-07  0.00000E+00  9.000E+00
</event>
<event>
      5  10001  2.40292E+09  2.19873E+01 -1.00000E+00  1.63005E-01
      21    -1     0     0   511   512  0.000000000E+00  0.000000000E+00  6.047051578E+00  6.047051578E+00  0.000000000E+00  0.00000E+00  9.000E+00
       2    -1     0     0   512     0  0.000000000E+00  0.000000000E+00 -1.719411475E+02  1.719411475E+02  0.000000000E+00  0.00000E+00  9.000E+00
      21     1     1     2   511   513 -7.845843709E+00  3.515345535E+00  7.402290639E-01  8.629186334E+00  2.568019620E-07  0.00000E+00  9.000E+00
       2     1     1     2   514     0  7.493746153E+00  1.026969705E+01 -1.215371687E+02  1.222007168E+02  3.300000131E-01  0.00000E+00  9.000E+00
      21     1     1     2   513   514  3.520975553E-01 -1.378504259E+01 -4.509715624E+01  4.715829591E+01  6.743495762E-07  0.00000E+00  9.000E+00
</event>
<event>
      5  10001  2.40292E+09  2.00956E+01 -1.00000E+00  1.66157E-01
      21    -1     0     0   516   512  0.000000000E+00  0.000000000E+00  5.897915795E-01  5.897915795E-01  0.000000000E+00  0.00000E+00  9.000E+00
      -3    -1     0     0     0   515  0.000000000E+00  0.000000000E+00 -1.958934358E+02  1.958934358E+02  0.000000000E+00  0.00000E+00  9.000E+00
      -3     1     1     2     0   511  9.502306615E-01  9.091183235E-01 -1.824034061E+02  1.824088320E+02  5.000000000E-01  0.00000E+00  9.000E+00
      21     1     1     2   516   515  1.022154631E+00  8.825460016E-01 -1.017029914E+01  1.025956491E+01  0.000000000E+00  0.00000E+00  9.000E+00
      21     1     1     2   511   512 -1.972385292E+00 -1.791664325E+00 -2.729939032E+00  3.814830522E+00  2.682209015E-07  0.00000E+00  9.000E+00
</event>
<event>
      5  10001  2.40292E+09  7.91020E+00 -1.00000E+00  2.08247E-01
      21    -1     0     0   513   514  0.000000000E+00  0.000000000E+00  9.950930963E+00  9.950930963E+00  0.000000000E+00  0.00000E+00  9.000E+00
       2    -1     0     0   511     0  0.000000000E+00  0.000000000E+00 -1.047680871E+02  1.047680871E+02  0.000000000E+00  0.00000E+00  9.000E+00
      21     1     1     2   513   512  1.013152988E+01  1.296879014E+01 -1.018577780E+01  1.935426271E+01  2.665600750E-07  0.00000E+00  9.000E+00
      21     1     1     2   511   514 -1.025354283E+01 -5.059786803E+00 -1.130886500E+00  1.148979928E+01  2.374854304E-07  0.00000E+00  9.000E+00
       2     1     1     2   512     0  1.220129510E-01 -7.909003339E+00 -8.350049185E+01  8.387495610E+01  3.300000131E-01  0.00000E+00  9.000E+00
</event>
<event>
      5  10001  2.40292E+09  1.38322E+01 -1.00000E+00  1.80716E-01
      21    -1     0     0   511   512  0.000000000E+00  0.000000000E+00  1.208347184E-01  1.208347184E-01  0.000000000E+00  0.00000E+00  9.000E+00
       2    -1     0     0   512     0  0.000000000E+00  0.000000000E+00 -1.533379047E+03  1.533379047E+03  0.000000000E+00  0.00000E+00  9.000E+00
      21     1     1     2   511   515 -3.222836841E+00  9.164323785E+00 -2.889534033E+02  2.891166560E+02  3.814697266E-06  0.00000E+00  9.000E+00
      21     1     1     2   515   513  4.548126572E+00  1.081119249E-01 -4.564001825E+02  4.564228563E+02  5.394796609E-06  0.00000E+00  9.000E+00
       2     1     1     2   513     0 -1.325289731E+00 -9.272435710E+00 -7.879046268E+02  7.879603697E+02  3.300000131E-01  0.00000E+00  9.000E+00
</event>
<event>
      5  10001  2.40292E+09  5.89353E+00 -1.00000E+00  2.26607E-01
      -2    -1     0     0     0   514  0.000000000E+00  0.000000000E+00  1.382788554E+02  1.382788554E+02  0.000000000E+00  0.00000E+00  9.000E+00
      -2    -1     0     0     0   512  0.000000000E+00  0.000000000E+00 -4.286705341E+00  4.286705341E+00  0.000000000E+00  0.00000E+00  9.000E+00
      -2     1     1     2     0   514  7.872776106E+00 -1.112353198E+01  1.081442300E+01  1.740040839E+01  3.300000131E-01  0.00000E+00  9.000E+00
      -2     1     1     2     0   511 -2.043312195E+00  1.026112394E+01  1.123594128E+02  1.128459673E+02  3.300000131E-01  0.00000E+00  9.000E+00
      21     1     1     2   511   512 -5.829463911E+00  8.624080433E-01  1.081831424E+01  1.231918505E+01  1.192092896E-07  0.00000E+00  9.000E+00
</event>
<event>
      5  10001  2.40292E+09  6.98572E+00 -1.00000E+00  2.15608E-01
      21    -1     0     0   513   512  0.000000000E+00  0.000000000E+00  2.464888622E+00  2.464888622E+00  0.000000000E+00  0.00000E+00  9.000E+00
      21    -1     0     0   514   515  0.000000000E+00  0.000000000E+00 -1.774918995E+02  1.774918995E+02  0.000000000E+00  0.00000E+00  9.000E+00
      21     1     1     2   513   515  1.593030967E+00 -1.792944596E+01 -1.253791055E+02  1.266646079E+02  1.907348633E-06  0.00000E+00  9.000E+00
      21     1     1     2   516   512 -2.462606263E-01  7.602528878E+00 -1.181303064E+01  1.405015241E+01  2.384185791E-07  0.00000E+00  9.000E+00
      21     1     1     2   514   516 -1.346770340E+00  1.032691708E+01 -3.783487471E+01  3.924202787E+01  4.768371582E-07  0.00000E+00  9.000E+00
</event>
<event>
      5  10001  2.40292E+09  7.67927E+00 -1.00000E+00  2.09954E-01
      -5    -1     0     0     0   511  0.000000000E+00  0.000000000E+00  3.158763203E+00  3.158763203E+00  0.000000000E+00  0.00000E+00  9.000E+00
      21    -1     0     0   511   513  0.000000000E+00  0.000000000E+00 -3.745880143E+01  3.745880143E+01  0.000000000E+00  0.00000E+00  9.000E+00
      -5     1     1     2     0   512 -8.587134391E+00 -2.200941201E+00 -1.045256958E+01  1.452168144E+01  4.800000191E+00  0.00000E+00  9.000E+00
      21     1     1     2   515   513  3.083321115E+00  2.991267446E+00 -5.842138299E+00  7.251560517E+00  1.192092896E-07  0.00000E+00  9.000E+00
      21     1     1     2   512   515  5.503813275E+00 -7.903262450E-01 -1.800533035E+01  1.884432268E+01  3.371747881E-07  0.00000E+00  9.000E+00
</event>
<event>
      5  10001  2.40292E+09  1.15410E+01 -1.00000E+00  1.88773E-01
      21    -1     0     0   514   513  0.000000000E+00  0.000000000E+00  2.697277173E+02  2.697277173E+02  0.000000000E+00  0.00000E+00  9.000E+00
      21    -1     0     0   511   514  0.000000000E+00  0.000000000E+00 -4.730294636E+02  4.730294636E+02  0.000000000E+00  0.00000E+00  9.000E+00
      21     1     1     2   511   516 -8.272003190E+00 -1.137209672E+01 -4.505782943E+02  4.507976818E+02  0.000000000E+00  0.00000E+00  9.000E+00
      21     1     1     2   516   512  9.028832690E+00 -1.440545829E-01 -2.130002655E+01  2.313507516E+01  9.830249847E-07  0.00000E+00  9.000E+00
      21     1     1     2   512   513 -7.568294996E-01  1.151615131E+01  2.685765745E+02  2.688244239E+02  0.000000000E+00  0.00000E+00  9.000E+00
</event>
<event>
      5  10001  2.40292E+09  9.84244E+00 -1.00000E+00  1.96499E-01
      21    -1     0     0   515   516  0.000000000E+00  0.000000000E+00  2.583030273E+00  2.583030273E+00  0.000000000E+00  0.00000E+00  9.000E+00
      21    -1     0     0   511   513  0.000000000E+00  0.000000000E+00 -5.037604731E+02  5.037604731E+02  0.000000000E+00  0.00000E+00  9.000E+00
      21     1     1     2   515   513  1.994105711E+01  1.502800867E+00 -4.269387496E+01  4.714521320E+01  1.507891493E-06  0.00000E+00  9.000E+00
      21     1     1     2   511   514 -9.870942484E+00 -2.481970778E+00 -3.697014783E+02  3.698415590E+02  5.394796609E-06  0.00000E+00  9.000E+00
      21     1     1     2   514   516 -1.007011463E+01  9.791699111E-01 -8.878208957E+01  8.935673120E+01  1.348699152E-06  0.00000E+00  9.000E+00
</event>
<event>
      5  10001  2.40292E+09  4.77329E+00 -1.00000E+00  2.46510E-01
      21    -1     0     0   511   512  0.000000000E+00  0.000000000E+00  1.539998786E+01  1.539998786E+01  0.000000000E+00  0.00000E+00  9.000E+00
      21    -1     0     0   514   515  0.000000000E+00  0.000000000E+00 -2.092017139E+01  2.092017139E+01  0.000000000E+00  0.00000E+00  9.000E+00
      -4     1     1     2     0   515 -6.639520572E+00 -8.766484417E+00  2.790421289E+00  1.144425329E+01  1.500000000E+00  0.00000E+00  9.000E+00
      21     1     1     2   514   512  9.630651255E+00  5.086140561E+00 -1.372650431E+01  1.752241964E+01  2.384185791E-07  0.00000E+00  9.000E+00
       4     1     1     2   511     0 -2.991130684E+00  3.680343856E+00  5.415899499E+00  7.353486319E+00  1.500000000E+00  0.00000E+00  9.000E+00
</event>
<event>
      5  10001  2.40292E+09  2.68591E+00 -1.00000E+00  3.12091E-01
      21    -1     0     0   513   512  0.000000000E+00  0.000000000E+00  1.397506672E+02  1.397506672E+02  0.000000000E+00  0.00000E+00  9.000E+00
      21    -1     0     0   516   513  0.000000000E+00  0.000000000E+00 -4.060793116E+01  4.060793116E+01  0.000000000E+00  0.00000E+00  9.000E+00
      21     1     1     2   514   512 -8.286759540E+00 -1.518829100E+01  1.356100973E+02  1.367093744E+02  1.907348633E-06  0.00000E+00  9.000E+00
      21     1     1     2   515   514  6.729147585E+00  1.633069230E+01 -3.750539802E+01  4.145633630E+01  0.000000000E+00  0.00000E+00  9.000E+00
      21     1     1     2   516   515  1.557611955E+00 -1.142401300E+00  1.038036707E+00  2.192887580E+00  1.490116119E-08  0.00000E+00  9.000E+00
</event>
<event>
      5  10001  2.40292E+09  1.03983E+01 -1.00000E+00  1.93759E-01
      -2    -1     0     0     0   511  0.000000000E+00  0.000000000E+00  5.253256327E+02  5.253256327E+02  0.000000000E+00  0.00000E+00  9.000E+00
      21    -1     0     0   514   513  0.000000000E+00  0.000000000E+00 -1.128511296E+01  1.128511296E+01  0.000000000E+00  0.00000E+00  9.000E+00
      -2     1     1     2     0   512  4.646571313E+00 -2.485026865E+00  4.499207727E+02  4.499517491E+02  3.300000131E-01  0.00000E+00  9.000E+00
      21     1     1     2   514   511 -1.031494545E+01 -5.224343844E+00 -7.901735827E+00  1.400461700E+01  1.507891493E-06  0.00000E+00  9.000E+00
      21     1     1     2   512   513  5.668374137E+00  7.709370709E+00  7.202148295E+01  7.265437956E+01  9.536743164E-07  0.00000E+00  9.000E+00
</event>
<event>
      5  10001  2.40292E+09  6.90390E+00 -1.00000E+00  2.16334E-01
      21    -1     0     0   515   511  0.000000000E+00  0.000000000E+00  3.692725475E+01  3.692725475E+01  0.000000000E+00  0.00000E+00  9.000E+00
      -3    -1     0     0     0   513  0.000000000E+00  0.000000000E+00 -3.207606194E+00  3.207606194E+00  0.000000000E+00  0.00000E+00  9.000E+00
      21     1     1     2   514   511  1.977898307E+00  5.190667754E+00  1.989238641E+01  2.065338110E+01  3.371747881E-07  0.00000E+00  9.000E+00
      21     1     1     2   515   513 -2.028004395E+00 -9.019632219E+00  1.215983006E+01  1.527507887E+01  0.000000000E+00  0.00000E+00  9.000E+00
      -3     1     1     2     0   514  5.010608807E-02  3.828964466E+00  1.667432082E+00  4.206400985E+00  5.000000000E-01  0.00000E+00  9.000E+00
</event>
<event>
      5  10001 -2.40292E+09  1.60421E+01 -1.00000E+00  1.74633E-01
      21    -1     0     0   512   516  0.000000000E+00  0.000000000E+00  7.086110370E+02  7.086110370E+02  0.000000000E+00  0.00000E+00  9.000E+00
      21    -1     0     0   511   514  0.000000000E+00  0.000000000E+00 -1.304036715E+01  1.304036715E+01  0.000000000E+00  0.00000E+00  9.000E+00
      21     1     1     2   512   514  1.190212710E+01 -2.543713782E-01 -1.022425767E+01  1.569269828E+01  1.338120956E-06  0.00000E+00  9.000E+00
      21     1     1     2   513   516 -2.807724641E-01  3.120847493E+00  1.825308323E+02  1.825577259E+02  2.697398305E-06  0.00000E+00  9.000E+00
      21     1     1     2   511   513 -1.162135464E+01 -2.866476115E+00  5.232640952E+02  5.234009800E+02  1.078959322E-05  0.00000E+00  9.000E+00
</event>
<event>
      5  10001  2.40292E+09  1.20656E+01 -1.00000E+00  1.86726E-01
      21    -1     0     0   515   516  0.000000000E+00  0.000000000E+00  2.154023754E+00  2.154023754E+00  0.000000000E+00  0.00000E+00  9.000E+00
      21    -1     0     0   511   515  0.000000000E+00  0.000000000E+00 -7.945498408E+01  7.945498408E+01  0.000000000E+00  0.00000E+00  9.000E+00
      21     1     1     2   513   516  1.041928539E+01 -3.958868669E+00 -2.896521936E+01  3.103575489E+01  0.000000000E+00  0.00000E+00  9.000E+00
      21     1     1     2   511   512 -5.003673629E+00 -3.161903134E+00 -2.021947497E+01  2.106802196E+01  3.371747881E-07  0.00000E+00  9.000E+00
      21     1     1     2   512   513 -5.415611759E+00  7.120771802E+00 -2.811626600E+01  2.950523099E+01  3.371747881E-07  0.00000E+00  9.000E+00
</event>
<event>
      5  10001  2.40292E+09  1.95712E+00 -1.00000E+00  3.67300E-01
      -1    -1     0     0     0   512  0.000000000E+00  0.000000000E+00  4.814049347E+02  4.814049347E+02  0.000000000E+00  0.00000E+00  9.000E+00
       2    -1     0     0   511     0  0.000000000E+00  0.000000000E+00 -9.039702387E+00  9.039702387E+00  0.000000000E+00  0.00000E+00  9.000E+00
      -1     1     1     2     0   513  4.663386956E+00  8.205502566E+00  4.761385821E+02  4.762322287E+02  3.300000131E-01  0.00000E+00  9.000E+00
       2     1     1     2   513     0 -6.296137686E+00 -9.284558540E+00 -4.545544298E+00  1.210847844E+01  3.300000131E-01  0.00000E+00  9.000E+00
      21     1     1     2   511   512  1.632750730E+00  1.079055974E+00  7.721945639E-01  2.103929939E+00  1.825012075E-08  0.00000E+00  9.000E+00
</event>
<event>
      5  10001  2.40292E+09  5.69065E+00 -1.00000E+00  2.29021E-01
       1    -1     0     0   514     0  0.000000000E+00  0.000000000E+00  3.642465530E+01  3.642465530E+01  0.000000000E+00  0.00000E+00  9.000E+00
      21    -1     0     0   511   514  0.000000000E+00  0.000000000E+00 -7.664481469E+01  7.664481469E+01  0.000000000E+00  0.00000E+00  9.000E+00
      21     1     1     2   511   512  1.023095752E+01  9.495593394E+00 -4.036878497E+01  4.271390389E+01  6.743495762E-07  0.00000E+00  9.000E+00
      21     1     1     2   512   513 -4.947581757E+00 -1.160954797E+01 -3.372336504E+01  3.600729813E+01  4.768371582E-07  0.00000E+00  9.000E+00
       1     1     1     2   513     0 -5.283375768E+00  2.113954572E+00  3.387199063E+01  3.434826797E+01  3.300000131E-01  0.00000E+00  9.000E+00
</event>
<event>
      5  10001  2.40292E+09  8.44413E+00 -1.00000E+00  2.04585E-01
      21    -1     0     0   515   512  0.000000000E+00  0.000000000E+00  4.786129339E+01  4.786129339E+01  0.000000000E+00  0.00000E+00  9.000E+00
      21    -1     0     0   511   516  0.000000000E+00  0.000000000E+00 -3.035091098E+00  3.035091098E+00  0.000000000E+00  0.00000E+00  9.000E+00
      21     1     1     2   515   516  5.080201457E+00 -1.009577828E+01  1.470057386E+01  1.854292473E+01  3.371747881E-07  0.00000E+00  9.000E+00
      21     1     1     2   514   512 -4.322445013E-03  1.647415942E+00  2.263936853E+00  2.799894291E+00  4.214684851E-08  0.00000E+00  9.000E+00
      21     1     1     2   511   514 -5.075879012E+00  8.448362336E+00  2.786169158E+01  2.955356546E+01  4.768371582E-07  0.00000E+00  9.000E+00
</event>
<event>
      5  10001  2.40292E+09  1.10201E+01 -1.00000E+00  1.90948E-01
      -4    -1     0     0     0   513  0.000000000E+00  0.000000000E+00  1.490247885E+00  1.490247885E+00  0.000000000E+00  0.00000E+00  9.000E+00
      21    -1     0     0   512   514  0.000000000E+00  0.000000000E+00 -1.111860020E+02  1.111860020E+02  0.000000000E+00  0.00000E+00  9.000E+00
      -4     1     1     2     0   514  1.072536123E+01  5.397010399E-01 -3.112325717E+01  3.295803070E+01  1.500000000E+00  0.00000E+00  9.000E+00
      21     1     1     2   515   513 -4.382756071E+00  1.109444242E+00 -1.199094030E+01  1.281491579E+01  1.685873940E-07  0.00000E+00  9.000E+00
      21     1     1     2   512   515 -6.342605163E+00 -1.649145282E+00 -6.658155663E+01  6.690330338E+01  9.536743164E-07  0.00000E+00  9.000E+00
</event>
<event>
      5  10001  2.40292E+09  4.41270E+00 -1.00000E+00  2.53711E-01
       2    -1     0     0   511     0  0.000000000E+00  0.000000000E+00  1.807031216E+02  1.807031216E+02  0.000000000E+00  0.00000E+00  9.000E+00
      21    -1     0     0   512   511  0.000000000E+00  0.000000000E+00 -9.209090239E+01  9.209090239E+01  0.000000000E+00  0.00000E+00  9.000E+00
      21     1     1     2   515   513  8.429325297E+00  8.548528068E+00  3.527781317E+00  1.251303713E+01  4.150983178E-07  0.00000E+00  9.000E+00
      21     1     1     2   512   515 -9.930553650E+00 -4.399050377E+00 -8.723309004E+01  8.790665241E+01  2.132480600E-06  0.00000E+00  9.000E+00
       2     1     1     2   513     0  1.501228353E+00 -4.149477691E+00  1.723175280E+02  1.723743345E+02  3.300000131E-01  0.00000E+00  9.000E+00
</event>
<event>
      5  10001  2.40292E+09  7.78090E+00 -1.00000E+00  2.09193E-01
      21    -1     0     0   514   515  0.000000000E+00  0.000000000E+00  1.169325124E+02  1.169325124E+02  0.000000000E+00  0.00000E+00  9.000E+00
      21    -1     0     0   516   514  0.000000000E+00  0.000000000E+00 -8.606262879E+00  8.606262879E+00  0.000000000E+00  0.00000E+00  9.000E+00
      21     1     1     2   512   515  5.168607535E+00  9.367054472E+00  1.099509207E+02  1.104701823E+02  1.348699152E-06  0.00000E+00  9.000E+00
      -4     1     1     2     0   512 -6.112707555E+00 -2.118503143E+00 -3.307525137E+00  7.419095076E+00  1.500000000E+00  0.00000E+00  9.000E+00
       4     1     1     2   516     0  9.441000199E-01 -7.248551330E+00  1.682853992E+00  7.649497943E+00  1.500000000E+00  0.00000E+00  9.000E+00
</event>
<event>
      5  10001  2.40292E+09  6.21088E+00 -1.00000E+00  2.23090E-01
      21    -1     0     0   511   516  0.000000000E+00  0.000000000E+00  7.501258492E+01  7.501258492E+01  0.000000000E+00  0.00000E+00  9.000E+00
      21    -1     0     0   512   513  0.000000000E+00  0.000000000E+00 -6.471344781E+00  6.471344781E+00  0.000000000E+00  0.00000E+00  9.000E+00
      21     1     1     2   511   513 -8.091188285E+00 -1.051384130E+01  3.074832078E+01  3.348831762E+01  6.743495762E-07  0.00000E+00  9.000E+00
      21     1     1     2   515   516  1.906015205E+00  9.949391191E+00  4.010780085E+01  4.136736598E+01  0.000000000E+00  0.00000E+00  9.000E+00
      21     1     1     2   512   515  6.185173080E+00  5.644501059E-01 -2.314881492E+00  6.628246093E+00  4.214684851E-08  0.00000E+00  9.000E+00
</event>
<event>
      5  10001  2.40292E+09  5.95435E+00 -1.00000E+00  2.25909E-01
      21    -1     0     0   514   516  0.000000000E+00  0.000000000E+00  1.525115447E+02  1.525115447E+02  0.000000000E+00  0.00000E+00  9.000E+00
      21    -1     0     0   511   514  0.000000000E+00  0.000000000E+00 -2.069016147E+01  2.069016147E+01  0.000000000E+00  0.00000E+00  9.000E+00
      21     1     1     2   515   516 -1.029598654E+01  8.078368157E+00  1.479895303E+02  1.485670503E+02  2.697398305E-06  0.00000E+00  9.000E+00
      21     1     1     2   512   515  7.617460052E+00 -2.760492578E+00 -7.859860099E-01  8.140257424E+00  2.123088665E-07  0.00000E+00  9.000E+00
      21     1     1     2   511   512  2.678526486E+00 -5.317875579E+00 -1.538216098E+01  1.649439848E+01  4.768371582E-07  0.00000E+00  9.000E+00
</event>
<event>
      5  10001  2.40292E+09  3.81511E+00 -1.00000E+00  2.68296E-01
       2    -1     0     0   514     0  0.000000000E+00  0.000000000E+00  8.396231167E+00  8.396231167E+00  0.000000000E+00  0.00000E+00  9.000E+00
      21    -1     0     0   512   514  0.000000000E+00  0.000000000E+00 -7.057726484E+01  7.057726484E+01  0.000000000E+00  0.00000E+00  9.000E+00
      21     1     1     2   512   513 -1.119226703E+00 -1.009024062E+01 -6.399464220E+01  6.479490608E+01  6.743495762E-07  0.00000E+00  9.000E+00
       2     1     1     2   515     0  3.875042484E+00  8.582573264E+00  4.117558369E+00  1.028298133E+01  3.300000131E-01  0.00000E+00  9.000E+00
      21     1     1     2   513   515 -2.755815782E+00  1.507667351E+00 -2.303949850E+00  3.895608601E+00  9.424321831E-08  0.00000E+00  9.000E+00
</event>
<event>
      5  10001  2.40292E+09  5.10755E+00 -1.00000E+00  2.36825E-01
      21    -1     0     0   511   513  0.000000000E+00  0.000000000E+00  9.209521469E+01  9.209521469E+01  0.000000000E+00  0.00000E+00  9.000E+00
      21    -1     0     0   512   514  0.000000000E+00  0.000000000E+00 -7.388310128E+00  7.388310128E+00  0.000000000E+00  0.00000E+00  9.000E+00
      21     1     1     2   511   516  3.530654700E+00  1.071129755E+01  3.140851041E+01  3.337202337E+01  9.536743164E-07  0.00000E+00  9.000E+00
      21     1     1     2   512   513 -5.605959553E+00 -1.537822634E+01  5.731966265E+01  5.961090802E+01  6.743495762E-07  0.00000E+00  9.000E+00
      21     1     1     2   516   514  2.075304854E+00  4.666928789E+00 -4.021268500E+00  6.500593427E+00  2.149076030E-07  0.00000E+00  9.000E+00
</event>
<event>
      5  10001  2.40292E+09  5.72588E+00 -1.00000E+00  2.28592E-01
      21    -1     0     0   515   512  0.000000000E+00  0.000000000E+00  2.650826523E+01  2.650826523E+01  0.000000000E+00  0.00000E+00  9.000E+00
      21    -1     0     0   517   511  0.000000000E+00  0.000000000E+00 -8.379429608E+01  8.379429608E+01  0.000000000E+00  0.00000E+00  9.000E+00
      21     1     1     2   517   514 -1.027313385E+01  4.784035530E+00 -2.393007851E-01  1.133496978E+01  2.485078585E-08  0.00000E+00  9.000E+00
      21     1     1     2   514   512  8.716978609E+00 -1.029439783E+01  1.867080060E+01  2.303386936E+01  3.371747881E-07  0.00000E+00  9.000E+00
      21     1     1     2   515   511  1.556155244E+00  5.510362295E+00 -7.571753066E+01  7.593372216E+01  9.536743164E-07  0.00000E+00  9.000E+00
</event>
<event>
      5  10001  2.40292E+09  8.69658E+00 -1.00000E+00  2.02977E-01
      21    -1     0     0   513   512  0.000000000E+00  0.000000000E+00  1.265787526E+02  1.265787526E+02  0.000000000E+00  0.00000E+00  9.000E+00
      21    -1     0     0   516   513  0.000000000E+00  0.000000000E+00 -7.646451289E+00  7.646451289E+00  0.000000000E+00  0.00000E+00  9.000E+00
      21     1     1     2   511   512 -7.990484313E+00 -7.860470015E+00  1.160168091E+02  1.165570025E+02  0.000000000E+00  0.00000E+00  9.000E+00
      21     1     1     2   516   514  4.844341185E-01  8.123147110E+00 -2.379935449E+00  8.478460245E+00  4.235705854E-07  0.00000E+00  9.000E+00
      21     1     1     2   514   511  7.506050195E+00 -2.626770945E-01  5.295427641E+00  9.189741165E+00  2.384185791E-07  0.00000E+00  9.000E+00
</event>
<event>
      5  10001  2.40292E+09  1.24133E+01 -1.00000E+00  1.85443E-01
      21    -1     0     0   515   511  0.000000000E+00  0.000000000E+00  8.740100142E+01  8.740100142E+01  0.000000000E+00  0.00000E+00  9.000E+00
      21    -1     0     0   517   515  0.000000000E+00  0.000000000E+00 -1.525214050E+02  1.525214050E+02  0.000000000E+00  0.00000E+00  9.000E+00
      21     1     1     2   516   511  7.906806785E+00 -1.019413960E+01  8.649745705E+01  8.745426320E+01  0.000000000E+00  0.00000E+00  9.000E+00
      21     1     1     2   512   516 -1.220192202E+00  8.105810642E+00 -5.635099608E+01  5.694407603E+01  1.168007728E-06  0.00000E+00  9.000E+00
      21     1     1     2   517   512 -6.686614583E+00  2.088328961E+00 -9.526686460E+01  9.552406724E+01  1.348699152E-06  0.00000E+00  9.000E+00
</event>
<event>
      5  10001  2.40292E+09  4.04649E+00 -1.00000E+00  2.62186E-01
      21    -1     0     0   513   515  0.000000000E+00  0.000000000E+00  1.569068767E+01  1.569068767E+01  0.000000000E+00  0.00000E+00  9.000E+00
      21    -1     0     0   511   514  0.000000000E+00  0.000000000E+00 -1.441580646E+02  1.441580646E+02  0.000000000E+00  0.00000E+00  9.000E+00
      21     1     1     2   513   514  1.067799961E+01 -8.723533157E+00 -1.160176046E+02  1.168340887E+02  0.000000000E+00  0.00000E+00  9.000E+00
      21     1     1     2   511   512 -6.632184877E+00  8.797421343E+00 -2.633773627E+01  2.854920052E+01  4.768371582E-07  0.00000E+00  9.000E+00
      21     1     1     2   512   515 -4.045814737E+00 -7.388818521E-02  1.388796398E+01  1.446546301E+01  6.307962682E-07  0.00000E+00  9.000E+00
</event>
<event>
      5  10001  2.40292E+09  1.30992E+01 -1.00000E+00  1.83062E-01
      21    -1     0     0   516   511  0.000000000E+00  0.000000000E+00  1.648267846E+01  1.648267846E+01  0.000000000E+00  0.00000E+00  9.000E+00
      21    -1     0     0   517   515  0.000000000E+00  0.000000000E+00 -7.065221975E+00  7.065221975E+00  0.000000000E+00  0.00000E+00  9.000E+00
      21     1     1     2   516   515 -3.121094932E+00 -5.283861239E+00  1.805564924E+00  6.396912369E+00  1.788139343E-07  0.00000E+00  9.000E+00
      21     1     1     2   517   513  4.895916054E+00  1.357198397E+00  1.070313002E+01  1.184774129E+01  2.384185791E-07  0.00000E+00  9.000E+00
      21     1     1     2   513   511 -1.774821122E+00  3.926662841E+00 -3.091238462E+00  5.303246771E+00  1.837138534E-07  0.00000E+00  9.000E+00
</event>
<event>
      5  10001  2.40292E+09  3.57655E+00 -1.00000E+00  2.75353E-01
      21    -1     0     0   516   515  0.000000000E+00  0.000000000E+00  4.498765213E+01  4.498765213E+01  0.000000000E+00  0.00000E+00  9.000E+00
      21    -1     0     0   514   511  0.000000000E+00  0.000000000E+00 -2.039071868E+01  2.039071868E+01  0.000000000E+00  0.00000E+00  9.000E+00
      21     1     1     2   512   511 -1.156661697E+01 -5.329779151E+00 -1.439622451E+01  1.922093791E+01  4.768371582E-07  0.00000E+00  9.000E+00
      21     1     1     2   514   515  1.486580711E+01  3.948817486E+00  1.365482633E+01  2.056792801E+01  5.057621821E-07  0.00000E+00  9.000E+00
      21     1     1     2   516   512 -3.299190142E+00  1.380961665E+00  2.533833163E+01  2.558950489E+01  0.000000000E+00  0.00000E+00  9.000E+00
</event>
<event>
      5  10001  2.40292E+09  6.17426E+00 -1.00000E+00  2.23481E-01
      -3    -1     0     0     0   512  0.000000000E+00  0.000000000E+00  2.463011503E+00  2.463011503E+00  0.000000000E+00  0.00000E+00  9.000E+00
      21    -1     0     0   512   513  0.000000000E+00  0.000000000E+00 -3.747062991E+02  3.747062991E+02  0.000000000E+00  0.00000E+00  9.000E+00
      -3     1     1     2     0   511  5.645073498E-01  3.489533444E+00 -4.629044677E-01  3.599971216E+00  5.000000000E-01  0.00000E+00  9.000E+00
      21     1     1     2   515   513 -4.711996130E+00 -9.651581471E+00 -3.556365320E+02  3.557986774E+02  0.000000000E+00  0.00000E+00  9.000E+00
      21     1     1     2   511   515  4.147488780E+00  6.162048027E+00 -1.614385117E+01  1.777066205E+01  3.371747881E-07  0.00000E+00  9.000E+00
</event>
<event>
      5  10001  2.40292E+09  7.53177E+00 -1.00000E+00  2.11087E-01
      -1    -1     0     0     0   512  0.000000000E+00  0.000000000E+00  9.544668517E+01  9.544668517E+01  0.000000000E+00  0.00000E+00  9.000E+00
       1    -1     0     0   512     0  0.000000000E+00  0.000000000E+00 -1.211431681E+01  1.211431681E+01  0.000000000E+00  0.00000E+00  9.000E+00
      -1     1     1     2     0   514 -1.587553752E+01 -8.234374724E+00  8.115651740E+01  8.310431298E+01  3.300000131E-01  0.00000E+00  9.000E+00
       1     1     1     2   513     0  1.289366532E+01  1.191932264E+01 -2.569843047E+00  1.774908028E+01  3.300000131E-01  0.00000E+00  9.000E+00
      21     1     1     2   514   513  2.981872209E+00 -3.684947919E+00  4.745694005E+00  6.707608712E+00  1.192092896E-07  0.00000E+00  9.000E+00
</event>
<event>
      5  10001  2.40292E+09  1.48971E+01 -1.00000E+00  1.77618E-01
      21    -1     0     0   511   513  0.000000000E+00  0.000000000E+00  1.121575627E+01  1.121575627E+01  0.000000000E+00  0.00000E+00  9.000E+00
      21    -1     0     0   512   515  0.000000000E+00  0.000000000E+00 -1.780286886E+02  1.780286886E+02  0.000000000E+00  0.00000E+00  9.000E+00
      21     1     1     2   511   515  7.071843461E+00  8.158094157E+00 -1.720777410E+02  1.724161084E+02  1.907348633E-06  0.00000E+00  9.000E+00
       2     1     1     2   512     0 -8.292867604E+00 -3.059263802E+00 -7.084083693E-01  8.873640208E+00  3.300000131E-01  0.00000E+00  9.000E+00
      -2     1     1     2     0   513  1.221024144E+00 -5.098830354E+00  5.973217068E+00  7.954696291E+00  3.300000131E-01  0.00000E+00  9.000E+00
</event>
<event>
      5  10001  2.40292E+09  7.42697E+00 -1.00000E+00  2.11913E-01
      -5    -1     0     0     0   513  0.000000000E+00  0.000000000E+00  9.766524855E+00  9.766524855E+00  0.000000000E+00  0.00000E+00  9.000E+00
      21    -1     0     0   513   511  0.000000000E+00  0.000000000E+00 -8.657939445E+01  8.657939445E+01  0.000000000E+00  0.00000E+00  9.000E+00
      -5     1     1     2     0   514 -7.324182829E+00  1.190759065E+01  2.894941112E+00  1.506170824E+01  4.800000191E+00  0.00000E+00  9.000E+00
      21     1     1     2   514   512  6.255934294E+00 -3.328265223E+00 -4.237389844E+01  4.296232457E+01  6.743495762E-07  0.00000E+00  9.000E+00
      21     1     1     2   512   511  1.068248534E+00 -8.579325426E+00 -3.733391227E+01  3.832188650E+01  4.768371582E-07  0.00000E+00  9.000E+00
</event>
<event>
      5  10001  2.40292E+09  1.54652E+01 -1.00000E+00  1.76096E-01
      21    -1     0     0   511   513  0.000000000E+00  0.000000000E+00  1.677740323E+00  1.677740323E+00  0.000000000E+00  0.00000E+00  9.000E+00
      21    -1     0     0   512   511  0.000000000E+00  0.000000000E+00 -8.242760261E+01  8.242760261E+01  0.000000000E+00  0.00000E+00  9.000E+00
      -3     1     1     2     0   514  3.733994404E-01  4.871782706E+00 -1.734279950E+01  1.802488248E+01  5.000000000E-01  0.00000E+00  9.000E+00
       3     1     1     2   512     0  8.491221803E+00 -2.492891390E+00 -3.925399910E+01  4.024228871E+01  5.000000000E-01  0.00000E+00  9.000E+00
      21     1     1     2   514   513 -8.864621243E+00 -2.378891316E+00 -2.415306370E+01  2.583817175E+01  0.000000000E+00  0.00000E+00  9.000E+00
</event>
<event>
      5  10001  2.40292E+09  6.58544E+00 -1.00000E+00  2.19296E-01
      21    -1     0     0   515   516  0.000000000E+00  0.000000000E+00  4.294789242E+01  4.294789242E+01  0.000000000E+00  0.00000E+00  9.000E+00
      21    -1     0     0   513   511  0.000000000E+00  0.000000000E+00 -3.558069319E+01  3.558069319E+01  0.000000000E+00  0.00000E+00  9.000E+00
      21     1     1     2   512   516 -1.167770514E+01  9.161073427E-01  3.816536729E+01  3.992246623E+01  1.066240300E-06  0.00000E+00  9.000E+00
      21     1     1     2   513   512  9.355535697E+00  5.246328100E+00 -4.736639828E+00  1.172543234E+01  4.878850443E-07  0.00000E+00  9.000E+00
      21     1     1     2   515   511  2.322169442E+00 -6.162435443E+00 -2.606152824E+01  2.688068703E+01  0.000000000E+00  0.00000E+00  9.000E+00
</event>
<event>
      5  10001  2.40292E+09  3.82511E+00 -1.00000E+00  2.68018E-01
       1    -1     0     0   511     0  0.000000000E+00  0.000000000E+00  3.427349962E+01  3.427349962E+01  0.000000000E+00  0.00000E+00  9.000E+00
      21    -1     0     0   515   512  0.000000000E+00  0.000000000E+00 -2.687198782E+01  2.687198782E+01  0.000000000E+00  0.00000E+00  9.000E+00
      21     1     1     2   515   514  3.273223829E+00  1.159841747E+01 -1.318462926E+01  1.786257906E+01  1.685873940E-07  0.00000E+00  9.000E+00
       1     1     1     2   514     0 -4.867280824E+00 -1.507542120E+01  2.955384955E+01  3.353353054E+01  3.300000131E-01  0.00000E+00  9.000E+00
      21     1     1     2   511   512  1.594056995E+00  3.477003723E+00 -8.967708497E+00  9.749377841E+00  1.685873940E-07  0.00000E+00  9.000E+00
</event>
<event>
      5  10001  2.40292E+09  4.63638E+00 -1.00000E+00  2.49127E-01
      21    -1     0     0   513   516  0.000000000E+00  0.000000000E+00  3.599259366E+01  3.599259366E+01  0.000000000E+00  0.00000E+00  9.000E+00
       2    -1     0     0   511     0  0.000000000E+00  0.000000000E+00 -5.546238690E+00  5.546238690E+00  0.000000000E+00  0.00000E+00  9.000E+00
      21     1     1     2   511   516 -1.092022171E+01 -3.631607994E+00  2.342556707E+01  2.609975118E+01  0.000000000E+00  0.00000E+00  9.000E+00
       2     1     1     2   514     0  8.437278062E+00  3.504720820E-01  1.547334236E+00  8.591486194E+00  3.300000131E-01  0.00000E+00  9.000E+00
      21     1     1     2   513   514  2.482943649E+00  3.281135912E+00  5.473453665E+00  6.847594983E+00  1.332800375E-07  0.00000E+00  9.000E+00
</event>
<event>
      5  10001  2.40292E+09  8.06103E+00 -1.00000E+00  2.07174E-01
       4    -1     0     0   514     0  0.000000000E+00  0.000000000E+00  1.081268442E+00  1.081268442E+00  0.000000000E+00  0.00000E+00  9.000E+00
      21    -1     0     0   513   514  0.000000000E+00  0.000000000E+00 -3.125144244E+02  3.125144244E+02  0.000000000E+00  0.00000E+00  9.000E+00
      21     1     1     2   513   511  2.818961244E+00 -3.655326552E-01 -2.113752766E+02  2.113943890E+02  2.697398305E-06  0.00000E+00  9.000E+00
       4     1     1     2   512     0 -8.511586616E+00 -3.830605592E+00 -2.368895562E+01  2.550563201E+01  1.500000000E+00  0.00000E+00  9.000E+00
      21     1     1     2   511   512  5.692625372E+00  4.196138247E+00 -7.636892374E+01  7.669567180E+01  1.348699152E-06  0.00000E+00  9.000E+00
</event>
<event>
      5  10001  2.40292E+09  8.29497E+00 -1.00000E+00  2.05571E-01
       1    -1     0     0   511     0  0.000000000E+00  0.000000000E+00  4.697848327E+01  4.697848327E+01  0.000000000E+00  0.00000E+00  9.000E+00
      21    -1     0     0   515   512  0.000000000E+00  0.000000000E+00 -1.134467634E+01  1.134467634E+01  0.000000000E+00  0.00000E+00  9.000E+00
      21     1     1     2   513   512 -3.800173643E+00 -1.705159219E+00 -7.989961452E+00  9.010459017E+00  1.460009660E-07  0.00000E+00  9.000E+00
       1     1     1     2   515     0  3.451036767E+00  8.717563492E+00  4.059713236E+01  4.166703282E+01  3.300000131E-01  0.00000E+00  9.000E+00
      21     1     1     2   511   513  3.491368765E-01 -7.012404272E+00  3.026636025E+00  7.645667784E+00  8.429369702E-08  0.00000E+00  9.000E+00
</event>
<event>
      5  10001  2.40292E+09  7.93417E+00 -1.00000E+00  2.08075E-01
      21    -1     0     0   514   515  0.000000000E+00  0.000000000E+00  1.163280587E+00  1.163280587E+00  0.000000000E+00  0.00000E+00  9.000E+00
       2    -1     0     0   511     0  0.000000000E+00  0.000000000E+00 -7.584379217E+02  7.584379217E+02  0.000000000E+00  0.00000E+00  9.000E+00
      21     1     1     2   511   515 -2.629306144E+00  1.117273637E+01 -3.172571667E+01  3.373817403E+01  1.168007728E-06  0.00000E+00  9.000E+00
       2     1     1     2   512     0 -1.791124396E+00 -8.596263062E+00 -6.747244307E+02  6.747816463E+02  3.300000131E-01  0.00000E+00  9.000E+00
      21     1     1     2   514   512  4.420430540E+00 -2.576473306E+00 -5.082449374E+01  5.108138198E+01  0.000000000E+00  0.00000E+00  9.000E+00
</event>
<event>
      5  10001  2.40292E+09  1.37376E+01 -1.00000E+00  1.81008E-01
      21    -1     0     0   513   512  0.000000000E+00  0.000000000E+00  1.755175211E+01  1.755175211E+01  0.000000000E+00  0.00000E+00  9.000E+00
      21    -1     0     0   516   513  0.000000000E+00  0.000000000E+00 -4.272088310E+01  4.272088310E+01  0.000000000E+00  0.00000E+00  9.000E+00
      21     1     1     2   516   511 -1.767861039E+01 -1.424880719E+00 -3.385052591E+01  3.821546356E+01  4.768371582E-07  0.00000E+00  9.000E+00
      21     1     1     2   511   515  4.111646378E+00  4.698788910E+00  3.582517853E+00  7.198519802E+00  7.300048300E-08  0.00000E+00  9.000E+00
      21     1     1     2   515   512  1.356696402E+01 -3.273908192E+00  5.098877067E+00  1.485865185E+01  5.430241572E-07  0.00000E+00  9.000E+00
</event>
<event>
      5  10001  2.40292E+09  5.77781E+00 -1.00000E+00  2.27967E-01
      21    -1     0     0   514   512  0.000000000E+00  0.000000000E+00  1.278851410E-01  1.278851410E-01  0.000000000E+00  0.00000E+00  9.000E+00
       2    -1     0     0   511     0  0.000000000E+00  0.000000000E+00 -9.000495842E+02  9.000495842E+02  0.000000000E+00  0.00000E+00  9.000E+00
      -5     1     1     2     0   512 -8.305259000E-01  3.944118012E+00 -2.362059907E+02  2.362891362E+02  4.800000191E+00  0.00000E+00  9.000E+00
       2     1     1     2   514     0 -1.737812459E+00 -7.864554615E+00 -2.882373368E+02  2.883500346E+02  3.300000131E-01  0.00000E+00  9.000E+00
       5     1     1     2   511     0  2.568338359E+00  3.920436603E+00 -3.754783715E+02  3.755382986E+02  4.800000191E+00  0.00000E+00  9.000E+00
</event>
<event>
      5  10001  2.40292E+09  1.75011E+01 -1.00000E+00  1.71254E-01
       1    -1     0     0   513     0  0.000000000E+00  0.000000000E+00  6.966626773E+00  6.966626773E+00  0.000000000E+00  0.00000E+00  9.000E+00
       1    -1     0     0   511     0  0.000000000E+00  0.000000000E+00 -1.706977999E+02  1.706977999E+02  0.000000000E+00  0.00000E+00  9.000E+00
       1     1     1     2   511     0 -1.032491871E+01 -2.820672784E+00  1.825614810E+00  1.086286844E+01  3.300000131E-01  0.00000E+00  9.000E+00
      21     1     1     2   513   512 -2.693109277E+00  4.336919199E+00 -8.771845072E+01  8.786687830E+01  1.907348633E-06  0.00000E+00  9.000E+00
       1     1     1     2   512     0  1.301802798E+01 -1.516246415E+00 -7.783833717E+01  7.893467989E+01  3.300000131E-01  0.00000E+00  9.000E+00
</event>
<event>
      5  10001  2.40292E+09  1.17054E+01 -1.00000E+00  1.88116E-01
      21    -1     0     0   514   516  0.000000000E+00  0.000000000E+00  1.007514572E+02  1.007514572E+02  0.000000000E+00  0.00000E+00  9.000E+00
      21    -1     0     0   511   515  0.000000000E+00  0.000000000E+00 -1.437276594E+00  1.437276594E+00  0.000000000E+00  0.00000E+00  9.000E+00
      21     1     1     2   514   515  9.563713176E+00  2.334193422E+00  2.939629300E+01  3.100088887E+01  5.840038640E-07  0.00000E+00  9.000E+00
      21     1     1     2   513   516 -3.691607143E+00 -1.779771659E+00  7.990258790E+00  8.979965813E+00  2.064765462E-07  0.00000E+00  9.000E+00
      21     1     1     2   511   513 -5.872106033E+00 -5.544217624E-01  6.192762887E+01  6.220787916E+01  1.168007728E-06  0.00000E+00  9.000E+00
</event>
<event>
      5  10001  2.40292E+09  4.38748E+00 -1.00000E+00  2.54254E-01
      -1    -1     0     0     0   512  0.000000000E+00  0.000000000E+00  9.476565742E+01  9.476565742E+01  0.000000000E+00  0.00000E+00  9.000E+00
      -4    -1     0     0     0   513  0.000000000E+00  0.000000000E+00 -9.260312781E+00  9.260312781E+00  0.000000000E+00  0.00000E+00  9.000E+00
      -4     1     1     2     0   512  9.162612031E+00 -8.945295447E+00 -3.303081846E+00  1.330909913E+01  1.500000000E+00  0.00000E+00  9.000E+00
      -1     1     1     2     0   514 -7.098963507E+00  7.103132744E+00  8.658978259E+01  8.717080433E+01  3.300000131E-01  0.00000E+00  9.000E+00
      21     1     1     2   514   513 -2.063648524E+00  1.842162703E+00  2.218643894E+00  3.546066749E+00  7.884953353E-08  0.00000E+00  9.000E+00
</event>
<event>
      5  10001  2.40292E+09  5.07941E+00 -1.00000E+00  2.37240E-01
      21    -1     0     0   516   513  0.000000000E+00  0.000000000E+00  8.002894081E+00  8.002894081E+00  0.000000000E+00  0.00000E+00  9.000E+00
      21    -1     0     0   512   515  0.000000000E+00  0.000000000E+00 -5.868477042E+01  5.868477042E+01  0.000000000E+00  0.00000E+00  9.000E+00
      21     1     1     2   511   515 -3.224044818E+00 -8.656633899E+00 -4.199832816E+01  4.300222487E+01  8.259061849E-07  0.00000E+00  9.000E+00
      21     1     1     2   512   513  5.801046176E+00  1.303378274E+01 -1.108516237E+01  1.806688833E+01  3.153981341E-07  0.00000E+00  9.000E+00
      21     1     1     2   516   511 -2.577001358E+00 -4.377148843E+00  2.401614188E+00  5.618551299E+00  7.884953353E-08  0.00000E+00  9.000E+00
</event>
<event>
      5  10001  2.40292E+09  6.27610E+00 -1.00000E+00  2.22403E-01
      21    -1     0     0   514   512  0.000000000E+00  0.000000000E+00  8.823761117E+01  8.823761117E+01  0.000000000E+00  0.00000E+00  9.000E+00
      21    -1     0     0   517   511  0.000000000E+00  0.000000000E+00 -3.372324143E+00  3.372324143E+00  0.000000000E+00  0.00000E+00  9.000E+00
      21     1     1     2   514   511 -2.653910791E-01  1.246364851E+01  1.183937304E+01  1.719254840E+01  2.920019320E-07  0.00000E+00  9.000E+00
      21     1     1     2   517   513  6.994424471E-01 -4.812390356E+00  4.796555298E+01  4.821143634E+01  6.743495762E-07  0.00000E+00  9.000E+00
      21     1     1     2   513   512 -4.340513680E-01 -7.651258151E+00  2.506036101E+01  2.620595058E+01  3.371747881E-07  0.00000E+00  9.000E+00
</event>
<event>
      5  10001  2.40292E+09  1.15778E+01 -1.00000E+00  1.88624E-01
      21    -1     0     0   515   511  0.000000000E+00  0.000000000E+00  1.353885362E+01  1.353885362E+01  0.000000000E+00  0.00000E+00  9.000E+00
      21    -1     0     0   516   512  0.000000000E+00  0.000000000E+00 -8.184020919E+00  8.184020919E+00  0.000000000E+00  0.00000E+00  9.000E+00
      21     1     1     2   515   512 -3.643361971E+00  5.171790683E+00 -1.807743781E-01  6.328837547E+00  5.141710394E-08  0.00000E+00  9.000E+00
      21     1     1     2   516   514  6.449964708E+00 -3.075324241E+00 -1.708789484E+00  7.347082783E+00  2.220223013E-07  0.00000E+00  9.000E+00
      21     1     1     2   514   511 -2.806602737E+00 -2.096466441E+00  7.244396560E+00  8.046954205E+00  1.192092896E-07  0.00000E+00  9.000E+00
</event>
<event>
      5  10001  2.40292E+09  9.26037E+00 -1.00000E+00  1.99635E-01
       1    -1     0     0   512     0  0.000000000E+00  0.000000000E+00  1.233423253E+03  1.233423253E+03  0.000000000E+00  0.00000E+00  9.000E+00
      21    -1     0     0   515   512  0.000000000E+00  0.000000000E+00 -4.010901205E-01  4.010901205E-01  0.000000000E+00  0.00000E+00  9.000E+00
      21     1     1     2   514   513  1.028579787E+01  1.342373922E+01  2.497462943E+02  2.503182094E+02  3.814697266E-06  0.00000E+00  9.000E+00
       1     1     1     2   513     0 -2.807529607E+00 -7.963358730E+00  7.485531527E+02  7.486008474E+02  3.300000131E-01  0.00000E+00  9.000E+00
      21     1     1     2   515   514 -7.478268261E+00 -5.460380486E+00  2.347227156E+02  2.349052862E+02  5.394796609E-06  0.00000E+00  9.000E+00
</event>
<event>
      5  10001  2.40292E+09  1.07075E+01 -1.00000E+00  1.92330E-01
      21    -1     0     0   511   513  0.000000000E+00  0.000000000E+00  9.774485487E+00  9.774485487E+00  0.000000000E+00  0.00000E+00  9.000E+00
      21    -1     0     0   515   514  0.000000000E+00  0.000000000E+00 -1.859160304E+01  1.859160304E+01  0.000000000E+00  0.00000E+00  9.000E+00
      21     1     1     2   511   514 -6.364639366E+00 -6.449754227E+00  4.234682779E+00  1.000202490E+01  0.000000000E+00  0.00000E+00  9.000E+00
      21     1     1     2   515   512  6.218373156E+00  1.295121040E+00 -2.910253523E+00  6.986778856E+00  1.332800375E-07  0.00000E+00  9.000E+00
      21     1     1     2   512   513  1.462662093E-01  5.154633186E+00 -1.014154681E+01  1.137728477E+01  1.192092896E-07  0.00000E+00  9.000E+00
</event>
<event>
      5  10001  2.40292E+09  8.48233E+00 -1.00000E+00  2.04337E-01
       1    -1     0     0   511     0  0.000000000E+00  0.000000000E+00  1.100093503E+01  1.100093503E+01  0.000000000E+00  0.00000E+00  9.000E+00
      21    -1     0     0   516   511  0.000000000E+00  0.000000000E+00 -2.749917277E+02  2.749917277E+02  0.000000000E+00  0.00000E+00  9.000E+00
      21     1     1     2   516   512 -2.525188962E-01  9.790751507E+00 -2.661188512E+02  2.662990152E+02  0.000000000E+00  0.00000E+00  9.000E+00
       1     1     1     2   514     0  5.733127383E+00 -4.581657610E+00  7.437904219E+00  1.045426493E+01  3.300000131E-01  0.00000E+00  9.000E+00
      21     1     1     2   512   514 -5.480608487E+00 -5.209093897E+00 -5.309845777E+00  9.239382598E+00  1.332800375E-07  0.00000E+00  9.000E+00
</event>
<event>
      5  10001  2.40292E+09  8.58570E+00 -1.00000E+00  2.03674E-01
      21    -1     0     0   513   512  0.000000000E+00  0.000000000E+00  9.761919783E+00  9.761919783E+00  0.000000000E+00  0.00000E+00  9.000E+00
      -1    -1     0     0     0   513  0.000000000E+00  0.000000000E+00 -3.895228115E+01  3.895228115E+01  0.000000000E+00  0.00000E+00  9.000E+00
      21     1     1     2   515   516  1.457153160E+00 -1.316371387E+01 -7.991545009E+00  1.546840166E+01  2.064765462E-07  0.00000E+00  9.000E+00
      21     1     1     2   516   512  7.019674240E+00  1.180764922E+01 -4.479758173E+00  1.444868990E+01  2.384185791E-07  0.00000E+00  9.000E+00
      -1     1     1     2     0   515 -8.476827400E+00  1.356064653E+00 -1.671905819E+01  1.879710937E+01  3.300000131E-01  0.00000E+00  9.000E+00
</event>
<event>
      5  10001  2.40292E+09  1.68672E+00 -1.00000E+00  4.01271E-01
      21    -1     0     0   511   516  0.000000000E+00  0.000000000E+00  8.750956477E-01  8.750956477E-01  0.000000000E+00  0.00000E+00  9.000E+00
      21    -1     0     0   514   512  0.000000000E+00  0.000000000E+00 -1.809183055E+02  1.809183055E+02  0.000000000E+00  0.00000E+00  9.000E+00
      21     1     1     2   514   515 -2.576970347E+00 -9.313355344E+00 -8.316649614E+01  8.372601414E+01  1.348699152E-06  0.00000E+00  9.000E+00
      21     1     1     2   515   516  1.404219690E+00  1.052565747E+01 -4.795609083E+01  4.911769483E+01  6.743495762E-07  0.00000E+00  9.000E+00
      21     1     1     2   511   512  1.172750657E+00 -1.212302124E+00 -4.892062286E+01  4.894969215E+01  6.743495762E-07  0.00000E+00  9.000E+00
</event>
<event>
      5  10001  2.40292E+09  1.29495E+01 -1.00000E+00  1.83566E-01
      21    -1     0     0   513   512  0.000000000E+00  0.000000000E+00  2.187819330E+00  2.187819330E+00  0.000000000E+00  0.00000E+00  9.000E+00
      21    -1     0     0   514   517  0.000000000E+00  0.000000000E+00 -9.732969374E+01  9.732969374E+01  0.000000000E+00  0.00000E+00  9.000E+00
      21     1     1     2   513   517  6.049552530E+00  6.618558705E+00 -5.770797244E+01  5.840044938E+01  6.743495762E-07  0.00000E+00  9.000E+00
      21     1     1     2   515   512 -2.472255598E+00 -9.771437292E+00 -3.334672419E+01  3.483671983E+01  4.768371582E-07  0.00000E+00  9.000E+00
      21     1     1     2   514   515 -3.577296932E+00  3.152878587E+00 -4.087177786E+00  6.280343858E+00  1.788139343E-07  0.00000E+00  9.000E+00
</event>
<event>
      5  10001  2.40292E+09  5.16565E+00 -1.00000E+00  2.35983E-01
       2    -1     0     0   514     0  0.000000000E+00  0.000000000E+00  6.284107154E+01  6.284107154E+01  0.000000000E+00  0.00000E+00  9.000E+00
      21    -1     0     0   511   515  0.000000000E+00  0.000000000E+00 -5.925222462E+00  5.925222462E+00  0.000000000E+00  0.00000E+00  9.000E+00
      21     1     1     2   514   512 -1.511545346E+00  4.576092268E+00  1.627098311E+00  5.086535038E+00  2.179851955E-07  0.00000E+00  9.000E+00
       2     1     1     2   511     0  1.526608736E+00 -1.007180599E+01  5.701535577E+01  5.791918079E+01  3.300000131E-01  0.00000E+00  9.000E+00
      21     1     1     2   512   515 -1.506339016E-02  5.495713717E+00 -1.726604994E+00  5.760578181E+00  2.230201594E-07  0.00000E+00  9.000E+00
</event>
<event>
      5  10001  2.40292E+09  5.31403E+00 -1.00000E+00  2.33900E-01
      21    -1     0     0   513   515  0.000000000E+00  0.000000000E+00  8.299825140E+00  8.299825140E+00  0.000000000E+00  0.00000E+00  9.000E+00
      21    -1     0     0   516   513  0.000000000E+00  0.000000000E+00 -1.087358980E+02  1.087358980E+02  0.000000000E+00  0.00000E+00  9.000E+00
      21     1     1     2   511   515 -1.107066971E+01 -4.499071223E+00  2.863265148E+00  1.228819177E+01  4.172325134E-07  0.00000E+00  9.000E+00
      21     1     1     2   516   514  9.002669303E+00  3.679676151E-01 -9.328297749E+01  9.371711340E+01  1.348699152E-06  0.00000E+00  9.000E+00
      21     1     1     2   514   511  2.068000403E+00  4.131103608E+00 -1.001636055E+01  1.103041801E+01  1.685873940E-07  0.00000E+00  9.000E+00
</event>
<event>
      5  10001  2.40292E+09  6.18745E+00 -1.00000E+00  2.23340E-01
      21    -1     0     0   512   516  0.000000000E+00  0.000000000E+00  8.279028760E+01  8.279028760E+01  0.000000000E+00  0.00000E+00  9.000E+00
      21    -1     0     0   515   513  0.000000000E+00  0.000000000E+00 -1.226380024E+02  1.226380024E+02  0.000000000E+00  0.00000E+00  9.000E+00
      21     1     1     2   512   511  1.538795656E+01 -1.107209713E+01 -1.162456591E+02  1.177812965E+02  2.336015456E-06  0.00000E+00  9.000E+00
      21     1     1     2   515   516 -1.664287098E+01  5.013240909E+00  7.903303076E+01  8.092179985E+01  1.348699152E-06  0.00000E+00  9.000E+00
      21     1     1     2   511   513  1.254914423E+00  6.058856219E+00 -2.635086439E+00  6.725193635E+00  2.980232239E-08  0.00000E+00  9.000E+00
</event>
<event>
      5  10001  2.40292E+09  6.77190E+00 -1.00000E+00  2.17535E-01
      21    -1     0     0   512   513  0.000000000E+00  0.000000000E+00  1.353411103E+02  1.353411103E+02  0.000000000E+00  0.00000E+00  9.000E+00
      21    -1     0     0   511   517  0.000000000E+00  0.000000000E+00 -1.020989859E+01  1.020989859E+01  0.000000000E+00  0.00000E+00  9.000E+00
      21     1     1     2   514   517 -1.731166199E+01 -2.614493761E+00  3.066257376E+00  1.777445225E+01  4.107966647E-07  0.00000E+00  9.000E+00
      21     1     1     2   511   513  1.116971811E+01 -2.377151797E-01  8.572240370E+00  1.408198907E+01  3.576278687E-07  0.00000E+00  9.000E+00
      21     1     1     2   512   514  6.141943881E+00  2.852208940E+00  1.134927140E+02  1.136945676E+02  0.000000000E+00  0.00000E+00  9.000E+00
</event>
<event>
      5  10001  2.40292E+09  3.09651E+00 -1.00000E+00  2.92621E-01
      21    -1     0     0   515   513  0.000000000E+00  0.000000000E+00  2.551931002E+01  2.551931002E+01  0.000000000E+00  0.00000E+00  9.000E+00
      21    -1     0     0   517   515  0.000000000E+00  0.000000000E+00 -3.025114563E+01  3.025114563E+01  0.000000000E+00  0.00000E+00  9.000E+00
      21     1     1     2   511   513 -1.267059469E+01  4.779319739E-01  2.092146879E+01  2.446385589E+01  6.307962682E-07  0.00000E+00  9.000E+00
      21     1     1     2   516   511  1.431577365E+01  2.145383015E+00 -1.833805229E+01  2.336296654E+01  5.331201500E-07  0.00000E+00  9.000E+00
      21     1     1     2   517   516 -1.645178965E+00 -2.623314989E+00 -7.315252111E+00  7.943633225E+00  8.429369702E-08  0.00000E+00  9.000E+00
</event>
<event>
      5  10001  2.40292E+09  8.61116E+00 -1.00000E+00  2.03513E-01
      21    -1     0     0   512   516  0.000000000E+00  0.000000000E+00  5.454977332E+02  5.454977332E+02  0.000000000E+00  0.00000E+00  9.000E+00
      21    -1     0     0   513   514  0.000000000E+00  0.000000000E+00 -1.256471361E+02  1.256471361E+02  0.000000000E+00  0.00000E+00  9.000E+00
      21     1     1     2   512   514 -8.231906817E+00  9.239783214E+00  5.450001982E+02  5.451406736E+02  7.629394531E-06  0.00000E+00  9.000E+00
      21     1     1     2   511   516  7.435411221E+00 -5.411839869E+00 -5.651797411E+01  5.726128490E+01  2.236564522E-06  0.00000E+00  9.000E+00
      21     1     1     2   513   511  7.964955959E-01 -3.827943345E+00 -6.863162705E+01  6.874291081E+01  4.473129043E-06  0.00000E+00  9.000E+00
</event>
<event>
      5  10001  2.40292E+09  2.12344E+01 -1.00000E+00  1.64211E-01
      21    -1     0     0   515   511  0.000000000E+00  0.000000000E+00  7.467402832E+00  7.467402832E+00  0.000000000E+00  0.00000E+00  9.000E+00
      21    -1     0     0   513   517  0.000000000E+00  0.000000000E+00 -1.034603301E+02  1.034603301E+02  0.000000000E+00  0.00000E+00  9.000E+00
      21     1     1     2   515   517 -1.409103514E+01  3.838749625E+00 -3.241834304E+00  1.496003876E+01  3.153981341E-07  0.00000E+00  9.000E+00
      21     1     1     2   513   512  6.272045514E+00 -1.139414542E+01 -3.849540066E+01  4.063324964E+01  6.743495762E-07  0.00000E+00  9.000E+00
      21     1     1     2   512   511  7.818989622E+00  7.555395793E+00 -5.425569230E+01  5.533444453E+01  9.536743164E-07  0.00000E+00  9.000E+00
</event>
<event>
      5  10001  2.40292E+09  6.41641E+00 -1.00000E+00  2.20964E-01
      -3    -1     0     0     0   513  0.000000000E+00  0.000000000E+00  1.059397767E+01  1.059397767E+01  0.000000000E+00  0.00000E+00  9.000E+00
      21    -1     0     0   512   514  0.000000000E+00  0.000000000E+00 -8.666403800E+01  8.666403800E+01  0.000000000E+00  0.00000E+00  9.000E+00
      -3     1     1     2     0   514 -4.014830298E+00  9.831923579E+00  3.914700396E+00  1.132962765E+01  5.000000000E-01  0.00000E+00  9.000E+00
      21     1     1     2   512   511 -1.811880772E+00 -1.251751268E+01 -7.827277010E+01  7.928806704E+01  9.536743164E-07  0.00000E+00  9.000E+00
      21     1     1     2   511   513  5.826711069E+00  2.685589100E+00 -1.711990620E+00  6.640320970E+00  4.214684851E-08  0.00000E+00  9.000E+00
</event>
<event>
      5  10001  2.40292E+09  2.05838E+01 -1.00000E+00  1.65303E-01
      21    -1     0     0   511   512  0.000000000E+00  0.000000000E+00  5.746738393E+01  5.746738393E+01  0.000000000E+00  0.00000E+00  9.000E+00
       1    -1     0     0   513     0  0.000000000E+00  0.000000000E+00 -1.710758380E+01  1.710758380E+01  0.000000000E+00  0.00000E+00  9.000E+00
      21     1     1     2   513   512 -1.472371866E+01 -1.913257402E+01  2.246181323E+01  3.297538981E+01  5.331201500E-07  0.00000E+00  9.000E+00
       1     1     1     2   514     0  1.099298308E+01  1.482085643E+01 -4.073879524E+00  1.889996975E+01  3.300000131E-01  0.00000E+00  9.000E+00
      21     1     1     2   511   514  3.730735574E+00  4.311717596E+00  2.197186643E+01  2.269960816E+01  4.129530925E-07  0.00000E+00  9.000E+00
</event>
<event>
      5  10001  2.40292E+09  2.51159E+00 -1.00000E+00  3.22271E-01
      21    -1     0     0   512   515  0.000000000E+00  0.000000000E+00  1.221613901E+01  1.221613901E+01  0.000000000E+00  0.00000E+00  9.000E+00
      21    -1     0     0   511   514  0.000000000E+00  0.000000000E+00 -3.537282396E+01  3.537282396E+01  0.000000000E+00  0.00000E+00  9.000E+00
      -4     1     1     2     0   514  2.631199046E+00 -1.039119147E+01 -9.624662170E+00  1.448392870E+01  1.500000000E+00  0.00000E+00  9.000E+00
      21     1     1     2   511   515 -1.986464887E-01  1.097156348E+01 -2.176285645E+01  2.437286578E+01  2.384185791E-07  0.00000E+00  9.000E+00
       4     1     1     2   512     0 -2.432552558E+00 -5.803720141E-01  8.230833672E+00  8.732168492E+00  1.500000000E+00  0.00000E+00  9.000E+00
</event>
<event>
      5  10001  2.40292E+09  7.57757E+00 -1.00000E+00  2.10731E-01
      21    -1     0     0   513   511  0.000000000E+00  0.000000000E+00  6.644986621E+01  6.644986621E+01  0.000000000E+00  0.00000E+00  9.000E+00
       1    -1     0     0   512     0  0.000000000E+00  0.000000000E+00 -2.933777746E+02  2.933777746E+02  0.000000000E+00  0.00000E+00  9.000E+00
      21     1     1     2   514   511  1.183840981E+01  1.343322475E-01  5.988958136E+01  6.104857040E+01  2.780414531E-06  0.00000E+00  9.000E+00
       1     1     1     2   513     0 -1.011516366E+01 -6.860376662E+00 -2.906103034E+02  2.908673901E+02  3.300000131E-01  0.00000E+00  9.000E+00
      21     1     1     2   512   514 -1.723246154E+00  6.726044414E+00  3.792813586E+00  7.911680331E+00  1.976862425E-07  0.00000E+00  9.000E+00
</event>
<event>
      5  10001  2.40292E+09  9.86274E+00 -1.00000E+00  1.96395E-01
      21    -1     0     0   515   512  0.000000000E+00  0.000000000E+00  8.333525225E+02  8.333525225E+02  0.000000000E+00  0.00000E+00  9.000E+00
      21    -1     0     0   511   513  0.000000000E+00  0.000000000E+00 -2.465011331E+01  2.465011331E+01  0.000000000E+00  0.00000E+00  9.000E+00
      21     1     1     2   515   514  1.789976960E+01  6.093270761E+00  4.196071031E+01  4.602424263E+01  1.430511475E-06  0.00000E+00  9.000E+00
      21     1     1     2   511   512 -8.154192321E+00 -7.609005969E+00  7.882435545E+02  7.883224525E+02  1.525878906E-05  0.00000E+00  9.000E+00
      21     1     1     2   514   513 -9.745577275E+00  1.515735208E+00 -2.150185570E+01  2.365594065E+01  8.920806376E-07  0.00000E+00  9.000E+00
</event>
<event>
      5  10001  2.40292E+09  1.44569E+01 -1.00000E+00  1.78857E-01
      21    -1     0     0   516   511  0.000000000E+00  0.000000000E+00  5.905896427E-01  5.905896427E-01  0.000000000E+00  0.00000E+00  9.000E+00
      21    -1     0     0   514   517  0.000000000E+00  0.000000000E+00 -3.134240794E+02  3.134240794E+02  0.000000000E+00  0.00000E+00  9.000E+00
      21     1     1     2   516   517  7.941648364E+00 -2.495932292E+00 -9.148102973E+01  9.185901294E+01  1.907348633E-06  0.00000E+00  9.000E+00
      21     1     1     2   514   512 -8.513220632E+00 -2.890527907E+00 -1.971310349E+02  1.973359445E+02  0.000000000E+00  0.00000E+00  9.000E+00
      21     1     1     2   512   511  5.715722675E-01  5.386460199E+00 -2.422142510E+01  2.481971157E+01  4.768371582E-07  0.00000E+00  9.000E+00
</event>
<event>
      5  10001  2.40292E+09  1.74839E+01 -1.00000E+00  1.71291E-01
      21    -1     0     0   513   514  0.000000000E+00  0.000000000E+00  4.144352663E+01  4.144352663E+01  0.000000000E+00  0.00000E+00  9.000E+00
      21    -1     0     0   515   511  0.000000000E+00  0.000000000E+00 -5.902614304E+00  5.902614304E+00  0.000000000E+00  0.00000E+00  9.000E+00
      21     1     1     2   513   511  3.996992714E+00 -4.591406372E+00  1.484109490E+01  1.604104301E+01  3.371747881E-07  0.00000E+00  9.000E+00
      21     1     1     2   515   516 -9.551384436E+00  1.128108931E+01  1.342905552E+01  1.997076495E+01  3.769728732E-07  0.00000E+00  9.000E+00
      21     1     1     2   516   514  5.554391722E+00 -6.689682934E+00  7.270761909E+00  1.133433297E+01  2.665600750E-07  0.00000E+00  9.000E+00
</event>
<event>
      5  10001  2.40292E+09  1.06477E+01 -1.00000E+00  1.92602E-01
      21    -1     0     0   512   516  0.000000000E+00  0.000000000E+00  4.103905163E+01  4.103905163E+01  0.000000000E+00  0.00000E+00  9.000E+00
      21    -1     0     0   514   512  0.000000000E+00  0.000000000E+00 -1.700980339E+01  1.700980339E+01  0.000000000E+00  0.00000E+00  9.000E+00
      21     1     1     2   515   516 -1.350826915E+01 -5.865345127E+00  3.210452288E+01  3.532104186E+01  4.768371582E-07  0.00000E+00  9.000E+00
      21     1     1     2   514   511  8.211304154E+00 -1.604979565E+00 -1.033332167E+01  1.329582687E+01  0.000000000E+00  0.00000E+00  9.000E+00
      21     1     1     2   511   515  5.296964995E+00  7.470324691E+00  2.258047024E+00  9.431986297E+00  7.884953353E-08  0.00000E+00  9.000E+00
</event>
<event>
      5  10001  2.40292E+09  1.46889E+01 -1.00000E+00  1.78197E-01
      21    -1     0     0   513   514  0.000000000E+00  0.000000000E+00  2.608478718E+02  2.608478718E+02  0.000000000E+00  0.00000E+00  9.000E+00
      21    -1     0     0   517   513  0.000000000E+00  0.000000000E+00 -1.192891310E+00  1.192891310E+00  0.000000000E+00  0.00000E+00  9.000E+00
      21     1     1     2   517   515  1.275485858E+01 -6.708830929E+00  9.200189477E+01  9.312380722E+01  0.000000000E+00  0.00000E+00  9.000E+00
      21     1     1     2   515   512 -6.979858696E+00  4.552195784E+00  3.028278353E+01  3.140840481E+01  5.840038640E-07  0.00000E+00  9.000E+00
      21     1     1     2   512   514 -5.774999885E+00  2.156635145E+00  1.373703022E+02  1.375085511E+02  0.000000000E+00  0.00000E+00  9.000E+00
</event>
<event>
      5  10001  2.40292E+09  9.04240E+00 -1.00000E+00  2.00889E-01
      21    -1     0     0   511   515  0.000000000E+00  0.000000000E+00  1.049627786E+02  1.049627786E+02  0.000000000E+00  0.00000E+00  9.000E+00
      21    -1     0     0   516   513  0.000000000E+00  0.000000000E+00 -1.219480302E+02  1.219480302E+02  0.000000000E+00  0.00000E+00  9.000E+00
      21     1     1     2   511   514  4.413058358E+00  4.753525709E+00  1.024262375E+02  1.026314046E+02  1.348699152E-06  0.00000E+00  9.000E+00
      21     1     1     2   516   515 -1.107759120E+01 -1.086490124E+01 -2.491726597E+01  2.935352192E+01  8.259061849E-07  0.00000E+00  9.000E+00
      21     1     1     2   514   513  6.664532845E+00  6.111375530E+00 -9.449422313E+01  9.492588221E+01  1.348699152E-06  0.00000E+00  9.000E+00
</event>
<event>
      5  10001  2.40292E+09  6.91903E+00 -1.00000E+00  2.16198E-01
      21    -1     0     0   512   514  0.000000000E+00  0.000000000E+00  1.780028435E+02  1.780028435E+02  0.000000000E+00  0.00000E+00  9.000E+00
      21    -1     0     0   517   512  0.000000000E+00  0.000000000E+00 -1.923197353E+01  1.923197353E+01  0.000000000E+00  0.00000E+00  9.000E+00
      21     1     1     2   517   513  1.664448002E+01 -9.108847733E+00 -1.376900804E+01  2.344345121E+01  1.118282261E-06  0.00000E+00  9.000E+00
      -4     1     1     2     0   514 -9.949459701E+00  1.326044013E+00  9.991699462E+01  1.004311005E+02  1.500000000E+00  0.00000E+00  9.000E+00
       4     1     1     2   513     0 -6.695020315E+00  7.782803720E+00  7.262288337E+01  7.336026527E+01  1.500000000E+00  0.00000E+00  9.000E+00
</event>
<event>
      5  10001  2.40292E+09  8.07863E+00 -1.00000E+00  2.07051E-01
       2    -1     0     0   513     0  0.000000000E+00  0.000000000E+00  7.709174669E+02  7.709174669E+02  0.000000000E+00  0.00000E+00  9.000E+00
      21    -1     0     0   511   512  0.000000000E+00  0.000000000E+00 -1.878938896E-01  1.878938896E-01  0.000000000E+00  0.00000E+00  9.000E+00
      21     1     1     2   513   512  8.336762113E+00  3.416365725E-02  4.800189004E+02  4.800912909E+02  0.000000000E+00  0.00000E+00  9.000E+00
       2     1     1     2   514     0 -8.583113139E+00  2.136805902E+00  2.760129437E+02  2.761548294E+02  3.300000131E-01  0.00000E+00  9.000E+00
      21     1     1     2   511   514  2.463510265E-01 -2.170969559E+00  1.469772885E+01  1.485924059E+01  8.596304120E-07  0.00000E+00  9.000E+00
</event>
<event>
      5  10001  2.40292E+09  7.96524E+00 -1.00000E+00  2.07852E-01
      21    -1     0     0   515   512  0.000000000E+00  0.000000000E+00  3.823391755E+01  3.823391755E+01  0.000000000E+00  0.00000E+00  9.000E+00
      21    -1     0     0   513   515  0.000000000E+00  0.000000000E+00 -9.391764909E+01  9.391764909E+01  0.000000000E+00  0.00000E+00  9.000E+00
      21     1     1     2   511   516  1.320843169E+01  3.390411545E+00  1.772214536E+01  2.236139517E+01  0.000000000E+00  0.00000E+00  9.000E+00
      21     1     1     2   516   512 -1.491241784E+01  4.390431817E+00  1.465838053E+01  2.136642733E+01  4.460403188E-07  0.00000E+00  9.000E+00
      21     1     1     2   513   511  1.703986150E+00 -7.780843361E+00 -8.806425742E+01  8.842374414E+01  9.536743164E-07  0.00000E+00  9.000E+00
</event>
<event>
      5  10001  2.40292E+09  1.10595E+01 -1.00000E+00  1.90778E-01
      21    -1     0     0   514   516  0.000000000E+00  0.000000000E+00  5.011514097E+00  5.011514097E+00  0.000000000E+00  0.00000E+00  9.000E+00
      21    -1     0     0   513   514  0.000000000E+00  0.000000000E+00 -9.789320751E+01  9.789320751E+01  0.000000000E+00  0.00000E+00  9.000E+00
      21     1     1     2   513   511  4.335923295E+00 -1.147637936E+01 -8.412572146E+01  8.501555461E+01  1.348699152E-06  0.00000E+00  9.000E+00
      21     1     1     2   511   512  2.445372985E+00  3.667122353E+00 -1.105892942E-01  4.409066271E+00  1.289066180E-07  0.00000E+00  9.000E+00
      21     1     1     2   512   516 -6.781296280E+00  7.809257011E+00 -8.645382657E+00  1.348010073E+01  2.665600750E-07  0.00000E+00  9.000E+00
</event>
<event>
      5  10001  2.40292E+09  1.30064E+01 -1.00000E+00  1.83373E-01
      21    -1     0     0   512   515  0.000000000E+00  0.000000000E+00  8.085647720E+00  8.085647720E+00  0.000000000E+00  0.00000E+00  9.000E+00
       3    -1     0     0   511     0  0.000000000E+00  0.000000000E+00 -1.597220784E+01  1.597220784E+01  0.000000000E+00  0.00000E+00  9.000E+00
      21     1     1     2   511   513  4.525365792E+00 -5.326408021E+00 -9.307983207E+00  1.163993597E+01  2.384185791E-07  0.00000E+00  9.000E+00
       3     1     1     2   512     0 -5.746182310E+00 -1.027456721E+00  8.920437764E-01  5.926214690E+00  5.000000000E-01  0.00000E+00  9.000E+00
      21     1     1     2   513   515  1.220816518E+00  6.353864742E+00  5.293793082E-01  6.491704905E+00  5.525498455E-08  0.00000E+00  9.000E+00
</event>
<event>
      5  10001  2.40292E+09  5.94079E+00 -1.00000E+00  2.26064E-01
      21    -1     0     0   514   515  0.000000000E+00  0.000000000E+00  5.311765633E+01  5.311765633E+01  0.000000000E+00  0.00000E+00  9.000E+00
       3    -1     0     0   512     0  0.000000000E+00  0.000000000E+00 -2.546592699E+00  2.546592699E+00  0.000000000E+00  0.00000E+00  9.000E+00
      21     1     1     2   511   515 -6.463148687E+00 -4.136329855E+00  2.809343771E+01  2.912254725E+01  0.000000000E+00  0.00000E+00  9.000E+00
       3     1     1     2   514     0  9.717153572E+00  2.732189589E+00  1.928046341E+01  2.176865184E+01  5.000000000E-01  0.00000E+00  9.000E+00
      21     1     1     2   512   511 -3.254004885E+00  1.404140266E+00  3.197162507E+00  4.773049945E+00  0.000000000E+00  0.00000E+00  9.000E+00
</event>
<event>
      5  10001  2.40292E+09  5.24866E+00 -1.00000E+00  2.34806E-01
      21    -1     0     0   512   513  0.000000000E+00  0.000000000E+00  3.103577710E+02  3.103577710E+02  0.000000000E+00  0.00000E+00  9.000E+00
      -4    -1     0     0     0   514  0.000000000E+00  0.000000000E+00 -1.823545710E+01  1.823545710E+01  0.000000000E+00  0.00000E+00  9.000E+00
      -4     1     1     2     0   513  1.004754222E+01 -9.261159655E+00 -9.533690944E+00  1.672911970E+01  1.500000000E+00  0.00000E+00  9.000E+00
      21     1     1     2   512   511 -7.312809598E+00  4.782074259E+00  3.053318610E+02  3.054568558E+02  7.629394531E-06  0.00000E+00  9.000E+00
      21     1     1     2   511   514 -2.734732626E+00  4.479085396E+00 -3.675856092E+00  6.407252651E+00  8.429369702E-08  0.00000E+00  9.000E+00
</event>
<event>
      5  10001  2.40292E+09  1.78959E+01 -1.00000E+00  1.70410E-01
      21    -1     0     0   515   513  0.000000000E+00  0.000000000E+00  1.470427901E+01  1.470427901E+01  0.000000000E+00  0.00000E+00  9.000E+00
      21    -1     0     0   516   515  0.000000000E+00  0.000000000E+00 -1.336300980E+02  1.336300980E+02  0.000000000E+00  0.00000E+00  9.000E+00
      21     1     1     2   516   514 -1.106509201E+01  6.110118533E-01 -1.224039250E+02  1.229045583E+02  2.697398305E-06  0.00000E+00  9.000E+00
      21     1     1     2   514   512  1.314078752E+01 -9.368005206E+00  1.439830924E+00  1.620225081E+01  4.272243734E-07  0.00000E+00  9.000E+00
      21     1     1     2   512   513 -2.075695506E+00  8.756993353E+00  2.038275069E+00  9.227567917E+00  1.548574097E-07  0.00000E+00  9.000E+00
</event>
<event>
      5  10001  2.40292E+09  2.02327E+01 -1.00000E+00  1.65914E-01
      21    -1     0     0   511   514  0.000000000E+00  0.000000000E+00  9.772818083E+01  9.772818083E+01  0.000000000E+00  0.00000E+00  9.000E+00
      21    -1     0     0   516   513  0.000000000E+00  0.000000000E+00 -3.826890072E+00  3.826890072E+00  0.000000000E+00  0.00000E+00  9.000E+00
      21     1     1     2   511   513 -4.830617932E+00 -6.832544346E+00  1.043827284E+01  1.337819389E+01  1.192092896E-07  0.00000E+00  9.000E+00
      21     1     1     2   515   514  8.041630589E+00  7.871632168E+00  8.400789238E+01  8.475822318E+01  0.000000000E+00  0.00000E+00  9.000E+00
      21     1     1     2   516   515 -3.211012657E+00 -1.039087821E+00 -5.448744668E-01  3.418653824E+00  1.630639183E-07  0.00000E+00  9.000E+00
</event>
<event>
      5  10001  2.40292E+09  1.10261E+01 -1.00000E+00  1.90922E-01
       3    -1     0     0   513     0  0.000000000E+00  0.000000000E+00  1.147997610E+02  1.147997610E+02  0.000000000E+00  0.00000E+00  9.000E+00
      21    -1     0     0   512   515  0.000000000E+00  0.000000000E+00 -5.893927204E+01  5.893927204E+01  0.000000000E+00  0.00000E+00  9.000E+00
      21     1     1     2   513   515  7.086468810E+00 -8.614758558E+00 -5.733253598E+01  5.840763466E+01  6.743495762E-07  0.00000E+00  9.000E+00
       3     1     1     2   511     0 -6.800952615E+00 -1.459535285E+00  8.679832803E+01  8.707802793E+01  5.000000000E-01  0.00000E+00  9.000E+00
      21     1     1     2   512   511 -2.855161951E-01  1.007429384E+01  2.639469688E+01  2.825337040E+01  4.768371582E-07  0.00000E+00  9.000E+00
</event>
<event>
      5  10001  2.40292E+09  9.48389E+00 -1.00000E+00  1.98396E-01
      21    -1     0     0   514   511  0.000000000E+00  0.000000000E+00  3.511801258E+01  3.511801258E+01  0.000000000E+00  0.00000E+00  9.000E+00
      21    -1     0     0   512   516  0.000000000E+00  0.000000000E+00 -4.075580726E+01  4.075580726E+01  0.000000000E+00  0.00000E+00  9.000E+00
      21     1     1     2   514   516 -7.260188690E+00  7.543358426E+00 -3.624013123E+01  3.772213816E+01  6.743495762E-07  0.00000E+00  9.000E+00
      21     1     1     2   512   513  8.663647820E-01 -4.061808505E+00  3.059077119E+01  3.087141328E+01  5.840038640E-07  0.00000E+00  9.000E+00
      21     1     1     2   513   511  6.393823909E+00 -3.481549922E+00  1.156535634E-02  7.280268387E+00  2.246617254E-07  0.00000E+00  9.000E+00
</event>
<event>
      5  10001  2.40292E+09  2.92678E+00 -1.00000E+00  3.00020E-01
      21    -1     0     0   512   511  0.000000000E+00  0.000000000E+00  1.057828142E+02  1.057828142E+02  0.000000000E+00  0.00000E+00  9.000E+00
      21    -1     0     0   511   514  0.000000000E+00  0.000000000E+00 -1.525270603E+01  1.525270603E+01  0.000000000E+00  0.00000E+00  9.000E+00
      -3     1     1     2     0   514  7.290740811E+00 -7.401430764E+00 -1.139055138E+01  1.542500371E+01  5.000000000E-01  0.00000E+00  9.000E+00
       3     1     1     2   513     0 -5.676780206E+00  9.842361934E+00  1.594718928E+01  1.958726035E+01  5.000000000E-01  0.00000E+00  9.000E+00
      21     1     1     2   512   513 -1.613960605E+00 -2.440931170E+00  8.597347030E+01  8.602325622E+01  9.536743164E-07  0.00000E+00  9.000E+00
</event>
<event>
      5  10001  2.40292E+09  7.42924E+00 -1.00000E+00  2.11895E-01
       1    -1     0     0   514     0  0.000000000E+00  0.000000000E+00  3.458843693E+02  3.458843693E+02  0.000000000E+00  0.00000E+00  9.000E+00
       3    -1     0     0   512     0  0.000000000E+00  0.000000000E+00 -1.599590030E+01  1.599590030E+01  0.000000000E+00  0.00000E+00  9.000E+00
      21     1     1     2   514   513  1.303601251E+01  6.901210593E+00  8.253029365E+01  8.383802061E+01  2.132480600E-06  0.00000E+00  9.000E+00
       1     1     1     2   512     0 -8.187870351E+00 -1.272074993E+00  2.617272308E+02  2.618585719E+02  3.300000131E-01  0.00000E+00  9.000E+00
       3     1     1     2   513     0 -4.848142160E+00 -5.629135601E+00 -1.436905548E+01  1.618367713E+01  5.000000000E-01  0.00000E+00  9.000E+00
</event>
<event>
      5  10001  2.40292E+09  6.55277E+00 -1.00000E+00  2.19613E-01
       2    -1     0     0   512     0  0.000000000E+00  0.000000000E+00  4.316094104E+02  4.316094104E+02  0.000000000E+00  0.00000E+00  9.000E+00
      21    -1     0     0   511   515  0.000000000E+00  0.000000000E+00 -5.418054551E+00  5.418054551E+00  0.000000000E+00  0.00000E+00  9.000E+00
      21     1     1     2   514   515  1.586118096E+00 -1.577227830E+00 -1.681539489E+00  2.798391198E+00  1.645887050E-07  0.00000E+00  9.000E+00
       2     1     1     2   511     0 -7.330897203E+00  9.162978161E+00  4.236599885E+02  4.238226008E+02  3.300000131E-01  0.00000E+00  9.000E+00
      21     1     1     2   512   514  5.744779107E+00 -7.585750330E+00  4.212906878E+00  1.040647296E+01  3.862822472E-07  0.00000E+00  9.000E+00
</event>
<event>
      5  10001  2.40292E+09  4.05336E+00 -1.00000E+00  2.62014E-01
      21    -1     0     0   513   511  0.000000000E+00  0.000000000E+00  1.930069540E+01  1.930069540E+01  0.000000000E+00  0.00000E+00  9.000E+00
      21    -1     0     0   516   514  0.000000000E+00  0.000000000E+00 -1.342687759E+02  1.342687759E+02  0.000000000E+00  0.00000E+00  9.000E+00
      21     1     1     2   513   514 -1.054183760E+01 -4.801285735E+00  1.707952707E+01  2.063717349E+01  2.384185791E-07  0.00000E+00  9.000E+00
      21     1     1     2   516   515  5.923704450E+00  3.674870473E+00 -1.156415492E+02  1.158514689E+02  1.907348633E-06  0.00000E+00  9.000E+00
      21     1     1     2   515   511  4.618133147E+00  1.126415262E+00 -1.640605836E+01  1.708082891E+01  0.000000000E+00  0.00000E+00  9.000E+00
</event>
<event>
      5  10001  2.40292E+09  1.89957E+01 -1.00000E+00  1.68194E-01
      21    -1     0     0   512   514  0.000000000E+00  0.000000000E+00  1.406680996E+02  1.406680996E+02  0.000000000E+00  0.00000E+00  9.000E+00
      21    -1     0     0   517   511  0.000000000E+00  0.000000000E+00 -9.825644266E+00  9.825644266E+00  0.000000000E+00  0.00000E+00  9.000E+00
      21     1     1     2   512   511 -1.500631209E+01  5.751975389E+00  1.322683038E+02  1.332410553E+02  0.000000000E+00  0.00000E+00  9.000E+00
      21     1     1     2   517   513 -3.217908883E-01 -8.759110861E-01 -6.722078319E-01  1.150057814E+00  1.825012075E-08  0.00000E+00  9.000E+00
      21     1     1     2   513   514  1.532810298E+01 -4.876064302E+00 -7.536406202E-01  1.610263078E+01  3.963540816E-07  0.00000E+00  9.000E+00
</event>
<event>
      5  10001  2.40292E+09  9.20411E+00 -1.00000E+00  1.99954E-01
      21    -1     0     0   513   514  0.000000000E+00  0.000000000E+00  4.934303091E+01  4.934303091E+01  0.000000000E+00  0.00000E+00  9.000E+00
       2    -1     0     0   515     0  0.000000000E+00  0.000000000E+00 -8.812766138E+00  8.812766138E+00  0.000000000E+00  0.00000E+00  9.000E+00
      21     1     1     2   511   514  5.492854248E+00  5.113835281E+00  2.027134835E+01  2.161597379E+01  3.371747881E-07  0.00000E+00  9.000E+00
       2     1     1     2   513     0 -2.347929119E+00 -1.111501144E+01 -3.453693165E+00  1.187826364E+01  3.300000131E-01  0.00000E+00  9.000E+00
      21     1     1     2   515   511 -3.144925130E+00  6.001176163E+00  2.371260959E+01  2.466155962E+01  4.768371582E-07  0.00000E+00  9.000E+00
</event>
<event>
      5  10001  2.40292E+09  4.91032E+00 -1.00000E+00  2.44020E-01
      21    -1     0     0   515   513  0.000000000E+00  0.000000000E+00  9.026198626E+00  9.026198626E+00  0.000000000E+00  0.00000E+00  9.000E+00
       2    -1     0     0   511     0  0.000000000E+00  0.000000000E+00 -9.050972714E+02  9.050972714E+02  0.000000000E+00  0.00000E+00  9.000E+00
      21     1     1     2   515   512 -1.669668767E+00 -8.986824845E+00  2.968634953E-01  9.145432878E+00  1.492791270E-06  0.00000E+00  9.000E+00
       2     1     1     2   512     0 -2.785407080E+00  1.105162000E+01 -8.992248276E+02  8.992971123E+02  3.300000131E-01  0.00000E+00  9.000E+00
      21     1     1     2   511   513  4.455075847E+00 -2.064795152E+00  2.856891257E+00  5.680924879E+00  5.945544643E-07  0.00000E+00  9.000E+00
</event>
<event>
      5  10001  2.40292E+09  3.76719E+00 -1.00000E+00  2.69647E-01
      21    -1     0     0   514   512  0.000000000E+00  0.000000000E+00  1.162671376E+02  1.162671376E+02  0.000000000E+00  0.00000E+00  9.000E+00
      21    -1     0     0   515   513  0.000000000E+00  0.000000000E+00 -2.481477846E+01  2.481477846E+01  0.000000000E+00  0.00000E+00  9.000E+00
      21     1     1     2   514   513 -8.758901596E+00 -4.182743654E+00 -2.227096323E+01  2.429422781E+01  3.371747881E-07  0.00000E+00  9.000E+00
      21     1     1     2   511   512  9.961848416E+00  7.752709319E+00  1.118869072E+02  1.125967270E+02  0.000000000E+00  0.00000E+00  9.000E+00
      21     1     1     2   515   511 -1.202946820E+00 -3.569965665E+00  1.836415243E+00  4.190961327E+00  6.664001875E-08  0.00000E+00  9.000E+00
</event>
<event>
      5  10001  2.40292E+09  5.37737E+00 -1.00000E+00  2.33041E-01
       3    -1     0     0   516     0  0.000000000E+00  0.000000000E+00  4.859956199E+02  4.859956199E+02  0.000000000E+00  0.00000E+00  9.000E+00
      21    -1     0     0   515   517  0.000000000E+00  0.000000000E+00 -3.686330526E+00  3.686330526E+00  0.000000000E+00  0.00000E+00  9.000E+00
      21     1     1     2   516   517  1.605176228E+01  1.644793472E+01  7.716439659E+01  8.051420825E+01  1.907348633E-06  0.00000E+00  9.000E+00
      21     1     1     2   515   511 -1.119408461E+01 -1.414219789E+01  3.884525335E+01  4.282829672E+01  6.743495762E-07  0.00000E+00  9.000E+00
       3     1     1     2   511     0 -4.857677664E+00 -2.305736827E+00  3.662996395E+02  3.663394455E+02  5.000000000E-01  0.00000E+00  9.000E+00
</event>
<event>
      5  10001  2.40292E+09  1.17510E+01 -1.00000E+00  1.87937E-01
      21    -1     0     0   512   515  0.000000000E+00  0.000000000E+00  9.525897473E-01  9.525897473E-01  0.000000000E+00  0.00000E+00  9.000E+00
      21    -1     0     0   514   513  0.000000000E+00  0.000000000E+00 -1.431516693E+03  1.431516693E+03  0.000000000E+00  0.00000E+00  9.000E+00
      21     1     1     2   512   513  8.280852371E+00 -1.145751819E+01 -5.793052717E+01  5.963047222E+01  1.651812370E-06  0.00000E+00  9.000E+00
      21     1     1     2   516   515 -1.125288991E+00  1.514665619E+01 -1.021810555E+03  1.021923431E+03  0.000000000E+00  0.00000E+00  9.000E+00
      21     1     1     2   514   516 -7.155563380E+00 -3.689137999E+00 -3.508230203E+02  3.509153792E+02  5.394796609E-06  0.00000E+00  9.000E+00
</event>
<event>
      5  10001  2.40292E+09  5.98897E+00 -1.00000E+00  2.25517E-01
      21    -1     0     0   511   513  0.000000000E+00  0.000000000E+00  2.107271270E+02  2.107271270E+02  0.000000000E+00  0.00000E+00  9.000E+00
      21    -1     0     0   514   517  0.000000000E+00  0.000000000E+00 -1.195451037E+00  1.195451037E+00  0.000000000E+00  0.00000E+00  9.000E+00
      21     1     1     2   511   517  5.917744790E+00  8.525546541E+00  2.825479849E+01  3.010046985E+01  4.768371582E-07  0.00000E+00  9.000E+00
      21     1     1     2   512   513 -5.234396924E+00 -3.685375695E+00  1.524026203E+02  1.525370105E+02  2.697398305E-06  0.00000E+00  9.000E+00
      21     1     1     2   514   512 -6.833478663E-01 -4.840170846E+00  2.887425716E+01  2.928509765E+01  0.000000000E+00  0.00000E+00  9.000E+00
</event>
<event>
      5  10001  2.40292E+09  1.39633E+01 -1.00000E+00  1.80315E-01
      21    -1     0     0   515   513  0.000000000E+00  0.000000000E+00  1.117860877E+01  1.117860877E+01  0.000000000E+00  0.00000E+00  9.000E+00
      21    -1     0     0   514   515  0.000000000E+00  0.000000000E+00 -6.528560122E+01  6.528560122E+01  0.000000000E+00  0.00000E+00  9.000E+00
      21     1     1     2   512   513  2.443849067E+00  1.008975888E+01  7.474191259E+00  1.279215257E+01  2.795705652E-07  0.00000E+00  9.000E+00
      21     1     1     2   514   511 -6.154644019E+00 -1.003400895E+00 -2.799699324E+01  2.868306272E+01  3.371747881E-07  0.00000E+00  9.000E+00
      21     1     1     2   511   512  3.710794951E+00 -9.086357981E+00 -3.358419047E+01  3.498899470E+01  6.743495762E-07  0.00000E+00  9.000E+00
</event>
<event>
      5  10001  2.40292E+09  1.08834E+01 -1.00000E+00  1.91545E-01
      21    -1     0     0   514   513  0.000000000E+00  0.000000000E+00  9.922470286E+01  9.922470286E+01  0.000000000E+00  0.00000E+00  9.000E+00
      21    -1     0     0   511   515  0.000000000E+00  0.000000000E+00 -2.336715239E+01  2.336715239E+01  0.000000000E+00  0.00000E+00  9.000E+00
      21     1     1     2   514   515 -1.656770924E+01  9.483978221E+00 -1.424842778E+01  2.382126207E+01  6.743495762E-07  0.00000E+00  9.000E+00
       1     1     1     2   511     0  2.717754810E+01 -7.061192175E+00  5.150027868E+01  5.865890521E+01  3.300000131E-01  0.00000E+00  9.000E+00
      -1     1     1     2     0   513 -1.060983887E+01 -2.422786046E+00  3.860569957E+01  4.011168798E+01  3.300000131E-01  0.00000E+00  9.000E+00
</event>
<event>
      5  10001  2.40292E+09  5.53926E+00 -1.00000E+00  2.30917E-01
      21    -1     0     0   512   511  0.000000000E+00  0.000000000E+00  4.716855991E+02  4.716855991E+02  0.000000000E+00  0.00000E+00  9.000E+00
       1    -1     0     0   516     0  0.000000000E+00  0.000000000E+00 -2.563674725E+01  2.563674725E+01  0.000000000E+00  0.00000E+00  9.000E+00
      21     1     1     2   512   513 -1.499396373E+01  3.656255435E+00  3.286373809E+02  3.289995673E+02  5.394796609E-06  0.00000E+00  9.000E+00
      21     1     1     2   516   511  1.188611206E+01 -8.241499926E+00  1.421934279E+02  1.429271595E+02  0.000000000E+00  0.00000E+00  9.000E+00
       1     1     1     2   513     0  3.107851662E+00  4.585244491E+00 -2.478195690E+01  2.539561964E+01  3.300000131E-01  0.00000E+00  9.000E+00
</event>
<event>
      5  10001  2.40292E+09  6.48830E+00 -1.00000E+00  2.20246E-01
      -2    -1     0     0     0   514  0.000000000E+00  0.000000000E+00  1.075656660E+01  1.075656660E+01  0.000000000E+00  0.00000E+00  9.000E+00
      21    -1     0     0   514   512  0.000000000E+00  0.000000000E+00 -3.292104677E+01  3.292104677E+01  0.000000000E+00  0.00000E+00  9.000E+00
      21     1     1     2   515   511  1.410611755E+00 -1.306757902E+00  4.037671157E+00  4.472161682E+00  1.976862425E-07  0.00000E+00  9.000E+00
      21     1     1     2   511   512 -5.485301250E+00  8.627565575E+00 -2.869171187E+01  3.045878769E+01  3.371747881E-07  0.00000E+00  9.000E+00
      -2     1     1     2     0   515  4.074689495E+00 -7.320807673E+00  2.489560541E+00  8.746664002E+00  3.300000131E-01  0.00000E+00  9.000E+00
</event>
<event>
      5  10001  2.40292E+09  2.83194E+00 -1.00000E+00  3.04531E-01
       1    -1     0     0   512     0  0.000000000E+00  0.000000000E+00  9.531537802E+00  9.531537802E+00  0.000000000E+00  0.00000E+00  9.000E+00
       2    -1     0     0   513     0  0.000000000E+00  0.000000000E+00 -6.104370044E+01  6.104370044E+01  0.000000000E+00  0.00000E+00  9.000E+00
       1     1     1     2   513     0  1.140493506E+01  9.317663991E+00  2.043013892E+00  1.487192697E+01  3.300000131E-01  0.00000E+00  9.000E+00
      21     1     1     2   512   511 -9.130395068E+00 -7.318047581E+00 -3.511702012E+01  3.701517305E+01  9.536743164E-07  0.00000E+00  9.000E+00
       2     1     1     2   511     0 -2.274539996E+00 -1.999616411E+00 -1.843815641E+01  1.868813821E+01  3.300000131E-01  0.00000E+00  9.000E+00
</event>
<event>
      5  10001  2.40292E+09  1.15616E+01 -1.00000E+00  1.88690E-01
       3    -1     0     0   514     0  0.000000000E+00  0.000000000E+00  2.777034014E+01  2.777034014E+01  0.000000000E+00  0.00000E+00  9.000E+00
      21    -1     0     0   511   512  0.000000000E+00  0.000000000E+00 -6.463880019E+00  6.463880019E+00  0.000000000E+00  0.00000E+00  9.000E+00
      21     1     1     2   514   513  9.026377835E-01 -3.043930528E+00  3.504877570E+00  4.729105075E+00  7.300048300E-08  0.00000E+00  9.000E+00
       3     1     1     2   511     0  6.828451986E+00  9.407827186E+00  3.699414293E+00  1.220944859E+01  5.000000000E-01  0.00000E+00  9.000E+00
      21     1     1     2   513   512 -7.731089770E+00 -6.363896658E+00  1.410216826E+01  1.729566649E+01  1.685873940E-07  0.00000E+00  9.000E+00
</event>
<event>
      5  10001  2.40292E+09  4.09861E+00 -1.00000E+00  2.60896E-01
      21    -1     0     0   515   511  0.000000000E+00  0.000000000E+00  5.824184976E+01  5.824184976E+01  0.000000000E+00  0.00000E+00  9.000E+00
       4    -1     0     0   513     0  0.000000000E+00  0.000000000E+00 -5.682779845E+00  5.682779845E+00  0.000000000E+00  0.00000E+00  9.000E+00
      21     1     1     2   514   511  5.660687049E+00 -5.763210760E+00 -1.123591804E+00  8.156006049E+00  2.356080458E-07  0.00000E+00  9.000E+00
       4     1     1     2   515     0 -5.171532936E+00  9.033554994E+00  4.845343721E+01  4.958160391E+01  1.500000000E+00  0.00000E+00  9.000E+00
      21     1     1     2   513   514 -4.891541126E-01 -3.270344234E+00  5.229224513E+00  6.187019651E+00  1.192092896E-07  0.00000E+00  9.000E+00
</event>
<event>
      5  10001  2.40292E+09  1.79782E+01 -1.00000E+00  1.70237E-01
       4    -1     0     0   513     0  0.000000000E+00  0.000000000E+00  2.700499662E+00  2.700499662E+00  0.000000000E+00  0.00000E+00  9.000E+00
      21    -1     0     0   512   515  0.000000000E+00  0.000000000E+00 -8.207878496E+01  8.207878496E+01  0.000000000E+00  0.00000E+00  9.000E+00
      21     1     1     2   513   515  1.109923698E+01 -4.943857137E+00 -4.404805062E+01  4.569316742E+01  6.743495762E-07  0.00000E+00  9.000E+00
      21     1     1     2   512   511 -4.057263722E-01  4.360684102E+00 -1.901238267E+01  1.951027612E+01  2.384185791E-07  0.00000E+00  9.000E+00
       4     1     1     2   511     0 -1.069351061E+01  5.831730352E-01 -1.631785201E+01  1.957584109E+01  1.500000000E+00  0.00000E+00  9.000E+00
</event>
<event>
      5  10001  2.40292E+09  6.84548E+00 -1.00000E+00  2.16861E-01
      21    -1     0     0   513   514  0.000000000E+00  0.000000000E+00  3.574158682E+01  3.574158682E+01  0.000000000E+00  0.00000E+00  9.000E+00
       2    -1     0     0   514     0  0.000000000E+00  0.000000000E+00 -1.424562421E+02  1.424562421E+02  0.000000000E+00  0.00000E+00  9.000E+00
      21     1     1     2   512   511 -7.510455919E+00 -4.090933126E-01 -7.770457602E+00  1.081454191E+01  8.387116956E-07  0.00000E+00  9.000E+00
       2     1     1     2   511     0  1.373841075E+01 -2.432158318E+00 -1.324510774E+02  1.331842939E+02  3.300000131E-01  0.00000E+00  9.000E+00
      21     1     1     2   513   512 -6.227954827E+00  2.841251630E+00  3.350687982E+01  3.419899307E+01  1.066240300E-06  0.00000E+00  9.000E+00
</event>
<event>
      5  10001  2.40292E+09  1.27213E+01 -1.00000E+00  1.84350E-01
      21    -1     0     0   515   511  0.000000000E+00  0.000000000E+00  1.483531958E+02  1.483531958E+02  0.000000000E+00  0.00000E+00  9.000E+00
      21    -1     0     0   514   512  0.000000000E+00  0.000000000E+00 -1.038782634E+00  1.038782634E+00  0.000000000E+00  0.00000E+00  9.000E+00
      21     1     1     2   515   512  4.557204105E+00  8.126989314E+00  9.817477317E+01  9.861593255E+01  0.000000000E+00  0.00000E+00  9.000E+00
      21     1     1     2   514   516  1.063878627E+00 -4.251564750E+00  3.243844690E+01  3.273317092E+01  6.743495762E-07  0.00000E+00  9.000E+00
      21     1     1     2   516   511 -5.621082732E+00 -3.875424564E+00  1.670119307E+01  1.804287495E+01  0.000000000E+00  0.00000E+00  9.000E+00
</event>
<event>
      5  10001  2.40292E+09  5.23025E+00 -1.00000E+00  2.35064E-01
      21    -1     0     0   513   511  0.000000000E+00  0.000000000E+00  1.003332275E+01  1.003332275E+01  0.000000000E+00  0.00000E+00  9.000E+00
       1    -1     0     0   514     0  0.000000000E+00  0.000000000E+00 -4.104235960E+02  4.104235960E+02  0.000000000E+00  0.00000E+00  9.000E+00
      21     1     1     2   514   511  9.404408538E+00 -5.426269320E+00  6.908847142E+00  1.286932273E+01  6.419616708E-07  0.00000E+00  9.000E+00
       1     1     1     2   512     0 -3.559871802E+00  4.247560106E+00 -3.340792496E+02  3.341253782E+02  3.300000131E-01  0.00000E+00  9.000E+00
      21     1     1     2   513   512 -5.844536736E+00  1.178709214E+00 -7.321987082E+01  7.346221782E+01  9.536743164E-07  0.00000E+00  9.000E+00
</event>
<event>
      5  10001  2.40292E+09  1.18293E+01 -1.00000E+00  1.87631E-01
      21    -1     0     0   515   512  0.000000000E+00  0.000000000E+00  9.758205740E+00  9.758205740E+00  0.000000000E+00  0.00000E+00  9.000E+00
      21    -1     0     0   511   516  0.000000000E+00  0.000000000E+00 -4.049802682E+01  4.049802682E+01  0.000000000E+00  0.00000E+00  9.000E+00
      21     1     1     2   515   516 -1.272993304E+01 -4.817299768E+00  9.755192560E-01  1.364584955E+01  3.420782174E-07  0.00000E+00  9.000E+00
      21     1     1     2   511   514  3.797990548E+00 -6.190199112E-01 -2.201079562E+01  2.234464235E+01  0.000000000E+00  0.00000E+00  9.000E+00
      21     1     1     2   514   512  8.931942492E+00  5.436319679E+00 -9.704544712E+00  1.426574065E+01  2.665600750E-07  0.00000E+00  9.000E+00
</event>
<event>
      5  10001  2.40292E+09  1.74456E+01 -1.00000E+00  1.71375E-01
      21    -1     0     0   513   514  0.000000000E+00  0.000000000E+00  5.086072506E+00  5.086072506E+00  0.000000000E+00  0.00000E+00  9.000E+00
      21    -1     0     0   512   513  0.000000000E+00  0.000000000E+00 -5.344264716E+01  5.344264716E+01  0.000000000E+00  0.00000E+00  9.000E+00
      21     1     1     2   511   514  9.133946343E+00  7.721823899E+00 -9.320561497E+00  1.516339034E+01  2.064765462E-07  0.00000E+00  9.000E+00
      21     1     1     2   515   511 -2.730158034E+00 -6.598691621E+00 -5.009002724E+00  8.722763455E+00  2.230201594E-07  0.00000E+00  9.000E+00
      21     1     1     2   512   515 -6.403788309E+00 -1.123132277E+00 -3.402701043E+01  3.464256586E+01  4.768371582E-07  0.00000E+00  9.000E+00
</event>
<event>
      5  10001  2.40292E+09  5.52353E+00 -1.00000E+00  2.31119E-01
      21    -1     0     0   515   511  0.000000000E+00  0.000000000E+00  2.718700122E+02  2.718700122E+02  0.000000000E+00  0.00000E+00  9.000E+00
      21    -1     0     0   511   513  0.000000000E+00  0.000000000E+00 -2.315517819E+00  2.315517819E+00  0.000000000E+00  0.00000E+00  9.000E+00
      21     1     1     2   515   512 -7.212011340E+00 -8.854349240E+00  6.437260829E+01  6.537771261E+01  0.000000000E+00  0.00000E+00  9.000E+00
       4     1     1     2   512     0  1.014387119E+01  4.188306116E+00  2.019342668E+02  2.022378257E+02  1.500000000E+00  0.00000E+00  9.000E+00
      -4     1     1     2     0   513 -2.931859845E+00  4.666043123E+00  3.247619355E+00  6.569991785E+00  1.500000000E+00  0.00000E+00  9.000E+00
</event>
<event>
      5  10001  2.40292E+09  4.58353E+00 -1.00000E+00  2.50174E-01
      -3    -1     0     0     0   513  0.000000000E+00  0.000000000E+00  5.834699390E+00  5.834699390E+00  0.000000000E+00  0.00000E+00  9.000E+00
      -1    -1     0     0     0   514  0.000000000E+00  0.000000000E+00 -1.593200006E+02  1.593200006E+02  0.000000000E+00  0.00000E+00  9.000E+00
      -3     1     1     2     0   511  1.780279565E+00  7.034771354E+00  2.665395244E+00  7.746724155E+00  5.000000000E-01  0.00000E+00  9.000E+00
      -1     1     1     2     0   513 -5.247933400E+00 -8.891060586E+00 -1.479776666E+02  1.483377581E+02  3.300000131E-01  0.00000E+00  9.000E+00
      21     1     1     2   511   514  3.467653835E+00  1.856289232E+00 -8.173029814E+00  9.070217703E+00  1.685873940E-07  0.00000E+00  9.000E+00
</event>
<event>
      5  10001  2.40292E+09  6.66749E+00 -1.00000E+00  2.18511E-01
      21    -1     0     0   512   514  0.000000000E+00  0.000000000E+00  1.645664064E+01  1.645664064E+01  0.000000000E+00  0.00000E+00  9.000E+00
      21    -1     0     0   511   515  0.000000000E+00  0.000000000E+00 -9.638390340E+00  9.638390340E+00  0.000000000E+00  0.00000E+00  9.000E+00
      21     1     1     2   512   515  9.955039553E+00 -5.538460994E+00  2.724394514E+00  1.171322706E+01  1.712013080E-07  0.00000E+00  9.000E+00
      21     1     1     2   511   513 -4.242865618E+00  6.634906736E+00  3.183138411E+00  8.494484457E+00  1.737759082E-07  0.00000E+00  9.000E+00
      21     1     1     2   513   514 -5.712173935E+00 -1.096445742E+00  9.107173773E-01  5.887319464E+00  1.268788156E-07  0.00000E+00  9.000E+00
</event>
<event>
      5  10001  2.40292E+09  3.44247E+01 -1.00000E+00  1.48969E-01
      -4    -1     0     0     0   514  0.000000000E+00  0.000000000E+00  2.603402028E+01  2.603402028E+01  0.000000000E+00  0.00000E+00  9.000E+00
      21    -1     0     0   512   513  0.000000000E+00  0.000000000E+00 -1.570833030E+01  1.570833030E+01  0.000000000E+00  0.00000E+00  9.000E+00
      21     1     1     2   511   513 -1.607110788E+00 -1.163015794E+01 -8.903902493E+00  1.473508936E+01  1.685873940E-07  0.00000E+00  9.000E+00
      21     1     1     2   512   514 -2.618555563E+00 -2.691850362E+00  5.546936659E+00  6.698611640E+00  3.722308873E-07  0.00000E+00  9.000E+00
      -4     1     1     2     0   511  4.225666351E+00  1.432200830E+01  1.368265581E+01  2.030864959E+01  1.500000000E+00  0.00000E+00  9.000E+00
</event>
<event>
      5  10001  2.40292E+09  5.70704E+00 -1.00000E+00  2.28821E-01
      21    -1     0     0   515   511  0.000000000E+00  0.000000000E+00  3.312638789E+01  3.312638789E+01  0.000000000E+00  0.00000E+00  9.000E+00
      21    -1     0     0   516   515  0.000000000E+00  0.000000000E+00 -1.085815982E+01  1.085815982E+01  0.000000000E+00  0.00000E+00  9.000E+00
      21     1     1     2   512   511  6.709013020E-01 -9.964600378E+00  2.772953443E+01  2.947321579E+01  3.371747881E-07  0.00000E+00  9.000E+00
      21     1     1     2   513   512 -3.432988967E+00  5.369428217E+00 -6.441105269E+00  9.061126294E+00  3.862822472E-07  0.00000E+00  9.000E+00
      21     1     1     2   516   513  2.762087665E+00  4.595172161E+00  9.797989105E-01  5.450205626E+00  4.470348358E-08  0.00000E+00  9.000E+00
</event>
<event>
      5  10001  2.40292E+09  1.78506E+01 -1.00000E+00  1.70505E-01
      21    -1     0     0   514   512  0.000000000E+00  0.000000000E+00  3.851673051E+00  3.851673051E+00  0.000000000E+00  0.00000E+00  9.000E+00
      21    -1     0     0   516   514  0.000000000E+00  0.000000000E+00 -9.967937428E+02  9.967937428E+02  0.000000000E+00  0.00000E+00  9.000E+00
      21     1     1     2   513   512  1.130639967E+01  2.124685494E+01 -3.633739354E+01  4.358520033E+01  2.078484985E-06  0.00000E+00  9.000E+00
      21     1     1     2   511   513 -1.378470922E+01 -9.449863040E+00 -4.454363546E+02  4.457497775E+02  0.000000000E+00  0.00000E+00  9.000E+00
      21     1     1     2   516   511  2.478309550E+00 -1.179699190E+01 -5.111683216E+02  5.113104380E+02  7.629394531E-06  0.00000E+00  9.000E+00
</event>
<event>
      5  10001  2.40292E+09  6.55400E+00 -1.00000E+00  2.19601E-01
       3    -1     0     0   513     0  0.000000000E+00  0.000000000E+00  7.053779724E+01  7.053779724E+01  0.000000000E+00  0.00000E+00  9.000E+00
      21    -1     0     0   511   513  0.000000000E+00  0.000000000E+00 -1.127315492E+02  1.127315492E+02  0.000000000E+00  0.00000E+00  9.000E+00
      21     1     1     2   512   515 -1.942064038E+00 -9.891037447E+00 -1.083053806E+02  1.087734329E+02  2.336015456E-06  0.00000E+00  9.000E+00
       3     1     1     2   515     0  8.951319233E-01  1.484049702E+01  6.760406398E+01  6.922139178E+01  5.000000000E-01  0.00000E+00  9.000E+00
      21     1     1     2   511   512  1.046932114E+00 -4.949459572E+00 -1.492435343E+00  5.274521795E+00  1.299053116E-07  0.00000E+00  9.000E+00
</event>
<event>
      5  10001  2.40292E+09  1.11315E+01 -1.00000E+00  1.90470E-01
      21    -1     0     0   514   512  0.000000000E+00  0.000000000E+00  1.113892498E+00  1.113892498E+00  0.000000000E+00  0.00000E+00  9.000E+00
       2    -1     0     0   512     0  0.000000000E+00  0.000000000E+00 -1.604142198E+02  1.604142198E+02  0.000000000E+00  0.00000E+00  9.000E+00
      21     1     1     2   514   511 -5.586350197E+00 -5.793222589E+00 -2.199537550E+01  2.342147049E+01  2.384185791E-07  0.00000E+00  9.000E+00
       2     1     1     2   513     0  7.518009979E+00 -9.461559904E-01 -8.420355731E+01  8.454444777E+01  3.300000131E-01  0.00000E+00  9.000E+00
      21     1     1     2   511   513 -1.931659782E+00  6.739378579E+00 -5.310139447E+01  5.356219401E+01  6.743495762E-07  0.00000E+00  9.000E+00
</event>
<event>
      5  10001  2.40292E+09  7.67970E+00 -1.00000E+00  2.09951E-01
       2    -1     0     0   511     0  0.000000000E+00  0.000000000E+00  6.761509842E-01  6.761509842E-01  0.000000000E+00  0.00000E+00  9.000E+00
       2    -1     0     0   512     0  0.000000000E+00  0.000000000E+00 -2.890092826E+02  2.890092826E+02  0.000000000E+00  0.00000E+00  9.000E+00
       2     1     1     2   511     0  2.770308849E+00 -9.063215429E+00 -2.084280827E+02  2.086436940E+02  3.300000131E-01  0.00000E+00  9.000E+00
       2     1     1     2   514     0 -4.865024677E+00  3.379126242E+00 -2.087417848E+01  2.170085682E+01  3.300000131E-01  0.00000E+00  9.000E+00
      21     1     1     2   512   514  2.094715828E+00  5.684089187E+00 -5.903087040E+01  5.934088274E+01  6.743495762E-07  0.00000E+00  9.000E+00
</event>
<event>
      5  10001  2.40292E+09  1.53065E+01 -1.00000E+00  1.76513E-01
      21    -1     0     0   513   511  0.000000000E+00  0.000000000E+00  1.597511949E+01  1.597511949E+01  0.000000000E+00  0.00000E+00  9.000E+00
       2    -1     0     0   514     0  0.000000000E+00  0.000000000E+00 -5.986269999E+02  5.986269999E+02  0.000000000E+00  0.00000E+00  9.000E+00
      21     1     1     2   513   512  1.640824204E+01 -1.298581469E+01 -1.892111970E+01  2.821117794E+01  1.488923549E-06  0.00000E+00  9.000E+00
       2     1     1     2   512     0 -9.980248463E+00 -9.055273316E-01 -5.698269375E+02  5.699151454E+02  3.300000131E-01  0.00000E+00  9.000E+00
      21     1     1     2   514   511 -6.427993577E+00  1.389134202E+01  6.096176794E+00  1.647579607E+01  5.196212463E-07  0.00000E+00  9.000E+00
</event>
<event>
      5  10001  2.40292E+09  5.98908E+00 -1.00000E+00  2.25516E-01
       4    -1     0     0   512     0  0.000000000E+00  0.000000000E+00  5.887532956E+00  5.887532956E+00  0.000000000E+00  0.00000E+00  9.000E+00
      21    -1     0     0   515   516  0.000000000E+00  0.000000000E+00 -2.129440040E+02  2.129440040E+02  0.000000000E+00  0.00000E+00  9.000E+00
      21     1     1     2   513   516  1.195856504E+01  2.200339857E+00 -1.061032520E+02  1.067977006E+02  0.000000000E+00  0.00000E+00  9.000E+00
       4     1     1     2   515     0 -1.634983180E+01 -5.722041584E+00 -8.400372398E+00  1.930997193E+01  1.500000000E+00  0.00000E+00  9.000E+00
      21     1     1     2   512   513  4.391266756E+00  3.521701726E+00 -9.255284662E+01  9.272386437E+01  0.000000000E+00  0.00000E+00  9.000E+00
</event>
<event>
      5  10001  2.40292E+09  5.49374E+00 -1.00000E+00  2.31504E-01
      -1    -1     0     0     0   511  0.000000000E+00  0.000000000E+00  6.415079279E+00  6.415079279E+00  0.000000000E+00  0.00000E+00  9.000E+00
       2    -1     0     0   512     0  0.000000000E+00  0.000000000E+00 -1.765358813E+02  1.765358813E+02  0.000000000E+00  0.00000E+00  9.000E+00
      -1     1     1     2     0   513 -1.264020771E+01 -6.697316221E+00 -9.232149205E+00  1.702851651E+01  3.300000131E-01  0.00000E+00  9.000E+00
      21     1     1     2   512   511  1.143260107E+01  1.338303009E+00 -1.096357533E+01  1.589639601E+01  0.000000000E+00  0.00000E+00  9.000E+00
       2     1     1     2   513     0  1.207606643E+00  5.359013213E+00 -1.499250775E+02  1.500260481E+02  3.300000131E-01  0.00000E+00  9.000E+00
</event>
<event>
      5  10001  2.40292E+09  4.88935E+00 -1.00000E+00  2.44393E-01
       4    -1     0     0   512     0  0.000000000E+00  0.000000000E+00  1.300896178E+01  1.300896178E+01  0.000000000E+00  0.00000E+00  9.000E+00
      21    -1     0     0   514   515  0.000000000E+00  0.000000000E+00 -8.341072367E+00  8.341072367E+00  0.000000000E+00  0.00000E+00  9.000E+00
      21     1     1     2   512   515  4.935385589E+00 -7.078456610E+00 -4.238857620E-01  8.639575108E+00  1.456202588E-07  0.00000E+00  9.000E+00
       4     1     1     2   511     0 -1.970072552E+00  7.046355253E+00  6.031040281E+00  9.599778908E+00  1.500000000E+00  0.00000E+00  9.000E+00
      21     1     1     2   514   511 -2.965313037E+00  3.210135726E-02 -9.392651103E-01  3.110680127E+00  3.650024150E-08  0.00000E+00  9.000E+00
</event>
<event>
      5  10001  2.40292E+09  2.59625E+00 -1.00000E+00  3.17154E-01
       1    -1     0     0   514     0  0.000000000E+00  0.000000000E+00  6.029848716E+02  6.029848716E+02  0.000000000E+00  0.00000E+00  9.000E+00
      21    -1     0     0   512   511  0.000000000E+00  0.000000000E+00 -1.424301247E+01  1.424301247E+01  0.000000000E+00  0.00000E+00  9.000E+00
      21     1     1     2   514   511  8.787519103E+00  1.975633449E+00  3.764866858E+01  3.871105611E+01  1.784161275E-06  0.00000E+00  9.000E+00
       1     1     1     2   513     0 -1.126575427E+01 -1.201796414E+00  5.646247247E+02  5.647384794E+02  3.300000131E-01  0.00000E+00  9.000E+00
      21     1     1     2   512   513  2.478235168E+00 -7.738370353E-01 -1.353153410E+01  1.377834854E+01  1.105501472E-06  0.00000E+00  9.000E+00
</event>
<event>
      5  10001  2.40292E+09  4.53320E+00 -1.00000E+00  2.51191E-01
      -2    -1     0     0     0   512  0.000000000E+00  0.000000000E+00  2.204755895E+01  2.204755895E+01  0.000000000E+00  0.00000E+00  9.000E+00
       2    -1     0     0   514     0  0.000000000E+00  0.000000000E+00 -6.299211611E+00  6.299211611E+00  0.000000000E+00  0.00000E+00  9.000E+00
      21     1     1     2   515   512 -1.052373201E+01 -1.128869154E+00  1.140418503E+01  1.555887905E+01  1.685873940E-07  0.00000E+00  9.000E+00
       2     1     1     2   514     0  7.594329390E+00 -3.817982629E-01  5.376209242E+00  9.318376179E+00  3.300000131E-01  0.00000E+00  9.000E+00
      -2     1     1     2     0   515  2.929402619E+00  1.510667417E+00 -1.032046936E+00  3.469515332E+00  3.300000131E-01  0.00000E+00  9.000E+00
</event>
<event>
      5  10001  2.40292E+09  4.16845E+00 -1.00000E+00  2.59215E-01
      21    -1     0     0   511   515  0.000000000E+00  0.000000000E+00  8.560566538E+00  8.560566538E+00  0.000000000E+00  0.00000E+00  9.000E+00
      21    -1     0     0   513   511  0.000000000E+00  0.000000000E+00 -3.715000674E+02  3.715000674E+02  0.000000000E+00  0.00000E+00  9.000E+00
      21     1     1     2   514   515  8.676579376E+00 -7.240309128E+00  4.682892846E+00  1.223252187E+01  2.980232239E-07  0.00000E+00  9.000E+00
       4     1     1     2   513     0 -5.700564607E+00  3.937972340E+00 -1.662512801E+02  1.664023503E+02  1.500000000E+00  0.00000E+00  9.000E+00
      -4     1     1     2     0   514 -2.976014769E+00  3.302336789E+00 -2.013711136E+02  2.014257618E+02  1.500000000E+00  0.00000E+00  9.000E+00
</event>
<event>
      5  10001  2.40292E+09  1.39084E+01 -1.00000E+00  1.80482E-01
      21    -1     0     0   513   514  0.000000000E+00  0.000000000E+00  2.870182953E+00  2.870182953E+00  0.000000000E+00  0.00000E+00  9.000E+00
       1    -1     0     0   514     0  0.000000000E+00  0.000000000E+00 -8.105709640E+01  8.105709640E+01  0.000000000E+00  0.00000E+00  9.000E+00
      21     1     1     2   511   512  2.658305946E+00 -9.698081560E+00 -2.790930872E+01  2.966561797E+01  4.768371582E-07  0.00000E+00  9.000E+00
       1     1     1     2   512     0 -4.709477803E+00  7.499793352E+00 -5.047643877E+01  5.124847171E+01  3.300000131E-01  0.00000E+00  9.000E+00
      21     1     1     2   513   511  2.051171857E+00  2.198288208E+00  1.988340418E-01  3.013189674E+00  7.464537363E-08  0.00000E+00  9.000E+00
</event>
<event>
      5  10001  2.40292E+09  7.02494E+00 -1.00000E+00  2.15264E-01
      21    -1     0     0   515   514  0.000000000E+00  0.000000000E+00  1.367963070E+00  1.367963070E+00  0.000000000E+00  0.00000E+00  9.000E+00
       1    -1     0     0   512     0  0.000000000E+00  0.000000000E+00 -1.279100710E+02  1.279100710E+02  0.000000000E+00  0.00000E+00  9.000E+00
      21     1     1     2   512   516 -5.688123238E-01 -4.903495626E+00 -7.520747209E+00  8.996080002E+00  1.460009660E-07  0.00000E+00  9.000E+00
       1     1     1     2   515     0  5.827360145E+00  8.553875401E+00 -8.798585031E+01  8.859314683E+01  3.300000131E-01  0.00000E+00  9.000E+00
      21     1     1     2   516   514 -5.258547821E+00 -3.650379775E+00 -3.103551043E+01  3.168880726E+01  4.768371582E-07  0.00000E+00  9.000E+00
</event>
<event>
      5  10001  2.40292E+09  7.87629E+00 -1.00000E+00  2.08493E-01
      21    -1     0     0   511   514  0.000000000E+00  0.000000000E+00  7.601440589E+02  7.601440589E+02  0.000000000E+00  0.00000E+00  9.000E+00
      21    -1     0     0   515   511  0.000000000E+00  0.000000000E+00 -3.376098710E+00  3.376098710E+00  0.000000000E+00  0.00000E+00  9.000E+00
      21     1     1     2   513   512 -5.337091749E+00  7.260416943E+00  5.336713479E+00  1.047276054E+01  9.329602624E-07  0.00000E+00  9.000E+00
      21     1     1     2   512   514  1.214061348E+01 -3.292029995E+00  7.316165598E+02  7.317246904E+02  0.000000000E+00  0.00000E+00  9.000E+00
      21     1     1     2   515   513 -6.803521729E+00 -3.968386948E+00  1.981468695E+01  2.132270672E+01  7.152557373E-07  0.00000E+00  9.000E+00
</event>
<event>
      5  10001  2.40292E+09  2.69890E+01 -1.00000E+00  1.56264E-01
      21    -1     0     0   515   514  0.000000000E+00  0.000000000E+00  1.462227638E+02  1.462227638E+02  0.000000000E+00  0.00000E+00  9.000E+00
       2    -1     0     0   512     0  0.000000000E+00  0.000000000E+00 -4.493071183E+00  4.493071183E+00  0.000000000E+00  0.00000E+00  9.000E+00
      21     1     1     2   512   511 -7.987712031E+00 -4.435327067E+00  1.019494482E+02  1.023580268E+02  1.907348633E-06  0.00000E+00  9.000E+00
       2     1     1     2   515     0 -3.345686683E+00  1.271961837E+01  1.569386620E+01  2.047898062E+01  3.300000131E-01  0.00000E+00  9.000E+00
      21     1     1     2   511   514  1.133339871E+01 -8.284291304E+00  2.408637824E+01  2.787882755E+01  4.768371582E-07  0.00000E+00  9.000E+00
</event>
<event>
      5  10001  2.40292E+09  5.19692E+00 -1.00000E+00  2.35536E-01
      21    -1     0     0   513   512  0.000000000E+00  0.000000000E+00  1.077488210E+02  1.077488210E+02  0.000000000E+00  0.00000E+00  9.000E+00
      21    -1     0     0   514   513  0.000000000E+00  0.000000000E+00 -9.925734711E+00  9.925734711E+00  0.000000000E+00  0.00000E+00  9.000E+00
      21     1     1     2   516   512  2.833786154E+00  1.011450611E+01  1.036945901E+02  1.042252445E+02  1.348699152E-06  0.00000E+00  9.000E+00
      21     1     1     2   515   516  3.871300516E-01 -7.931294152E+00 -2.569883875E+00  8.346232667E+00  3.223614045E-07  0.00000E+00  9.000E+00
      21     1     1     2   514   515 -3.220916206E+00 -2.183211959E+00 -3.301619974E+00  5.103078494E+00  7.300048300E-08  0.00000E+00  9.000E+00
</event>
<event>
      5  10001  2.40292E+09  2.04790E+01 -1.00000E+00  1.65484E-01
       1    -1     0     0   513     0  0.000000000E+00  0.000000000E+00  3.386799108E+02  3.386799108E+02  0.000000000E+00  0.00000E+00  9.000E+00
      21    -1     0     0   515   513  0.000000000E+00  0.000000000E+00 -2.088772495E+00  2.088772495E+00  0.000000000E+00  0.00000E+00  9.000E+00
      21     1     1     2   512   511  1.649633446E+00  4.349707494E+00  1.585504695E+01  1.652343062E+01  4.129530925E-07  0.00000E+00  9.000E+00
       1     1     1     2   511     0 -1.136541899E+01 -3.056747033E+00  3.077514837E+02  3.079766242E+02  3.300000131E-01  0.00000E+00  9.000E+00
      21     1     1     2   515   512  9.715785539E+00 -1.292960461E+00  1.298460764E+01  1.626862843E+01  1.685873940E-07  0.00000E+00  9.000E+00
</event>
<event>
      5  10001  2.40292E+09  5.67086E+00 -1.00000E+00  2.29264E-01
      21    -1     0     0   514   511  0.000000000E+00  0.000000000E+00  4.742691661E+01  4.742691661E+01  0.000000000E+00  0.00000E+00  9.000E+00
      21    -1     0     0   515   512  0.000000000E+00  0.000000000E+00 -1.647268661E+01  1.647268661E+01  0.000000000E+00  0.00000E+00  9.000E+00
      21     1     1     2   514   512 -9.708141843E+00  6.188844540E+00 -1.348927407E+01  1.773443908E+01  1.685873940E-07  0.00000E+00  9.000E+00
      21     1     1     2   513   511  3.632363732E+00 -4.910543124E+00  1.821527831E+01  1.921207599E+01  2.384185791E-07  0.00000E+00  9.000E+00
      21     1     1     2   515   513  6.075778111E+00 -1.278301415E+00  2.622822576E+01  2.695308815E+01  4.768371582E-07  0.00000E+00  9.000E+00
</event>
<event>
      5  10001  2.40292E+09  2.58187E+01 -1.00000E+00  1.57672E-01
      21    -1     0     0   513   511  0.000000000E+00  0.000000000E+00  8.145267976E+00  8.145267976E+00  0.000000000E+00  0.00000E+00  9.000E+00
       2    -1     0     0   511     0  0.000000000E+00  0.000000000E+00 -5.642013526E+01  5.642013526E+01  0.000000000E+00  0.00000E+00  9.000E+00
      21     1     1     2   513   515 -8.550230756E+00  3.874681683E+00  3.379831078E+00  9.977116930E+00  4.616955931E-07  0.00000E+00  9.000E+00
      21     1     1     2   515   512  4.063555177E+00  4.359685383E+00 -8.229478281E+00  1.016088825E+01  0.000000000E+00  0.00000E+00  9.000E+00
       2     1     1     2   512     0  4.486675579E+00 -8.234367066E+00 -4.342522008E+01  4.442739805E+01  3.300000131E-01  0.00000E+00  9.000E+00
</event>
<event>
      5  10001  2.40292E+09  5.03573E+00 -1.00000E+00  2.37890E-01
      -1    -1     0     0     0   514  0.000000000E+00  0.000000000E+00  1.797663803E+02  1.797663803E+02  0.000000000E+00  0.00000E+00  9.000E+00
      21    -1     0     0   512   511  0.000000000E+00  0.000000000E+00 -3.775835336E+00  3.775835336E+00  0.000000000E+00  0.00000E+00  9.000E+00
      -1     1     1     2     0   513  5.164138985E+00 -1.201350471E+01  1.095471629E+02  1.103253481E+02  3.300000131E-01  0.00000E+00  9.000E+00
      21     1     1     2   512   514 -1.838696378E+00  8.232351387E+00  6.753891480E+01  6.806362777E+01  0.000000000E+00  0.00000E+00  9.000E+00
      21     1     1     2   513   511 -3.325442606E+00  3.781153324E+00 -1.095532687E+00  5.153239841E+00  1.731358474E-07  0.00000E+00  9.000E+00
</event>
<event>
      5  10001  2.40292E+09  8.41293E+00 -1.00000E+00  2.04789E-01
      21    -1     0     0   515   511  0.000000000E+00  0.000000000E+00  1.943940332E+01  1.943940332E+01  0.000000000E+00  0.00000E+00  9.000E+00
      21    -1     0     0   513   516  0.000000000E+00  0.000000000E+00 -2.585963966E+01  2.585963966E+01  0.000000000E+00  0.00000E+00  9.000E+00
      21     1     1     2   515   516  5.561770630E-01 -1.109805982E+01 -2.170207640E+01  2.438147627E+01  2.384185791E-07  0.00000E+00  9.000E+00
      21     1     1     2   512   511 -1.853241124E+00  2.352369660E+00  1.039035013E+01  1.081330299E+01  3.769728732E-07  0.00000E+00  9.000E+00
      21     1     1     2   513   512  1.297064061E+00  8.745690164E+00  4.891489931E+00  1.010426372E+01  2.980232239E-07  0.00000E+00  9.000E+00
</event>
<event>
      5  10001  2.40292E+09  1.11314E+01 -1.00000E+00  1.90470E-01
      21    -1     0     0   514   512  0.000000000E+00  0.000000000E+00  8.116810176E+01  8.116810176E+01  0.000000000E+00  0.00000E+00  9.000E+00
      21    -1     0     0   513   511  0.000000000E+00  0.000000000E+00 -1.447713574E+01  1.447713574E+01  0.000000000E+00  0.00000E+00  9.000E+00
      21     1     1     2   514   517  5.267986865E+00  1.006612794E+01  2.852093679E+01  3.070052854E+01  8.259061849E-07  0.00000E+00  9.000E+00
      21     1     1     2   513   512 -1.859310531E+00 -2.066278671E+01  4.658151451E+01  5.099260029E+01  6.743495762E-07  0.00000E+00  9.000E+00
      21     1     1     2   517   511 -3.408676334E+00  1.059665878E+01 -8.411485281E+00  1.395210867E+01  2.384185791E-07  0.00000E+00  9.000E+00
</event>
<event>
      5  10001  2.40292E+09  1.44056E+01 -1.00000E+00  1.79006E-01
      21    -1     0     0   515   511  0.000000000E+00  0.000000000E+00  1.828162424E+02  1.828162424E+02  0.000000000E+00  0.00000E+00  9.000E+00
      21    -1     0     0   517   516  0.000000000E+00  0.000000000E+00 -1.082084844E+00  1.082084844E+00  0.000000000E+00  0.00000E+00  9.000E+00
      21     1     1     2   515   516 -7.068272854E+00  3.017331700E+00  8.418254714E+01  8.453263284E+01  9.536743164E-07  0.00000E+00  9.000E+00
      21     1     1     2   517   512  1.106096428E+01 -1.398602926E+00  8.986540510E+01  9.055435966E+01  9.536743164E-07  0.00000E+00  9.000E+00
      21     1     1     2   512   511 -3.992691429E+00 -1.618728774E+00  7.686205323E+00  8.811334743E+00  1.685873940E-07  0.00000E+00  9.000E+00
</event>
<event>
      5  10001  2.40292E+09  1.50270E+01 -1.00000E+00  1.77263E-01
      21    -1     0     0   513   516  0.000000000E+00  0.000000000E+00  8.181871836E+00  8.181871836E+00  0.000000000E+00  0.00000E+00  9.000E+00
      21    -1     0     0   514   511  0.000000000E+00  0.000000000E+00 -5.615323132E+01  5.615323132E+01  0.000000000E+00  0.00000E+00  9.000E+00
      21     1     1     2   513   511  7.887765784E+00  8.258866437E+00 -6.399493459E-01  1.143832414E+01  3.711855026E-07  0.00000E+00  9.000E+00
      21     1     1     2   515   516 -1.421250200E+01 -8.321150707E+00 -2.722345396E+01  3.181749845E+01  3.371747881E-07  0.00000E+00  9.000E+00
      21     1     1     2   514   515  6.324736219E+00  6.228426983E-02 -2.010795618E+01  2.107928057E+01  2.384185791E-07  0.00000E+00  9.000E+00
</event>
<event>
      5  10001  2.40292E+09  1.12784E+01 -1.00000E+00  1.89850E-01
      -1    -1     0     0     0   512  0.000000000E+00  0.000000000E+00  4.053462842E+00  4.053462842E+00  0.000000000E+00  0.00000E+00  9.000E+00
      21    -1     0     0   512   513  0.000000000E+00  0.000000000E+00 -1.431953725E+02  1.431953725E+02  0.000000000E+00  0.00000E+00  9.000E+00
      -1     1     1     2     0   514  3.213197725E+00  1.045619098E+01 -4.519997520E+00  1.184043272E+01  3.300000131E-01  0.00000E+00  9.000E+00
      21     1     1     2   511   513  3.068480949E+00 -6.076033765E+00 -5.518710183E+01  5.560530523E+01  6.743495762E-07  0.00000E+00  9.000E+00
      21     1     1     2   514   511 -6.281678673E+00 -4.380157214E+00 -7.943481030E+01  7.980309738E+01  1.348699152E-06  0.00000E+00  9.000E+00
</event>
<event>
      5  10001  2.40292E+09  9.65815E+00 -1.00000E+00  1.97460E-01
      21    -1     0     0   515   511  0.000000000E+00  0.000000000E+00  3.614479666E+01  3.614479666E+01  0.000000000E+00  0.00000E+00  9.000E+00
      21    -1     0     0   512   515  0.000000000E+00  0.000000000E+00 -1.281880757E+02  1.281880757E+02  0.000000000E+00  0.00000E+00  9.000E+00
      21     1     1     2   512   516  1.101973407E+01 -4.332447217E+00 -1.262649305E+02  1.268189154E+02  0.000000000E+00  0.00000E+00  9.000E+00
      21     1     1     2   513   511 -2.484406607E+00 -1.513770767E+00  1.827680066E+01  1.850689656E+01  0.000000000E+00  0.00000E+00  9.000E+00
      21     1     1     2   516   513 -8.535327466E+00  5.846217985E+00  1.594485075E+01  1.900706040E+01  9.684608465E-07  0.00000E+00  9.000E+00
</event>
<event>
      5  10001  2.40292E+09  4.16008E+00 -1.00000E+00  2.59413E-01
      21    -1     0     0   514   513  0.000000000E+00  0.000000000E+00  9.769441345E+01  9.769441345E+01  0.000000000E+00  0.00000E+00  9.000E+00
      21    -1     0     0   517   514  0.000000000E+00  0.000000000E+00 -2.382366068E+00  2.382366068E+00  0.000000000E+00  0.00000E+00  9.000E+00
      21     1     1     2   517   512  4.054476591E+00  8.823735458E+00  9.910649179E+00  1.387508757E+01  2.665600750E-07  0.00000E+00  9.000E+00
      21     1     1     2   511   513 -1.182176818E+00 -5.366321704E+00  6.825808083E+01  6.847890587E+01  1.348699152E-06  0.00000E+00  9.000E+00
      21     1     1     2   512   511 -2.872299773E+00 -3.457413753E+00  1.714331737E+01  1.772278608E+01  0.000000000E+00  0.00000E+00  9.000E+00
</event>
<event>
      5  10001  2.40292E+09  9.93962E+00 -1.00000E+00  1.96003E-01
      21    -1     0     0   515   513  0.000000000E+00  0.000000000E+00  1.043680008E+01  1.043680008E+01  0.000000000E+00  0.00000E+00  9.000E+00
      21    -1     0     0   512   516  0.000000000E+00  0.000000000E+00 -1.672929583E+02  1.672929583E+02  0.000000000E+00  0.00000E+00  9.000E+00
      21     1     1     2   515   516  1.589421468E+00 -1.117375477E+01 -1.481055693E+02  1.485349747E+02  3.303624740E-06  0.00000E+00  9.000E+00
      21     1     1     2   512   511  8.090069114E+00  1.343285682E+01  3.977694451E-01  1.568595171E+01  4.062445724E-07  0.00000E+00  9.000E+00
      21     1     1     2   511   513 -9.679490581E+00 -2.259102044E+00 -9.148358372E+00  1.350883196E+01  3.371747881E-07  0.00000E+00  9.000E+00
</event>
<event>
      5  10001  2.40292E+09  8.34762E+00 -1.00000E+00  2.05220E-01
      21    -1     0     0   514   512  0.000000000E+00  0.000000000E+00  1.206769049E+02  1.206769049E+02  0.000000000E+00  0.00000E+00  9.000E+00
      21    -1     0     0   517   513  0.000000000E+00  0.000000000E+00 -1.029628660E+01  1.029628660E+01  0.000000000E+00  0.00000E+00  9.000E+00
      21     1     1     2   514   513  1.281898662E+01  1.381217746E+01  1.042783477E+02  1.059673367E+02  0.000000000E+00  0.00000E+00  9.000E+00
      21     1     1     2   515   512 -1.430339228E+01 -6.557461085E+00  5.394701322E-01  1.574415303E+01  6.082156787E-07  0.00000E+00  9.000E+00
      21     1     1     2   517   515  1.484405666E+00 -7.254716373E+00  5.562800537E+00  9.261701768E+00  1.976862425E-07  0.00000E+00  9.000E+00
</event>
<event>
      5  10001  2.40292E+09  4.95734E+00 -1.00000E+00  2.43193E-01
      21    -1     0     0   512   513  0.000000000E+00  0.000000000E+00  1.649995337E+02  1.649995337E+02  0.000000000E+00  0.00000E+00  9.000E+00
      21    -1     0     0   517   516  0.000000000E+00  0.000000000E+00 -7.831141265E+01  7.831141265E+01  0.000000000E+00  0.00000E+00  9.000E+00
      21     1     1     2   511   516 -4.453889233E+00  1.355885867E+01 -3.270878324E+00  1.464166735E+01  4.636153336E-07  0.00000E+00  9.000E+00
      21     1     1     2   517   513 -4.780540648E-01 -1.405998314E+01 -6.860260412E+01  7.003020030E+01  0.000000000E+00  0.00000E+00  9.000E+00
      21     1     1     2   512   511  4.931943298E+00  5.011244671E-01  1.585616035E+02  1.586390787E+02  0.000000000E+00  0.00000E+00  9.000E+00
</event>
<event>
      5  10001  2.40292E+09  3.93850E+01 -1.00000E+00  1.45227E-01
      21    -1     0     0   514   516  0.000000000E+00  0.000000000E+00  3.656097279E+01  3.656097279E+01  0.000000000E+00  0.00000E+00  9.000E+00
      21    -1     0     0   515   511  0.000000000E+00  0.000000000E+00 -1.490689745E+02  1.490689745E+02  0.000000000E+00  0.00000E+00  9.000E+00
      21     1     1     2   514   511 -3.403000634E+01 -6.820247544E+00  2.321057487E+01  4.175269924E+01  1.261592536E-06  0.00000E+00  9.000E+00
      21     1     1     2   515   513  2.635488212E+01 -3.992463328E+00 -4.584656449E+01  5.303232081E+01  0.000000000E+00  0.00000E+00  9.000E+00
      21     1     1     2   513   516  7.675124228E+00  1.081271087E+01 -8.987201207E+01  9.084492722E+01  1.907348633E-06  0.00000E+00  9.000E+00
</event>
<event>
      5  10001  2.40292E+09  2.41390E+01 -1.00000E+00  1.59861E-01
      21    -1     0     0   512   511  0.000000000E+00  0.000000000E+00  4.137681917E+02  4.137681917E+02  0.000000000E+00  0.00000E+00  9.000E+00
      21    -1     0     0   517   516  0.000000000E+00  0.000000000E+00 -4.767987377E-01  4.767987377E-01  0.000000000E+00  0.00000E+00  9.000E+00
      21     1     1     2   512   516  1.913874743E+00 -4.305566106E+00  5.875957537E+01  5.894818499E+01  6.743495762E-07  0.00000E+00  9.000E+00
      21     1     1     2   517   514  4.783267044E+00 -5.580187655E-01  3.078004175E+02  3.078380874E+02  5.394796609E-06  0.00000E+00  9.000E+00
      21     1     1     2   514   511 -6.697141788E+00  4.863584871E+00  4.673140005E+01  4.745871803E+01  9.536743164E-07  0.00000E+00  9.000E+00
</event>
<event>
      5  10001  2.40292E+09  6.57808E+00 -1.00000E+00  2.19368E-01
      21    -1     0     0   513   516  0.000000000E+00  0.000000000E+00  1.345710228E+01  1.345710228E+01  0.000000000E+00  0.00000E+00  9.000E+00
      21    -1     0     0   511   513  0.000000000E+00  0.000000000E+00 -1.047385062E+02  1.047385062E+02  0.000000000E+00  0.00000E+00  9.000E+00
      21     1     1     2   511   515 -9.843400980E+00 -2.309621881E+00 -9.927984851E+01  9.979336258E+01  0.000000000E+00  0.00000E+00  9.000E+00
      21     1     1     2   512   516  1.108096831E+01  5.999106659E+00  6.863116389E+00  1.434850187E+01  5.196212463E-07  0.00000E+00  9.000E+00
      21     1     1     2   515   512 -1.237567325E+00 -3.689484778E+00  1.135328168E+00  4.053744055E+00  1.512302692E-07  0.00000E+00  9.000E+00
</event>
<event>
      5  10001  2.40292E+09  2.23991E+01 -1.00000E+00  1.62370E-01
       4    -1     0     0   513     0  0.000000000E+00  0.000000000E+00  2.670914598E+01  2.670914598E+01  0.000000000E+00  0.00000E+00  9.000E+00
      21    -1     0     0   514   512  0.000000000E+00  0.000000000E+00 -5.135727179E+01  5.135727179E+01  0.000000000E+00  0.00000E+00  9.000E+00
      21     1     1     2   513   511  9.926651702E+00  4.625165031E+00 -2.946544960E+01  3.143474647E+01  0.000000000E+00  0.00000E+00  9.000E+00
       4     1     1     2   514     0  1.261643761E+00 -1.670895803E+01  1.865588465E+01  2.512116747E+01  1.500000000E+00  0.00000E+00  9.000E+00
      21     1     1     2   511   512 -1.118829546E+01  1.208379299E+01 -1.383856086E+01  2.151050384E+01  3.371747881E-07  0.00000E+00  9.000E+00
</event>
<event>
      5  10001  2.40292E+09  2.26866E+01 -1.00000E+00  1.61936E-01
      21    -1     0     0   515   514  0.000000000E+00  0.000000000E+00  4.801958597E+01  4.801958597E+01  0.000000000E+00  0.00000E+00  9.000E+00
      21    -1     0     0   516   515  0.000000000E+00  0.000000000E+00 -1.760689444E+02  1.760689444E+02  0.000000000E+00  0.00000E+00  9.000E+00
      21     1     1     2   512   514  1.236869728E+01  4.683719415E+00  4.239581054E+01  4.441088438E+01  9.536743164E-07  0.00000E+00  9.000E+00
      21     1     1     2   516   513  1.687136185E+00 -3.571237151E+00 -1.642154294E+02  1.642629216E+02  2.697398305E-06  0.00000E+00  9.000E+00
      21     1     1     2   513   512 -1.405583346E+01 -1.112482263E+00 -6.229739488E+00  1.541472430E+01  2.230201594E-07  0.00000E+00  9.000E+00
</event>
<event>
      5  10001  2.40292E+09  1.68781E+01 -1.00000E+00  1.72644E-01
      21    -1     0     0   511   516  0.000000000E+00  0.000000000E+00  5.346953813E+01  5.346953813E+01  0.000000000E+00  0.00000E+00  9.000E+00
      21    -1     0     0   515   512  0.000000000E+00  0.000000000E+00 -8.058021631E+01  8.058021631E+01  0.000000000E+00  0.00000E+00  9.000E+00
      21     1     1     2   511   512 -2.596010662E+00 -1.102180943E+01 -5.912723501E+01  6.020173980E+01  6.743495762E-07  0.00000E+00  9.000E+00
      21     1     1     2   514   516  1.810562299E+01  4.364200992E+00  4.745206154E+01  5.097605299E+01  1.348699152E-06  0.00000E+00  9.000E+00
      21     1     1     2   515   514 -1.550961232E+01  6.657608436E+00 -1.543550471E+01  2.287196166E+01  4.129530925E-07  0.00000E+00  9.000E+00
</event>
<event>
      5  10001  2.40292E+09  9.04884E+00 -1.00000E+00  2.00851E-01
      21    -1     0     0   513   512  0.000000000E+00  0.000000000E+00  1.411931616E+01  1.411931616E+01  0.000000000E+00  0.00000E+00  9.000E+00
      21    -1     0     0   515   513  0.000000000E+00  0.000000000E+00 -1.062684285E+02  1.062684285E+02  0.000000000E+00  0.00000E+00  9.000E+00
      21     1     1     2   515   517 -1.243234828E+01  1.004010280E+01 -9.634055537E+01  9.765689713E+01  1.348699152E-06  0.00000E+00  9.000E+00
      21     1     1     2   517   511  4.231108349E+00 -5.878040363E+00  9.627499222E+00  1.204750504E+01  8.172577143E-07  0.00000E+00  9.000E+00
      21     1     1     2   511   512  8.201239926E+00 -4.162062439E+00 -5.436056202E+00  1.068334251E+01  1.685873940E-07  0.00000E+00  9.000E+00
</event>
<event>
      5  10001  2.40292E+09  1.10423E+01 -1.00000E+00  1.90853E-01
      21    -1     0     0   514   513  0.000000000E+00  0.000000000E+00  4.048174338E+01  4.048174338E+01  0.000000000E+00  0.00000E+00  9.000E+00
      21    -1     0     0   515   512  0.000000000E+00  0.000000000E+00 -3.318523340E+01  3.318523340E+01  0.000000000E+00  0.00000E+00  9.000E+00
      21     1     1     2   514   512  1.306037660E+01 -9.870562048E+00 -1.392196288E+00  1.642984000E+01  4.031583446E-07  0.00000E+00  9.000E+00
      21     1     1     2   515   516 -1.428630814E+01  2.084455772E+01 -1.619423949E+01  3.001412300E+01  2.384185791E-07  0.00000E+00  9.000E+00
      21     1     1     2   516   513  1.225931543E+00 -1.097399567E+01  2.488294576E+01  2.722301377E+01  0.000000000E+00  0.00000E+00  9.000E+00
</event>
<event>
      5  10001  2.40292E+09  6.23344E+00 -1.00000E+00  2.22851E-01
      -3    -1     0     0     0   511  0.000000000E+00  0.000000000E+00  8.088364100E+00  8.088364100E+00  0.000000000E+00  0.00000E+00  9.000E+00
       2    -1     0     0   511     0  0.000000000E+00  0.000000000E+00 -7.214408606E+02  7.214408606E+02  0.000000000E+00  0.00000E+00  9.000E+00
      -3     1     1     2     0   514 -2.810899195E+00 -1.690694484E+01 -2.246930307E+00  1.729290704E+01  5.000000000E-01  0.00000E+00  9.000E+00
      21     1     1     2   514   513  4.793444664E-01  1.112608041E+01 -5.576951441E+01  5.687053872E+01  6.743495762E-07  0.00000E+00  9.000E+00
       2     1     1     2   513     0  2.331554729E+00  5.780864432E+00 -6.553360518E+02  6.553657789E+02  3.300000131E-01  0.00000E+00  9.000E+00
</event>
<event>
      5  10001  2.40292E+09  6.79979E+00 -1.00000E+00  2.17278E-01
       2    -1     0     0   514     0  0.000000000E+00  0.000000000E+00  1.543275864E+00  1.543275864E+00  0.000000000E+00  0.00000E+00  9.000E+00
      21    -1     0     0   512   513  0.000000000E+00  0.000000000E+00 -2.046830270E+02  2.046830270E+02  0.000000000E+00  0.00000E+00  9.000E+00
       2     1     1     2   514     0  1.029745399E+00  4.653925589E+00 -6.560017238E+01  6.577393796E+01  3.300000131E-01  0.00000E+00  9.000E+00
       2     1     1     2   512     0 -7.828968486E+00 -8.078132509E+00 -2.247066008E+01  2.513142330E+01  3.300000131E-01  0.00000E+00  9.000E+00
      -2     1     1     2     0   513  6.799223087E+00  3.424206920E+00 -1.150689187E+02  1.153209416E+02  3.300000131E-01  0.00000E+00  9.000E+00
</event>
<event>
      5  10001  2.40292E+09  5.46420E+00 -1.00000E+00  2.31889E-01
      21    -1     0     0   511   515  0.000000000E+00  0.000000000E+00  7.333049840E-01  7.333049840E-01  0.000000000E+00  0.00000E+00  9.000E+00
      21    -1     0     0   515   513  0.000000000E+00  0.000000000E+00 -5.784781814E+02  5.784781814E+02  0.000000000E+00  0.00000E+00  9.000E+00
      -3     1     1     2     0   512 -7.543609364E+00 -5.415672077E+00 -2.766823382E+02  2.768385844E+02  5.000000000E-01  0.00000E+00  9.000E+00
       3     1     1     2   511     0  1.086107622E+01  5.320045632E+00 -5.623910267E+01  5.752697221E+01  5.000000000E-01  0.00000E+00  9.000E+00
      21     1     1     2   512   513 -3.317466858E+00  9.562644567E-02 -2.448234356E+02  2.448459298E+02  3.814697266E-06  0.00000E+00  9.000E+00
</event>
<event>
      5  10001  2.40292E+09  1.95916E+01 -1.00000E+00  1.67070E-01
      21    -1     0     0   513   514  0.000000000E+00  0.000000000E+00  1.056839790E+02  1.056839790E+02  0.000000000E+00  0.00000E+00  9.000E+00
      -3    -1     0     0     0   513  0.000000000E+00  0.000000000E+00 -2.877193927E+00  2.877193927E+00  0.000000000E+00  0.00000E+00  9.000E+00
      21     1     1     2   511   515 -5.965842383E+00 -5.053754810E+00  4.672129833E+01  4.737099778E+01  0.000000000E+00  0.00000E+00  9.000E+00
      21     1     1     2   515   514  1.080784773E+01  4.932785974E+00  5.491071167E+01  5.618120865E+01  6.743495762E-07  0.00000E+00  9.000E+00
      -3     1     1     2     0   511 -4.842005344E+00  1.209688368E-01  1.174775120E+00  5.008966539E+00  5.000000000E-01  0.00000E+00  9.000E+00
</event>
<event>
      5  10001  2.40292E+09  9.30011E+00 -1.00000E+00  1.99411E-01
      21    -1     0     0   512   515  0.000000000E+00  0.000000000E+00  9.403002910E+00  9.403002910E+00  0.000000000E+00  0.00000E+00  9.000E+00
      21    -1     0     0   513   512  0.000000000E+00  0.000000000E+00 -1.030235463E+02  1.030235463E+02  0.000000000E+00  0.00000E+00  9.000E+00
      21     1     1     2   516   511 -1.151466736E+01 -1.014990243E+01 -4.796508209E+01  5.036126670E+01  9.536743164E-07  0.00000E+00  9.000E+00
      21     1     1     2   511   515  1.208840561E+01  8.675018911E-01  3.035703735E+00  1.249390279E+01  1.032382731E-07  0.00000E+00  9.000E+00
      21     1     1     2   513   516 -5.737382482E-01  9.282400534E+00 -4.869116508E+01  4.957137977E+01  0.000000000E+00  0.00000E+00  9.000E+00
</event>
<event>
      5  10001  2.40292E+09  7.42421E+00 -1.00000E+00  2.11936E-01
      21    -1     0     0   512   511  0.000000000E+00  0.000000000E+00  3.516925634E+02  3.516925634E+02  0.000000000E+00  0.00000E+00  9.000E+00
      21    -1     0     0   513   516  0.000000000E+00  0.000000000E+00 -1.801160210E+02  1.801160210E+02  0.000000000E+00  0.00000E+00  9.000E+00
      21     1     1     2   514   516  1.360313467E+01 -4.788515083E+00 -1.610016715E+02  1.616462600E+02  0.000000000E+00  0.00000E+00  9.000E+00
      21     1     1     2   513   511 -1.156234451E+01 -2.349694186E+00 -1.689677194E+01  2.060848795E+01  0.000000000E+00  0.00000E+00  9.000E+00
      21     1     1     2   512   514 -2.040790160E+00  7.138209269E+00  3.494749859E+02  3.495538365E+02  3.814697266E-06  0.00000E+00  9.000E+00
</event>
<event>
      5  10001  2.40292E+09  1.81279E+01 -1.00000E+00  1.69926E-01
       1    -1     0     0   513     0  0.000000000E+00  0.000000000E+00  6.674532944E+02  6.674532944E+02  0.000000000E+00  0.00000E+00  9.000E+00
      21    -1     0     0   512   515  0.000000000E+00  0.000000000E+00 -6.810522804E-01  6.810522804E-01  0.000000000E+00  0.00000E+00  9.000E+00
      21     1     1     2   513   515  1.218451914E+01 -9.145232892E+00  2.606129451E+02  2.610578574E+02  0.000000000E+00  0.00000E+00  9.000E+00
      21     1     1     2   512   511 -7.035952425E+00  1.081541581E+01  9.525243452E+01  9.612233937E+01  1.907348633E-06  0.00000E+00  9.000E+00
       1     1     1     2   511     0 -5.148566714E+00 -1.670182919E+00  3.109068625E+02  3.109541498E+02  3.300000131E-01  0.00000E+00  9.000E+00
</event>
<event>
      5  10001  2.40292E+09  6.25195E+00 -1.00000E+00  2.22656E-01
      21    -1     0     0   514   512  0.000000000E+00  0.000000000E+00  4.361199706E+00  4.361199706E+00  0.000000000E+00  0.00000E+00  9.000E+00
      21    -1     0     0   516   514  0.000000000E+00  0.000000000E+00 -1.024893404E+02  1.024893404E+02  0.000000000E+00  0.00000E+00  9.000E+00
      21     1     1     2   516   517 -1.246788669E+01 -6.311406357E+00 -8.771784026E+01  8.882399197E+01  1.348699152E-06  0.00000E+00  9.000E+00
      21     1     1     2   513   512  2.547222898E+00  2.530521730E+00 -7.402767079E-01  3.666046143E+00  1.809739739E-07  0.00000E+00  9.000E+00
      21     1     1     2   517   513  9.920663794E+00  3.780884626E+00 -9.670023721E+00  1.436050199E+01  3.576278687E-07  0.00000E+00  9.000E+00
</event>
<event>
      5  10001  2.40292E+09  5.80973E+00 -1.00000E+00  2.27587E-01
      21    -1     0     0   513   512  0.000000000E+00  0.000000000E+00  1.125449888E+00  1.125449888E+00  0.000000000E+00  0.00000E+00  9.000E+00
       2    -1     0     0   512     0  0.000000000E+00  0.000000000E+00 -5.957252066E+02  5.957252066E+02  0.000000000E+00  0.00000E+00  9.000E+00
      21     1     1     2   513   511  4.911745981E+00  1.646482318E+01 -8.018660986E+01  8.200675613E+01  1.348699152E-06  0.00000E+00  9.000E+00
       2     1     1     2   514     0 -1.420297438E-01 -1.514854380E+01 -4.432573277E+02  4.435162522E+02  3.300000131E-01  0.00000E+00  9.000E+00
      21     1     1     2   511   514 -4.769716237E+00 -1.316279384E+00 -7.115581922E+01  7.132764817E+01  1.907348633E-06  0.00000E+00  9.000E+00
</event>
<event>
      5  10001  2.40292E+09  1.66754E+01 -1.00000E+00  1.73113E-01
      21    -1     0     0   515   512  0.000000000E+00  0.000000000E+00  9.959259873E+00  9.959259873E+00  0.000000000E+00  0.00000E+00  9.000E+00
      21    -1     0     0   511   516  0.000000000E+00  0.000000000E+00 -4.067310809E+01  4.067310809E+01  0.000000000E+00  0.00000E+00  9.000E+00
      21     1     1     2   515   516 -3.852617562E+00 -1.248292298E+01 -2.200600922E+00  1.324796862E+01  2.842960362E-07  0.00000E+00  9.000E+00
      21     1     1     2   513   512 -6.795891103E-02  5.837876125E+00 -2.906853403E+01  2.964903180E+01  6.743495762E-07  0.00000E+00  9.000E+00
      21     1     1     2   511   513  3.920576473E+00  6.645046856E+00  5.552867345E-01  7.735367539E+00  1.248944895E-07  0.00000E+00  9.000E+00
</event>
<event>
      5  10001  2.40292E+09  1.06255E+01 -1.00000E+00  1.92703E-01
      21    -1     0     0   514   512  0.000000000E+00  0.000000000E+00  1.110743682E+01  1.110743682E+01  0.000000000E+00  0.00000E+00  9.000E+00
      21    -1     0     0   511   514  0.000000000E+00  0.000000000E+00 -2.162466401E+01  2.162466401E+01  0.000000000E+00  0.00000E+00  9.000E+00
      21     1     1     2   513   512 -1.075876083E+01  3.522192755E+00 -7.673597926E+00  1.367628903E+01  8.429369702E-08  0.00000E+00  9.000E+00
      21     1     1     2   515   513  7.735342131E+00 -8.940143373E+00  8.199102419E-01  1.185048245E+01  1.843171846E-07  0.00000E+00  9.000E+00
      21     1     1     2   511   515  3.023418700E+00  5.417950618E+00 -3.663539505E+00  7.205329364E+00  1.837138534E-07  0.00000E+00  9.000E+00
</event>
<event>
      5  10001  2.40292E+09  3.73733E+00 -1.00000E+00  2.70506E-01
      21    -1     0     0   516   513  0.000000000E+00  0.000000000E+00  2.779953067E+01  2.779953067E+01  0.000000000E+00  0.00000E+00  9.000E+00
      21    -1     0     0   512   516  0.000000000E+00  0.000000000E+00 -4.861363326E+01  4.861363326E+01  0.000000000E+00  0.00000E+00  9.000E+00
      21     1     1     2   515   513 -3.685819729E-01  1.179915524E+01  2.463228887E+01  2.731493313E+01  4.768371582E-07  0.00000E+00  9.000E+00
      21     1     1     2   511   515 -2.137272898E+00 -1.457193358E+01 -3.828857561E+01  4.102345921E+01  0.000000000E+00  0.00000E+00  9.000E+00
      21     1     1     2   512   511  2.505854871E+00  2.772778339E+00 -7.157815855E+00  8.074771586E+00  1.192092896E-07  0.00000E+00  9.000E+00
</event>
<event>
      5  10001  2.40292E+09  2.28835E+01 -1.00000E+00  1.61644E-01
      21    -1     0     0   511   512  0.000000000E+00  0.000000000E+00  1.196986120E+01  1.196986120E+01  0.000000000E+00  0.00000E+00  9.000E+00
      21    -1     0     0   514   511  0.000000000E+00  0.000000000E+00 -6.333796660E+01  6.333796660E+01  0.000000000E+00  0.00000E+00  9.000E+00
      -5     1     1     2     0   513 -6.353961577E+00  2.757872782E+00 -5.562751230E+00  1.009766771E+01  4.800000191E+00  0.00000E+00  9.000E+00
       5     1     1     2   514     0  8.119136953E+00 -1.012955598E+01 -5.298904164E+01  5.476684056E+01  4.800000191E+00  0.00000E+00  9.000E+00
      21     1     1     2   513   512 -1.765175375E+00  7.371683197E+00  7.183687471E+00  1.044331954E+01  2.665600750E-07  0.00000E+00  9.000E+00
</event>
<event>
      5  10001  2.40292E+09  1.99032E+01 -1.00000E+00  1.66501E-01
       2    -1     0     0   511     0  0.000000000E+00  0.000000000E+00  9.864447191E-01  9.864447191E-01  0.000000000E+00  0.00000E+00  9.000E+00
      21    -1     0     0   513   511  0.000000000E+00  0.000000000E+00 -1.224168566E+02  1.224168566E+02  0.000000000E+00  0.00000E+00  9.000E+00
      21     1     1     2   513   515 -5.295247372E+00  1.057873127E+00 -2.284169229E+01  2.347129411E+01  4.768371582E-07  0.00000E+00  9.000E+00
       2     1     1     2   514     0 -3.669811590E+00 -4.374958128E+00 -2.130856210E+01  2.206289860E+01  3.300000131E-01  0.00000E+00  9.000E+00
      21     1     1     2   515   514  8.965058962E+00  3.317085000E+00 -7.728015753E+01  7.786910865E+01  1.348699152E-06  0.00000E+00  9.000E+00
</event>
<event>
      5  10001  2.40292E+09  1.64345E+01 -1.00000E+00  1.73681E-01
      -4    -1     0     0     0   512  0.000000000E+00  0.000000000E+00  1.211233670E+02  1.211233670E+02  0.000000000E+00  0.00000E+00  9.000E+00
      21    -1     0     0   516   511  0.000000000E+00  0.000000000E+00 -8.400732226E+00  8.400732226E+00  0.000000000E+00  0.00000E+00  9.000E+00
      -4     1     1     2     0   511  9.528579522E+00 -5.347879295E+00  9.649077596E+01  9.711906861E+01  1.500000000E+00  0.00000E+00  9.000E+00
      21     1     1     2   516   513 -1.277294490E+01  1.377262667E+01  8.953492626E+00  2.080861353E+01  4.616955931E-07  0.00000E+00  9.000E+00
      21     1     1     2   513   512  3.244365376E+00 -8.424747379E+00  7.278366194E+00  1.159641710E+01  3.153981341E-07  0.00000E+00  9.000E+00
</event>
<event>
      5  10001  2.40292E+09  5.14210E+00 -1.00000E+00  2.36323E-01
      21    -1     0     0   514   513  0.000000000E+00  0.000000000E+00  8.315413147E+01  8.315413147E+01  0.000000000E+00  0.00000E+00  9.000E+00
      21    -1     0     0   512   514  0.000000000E+00  0.000000000E+00 -4.430677052E+00  4.430677052E+00  0.000000000E+00  0.00000E+00  9.000E+00
      21     1     1     2   515   513  9.606940418E+00 -2.930775031E-01  6.836857302E+01  6.904086453E+01  1.348699152E-06  0.00000E+00  9.000E+00
      21     1     1     2   512   511 -1.017081821E+01  3.501197260E+00  4.137303392E+00  1.152480823E+01  4.339283639E-07  0.00000E+00  9.000E+00
      21     1     1     2   511   515  5.638777958E-01 -3.208119757E+00  6.217578006E+00  7.019135759E+00  8.429369702E-08  0.00000E+00  9.000E+00
</event>
<event>
      5  10001  2.40292E+09  6.91673E+00 -1.00000E+00  2.16219E-01
      21    -1     0     0   516   511  0.000000000E+00  0.000000000E+00  3.609210635E+00  3.609210635E+00  0.000000000E+00  0.00000E+00  9.000E+00
      21    -1     0     0   517   516  0.000000000E+00  0.000000000E+00 -9.279738365E+01  9.279738365E+01  0.000000000E+00  0.00000E+00  9.000E+00
      21     1     1     2   512   511  1.555549367E+01 -4.410198516E+00 -2.508126424E+01  2.984113018E+01  5.840038640E-07  0.00000E+00  9.000E+00
      21     1     1     2   517   513 -7.168712483E+00  3.170333048E+00 -4.477983573E+01  4.546069883E+01  4.768371582E-07  0.00000E+00  9.000E+00
      21     1     1     2   513   512 -8.386781185E+00  1.239865468E+00 -1.932707304E+01  2.110476528E+01  2.384185791E-07  0.00000E+00  9.000E+00
</event>
<event>
      5  10001  2.40292E+09  3.55682E+00 -1.00000E+00  2.75976E-01
      21    -1     0     0   514   515  0.000000000E+00  0.000000000E+00  5.158355583E+00  5.158355583E+00  0.000000000E+00  0.00000E+00  9.000E+00
      21    -1     0     0   516   512  0.000000000E+00  0.000000000E+00 -6.018352684E+02  6.018352684E+02  0.000000000E+00  0.00000E+00  9.000E+00
      21     1     1     2   514   512  2.119814024E+00 -1.143390886E+01 -4.156732579E+02  4.158358874E+02  5.394796609E-06  0.00000E+00  9.000E+00
      21     1     1     2   511   515 -3.916357716E+00  8.364152305E+00  8.450853268E-01  9.274215372E+00  6.647320993E-07  0.00000E+00  9.000E+00
      21     1     1     2   516   511  1.796543692E+00  3.069756559E+00 -1.818487402E+02  1.818835212E+02  3.814697266E-06  0.00000E+00  9.000E+00
</event>
<event>
      5  10001  2.40292E+09  8.65497E+00 -1.00000E+00  2.03237E-01
      21    -1     0     0   513   511  0.000000000E+00  0.000000000E+00  7.952106198E+01  7.952106198E+01  0.000000000E+00  0.00000E+00  9.000E+00
      21    -1     0     0   512   517  0.000000000E+00  0.000000000E+00 -7.945784289E+02  7.945784289E+02  0.000000000E+00  0.00000E+00  9.000E+00
      21     1     1     2   513   517  1.309081682E+01  1.069924112E+01  7.498964163E+01  7.687190383E+01  0.000000000E+00  0.00000E+00  9.000E+00
      21     1     1     2   516   511 -9.735749369E+00 -2.721023006E+00 -3.596666675E+00  1.072962223E+01  2.149076030E-07  0.00000E+00  9.000E+00
      21     1     1     2   512   516 -3.355067452E+00 -7.978218109E+00 -7.864503419E+02  7.864979648E+02  0.000000000E+00  0.00000E+00  9.000E+00
</event>
<event>
      5  10001  2.40292E+09  9.08991E+00 -1.00000E+00  2.00611E-01
       2    -1     0     0   514     0  0.000000000E+00  0.000000000E+00  4.845995421E+02  4.845995421E+02  0.000000000E+00  0.00000E+00  9.000E+00
      21    -1     0     0   512   514  0.000000000E+00  0.000000000E+00 -2.001037780E+00  2.001037780E+00  0.000000000E+00  0.00000E+00  9.000E+00
      21     1     1     2   515   511 -1.175202130E+01 -1.103533727E+01  2.252906798E+02  2.258667285E+02  4.672030912E-06  0.00000E+00  9.000E+00
      21     1     1     2   512   515  2.706925056E+00  1.193194680E+01  2.139985516E+01  2.465061051E+01  7.539457465E-07  0.00000E+00  9.000E+00
       2     1     1     2   511     0  9.045096241E+00 -8.966095373E-01  2.359079694E+02  2.360832409E+02  3.300000131E-01  0.00000E+00  9.000E+00
</event>
<event>
      5  10001  2.40292E+09  8.49137E+00 -1.00000E+00  2.04279E-01
      21    -1     0     0   515   512  0.000000000E+00  0.000000000E+00  1.125511003E+01  1.125511003E+01  0.000000000E+00  0.00000E+00  9.000E+00
      21    -1     0     0   513   515  0.000000000E+00  0.000000000E+00 -2.114423223E+01  2.114423223E+01  0.000000000E+00  0.00000E+00  9.000E+00
      -5     1     1     2     0   512 -8.577606990E+00 -5.241749810E+00  2.302780831E+00  1.137515205E+01  4.800000191E+00  0.00000E+00  9.000E+00
      21     1     1     2   513   514  3.966865238E+00  6.971824222E+00 -1.162512673E+01  1.412394861E+01  1.685873940E-07  0.00000E+00  9.000E+00
       5     1     1     2   514     0  4.610741752E+00 -1.730074412E+00 -5.667763010E-01  6.900241603E+00  4.800000191E+00  0.00000E+00  9.000E+00
</event>
<event>
      5  10001  2.40292E+09  5.42607E+00 -1.00000E+00  2.32391E-01
       2    -1     0     0   513     0  0.000000000E+00  0.000000000E+00  9.002797215E+02  9.002797215E+02  0.000000000E+00  0.00000E+00  9.000E+00
      21    -1     0     0   511   514  0.000000000E+00  0.000000000E+00 -6.837995652E-01  6.837995652E-01  0.000000000E+00  0.00000E+00  9.000E+00
      21     1     1     2   512   514  5.206709143E+00  1.356781837E+00  1.377297069E+01  1.478666287E+01  1.066240300E-06  0.00000E+00  9.000E+00
       2     1     1     2   511     0 -7.516672788E+00 -6.528393683E+00  8.314536372E+02  8.315133072E+02  3.300000131E-01  0.00000E+00  9.000E+00
      21     1     1     2   513   512  2.309963644E+00  5.171611845E+00  5.436931402E+01  5.466355100E+01  1.507891493E-06  0.00000E+00  9.000E+00
</event>
<event>
      5  10001  2.40292E+09  5.87712E+00 -1.00000E+00  2.26797E-01
      21    -1     0     0   514   512  0.000000000E+00  0.000000000E+00  2.106917144E+02  2.106917144E+02  0.000000000E+00  0.00000E+00  9.000E+00
      21    -1     0     0   516   515  0.000000000E+00  0.000000000E+00 -1.308902874E+01  1.308902874E+01  0.000000000E+00  0.00000E+00  9.000E+00
      21     1     1     2   511   512  1.205576345E+01  4.567555126E+00  2.120473588E+01  2.481622082E+01  3.371747881E-07  0.00000E+00  9.000E+00
      21     1     1     2   516   511 -1.705019495E+01 -1.469785397E+00 -4.719083899E+00  1.775215958E+01  5.092623082E-07  0.00000E+00  9.000E+00
      21     1     1     2   514   515  4.994431502E+00 -3.097769730E+00  1.811170337E+02  1.812123627E+02  0.000000000E+00  0.00000E+00  9.000E+00
</event>
<event>
      5  10001  2.40292E+09  6.44837E+00 -1.00000E+00  2.20643E-01
      21    -1     0     0   513   511  0.000000000E+00  0.000000000E+00  3.993253058E+02  3.993253058E+02  0.000000000E+00  0.00000E+00  9.000E+00
      21    -1     0     0   512   517  0.000000000E+00  0.000000000E+00 -3.848284335E+00  3.848284335E+00  0.000000000E+00  0.00000E+00  9.000E+00
      21     1     1     2   513   517  1.189479987E+01  4.560890769E+00  1.072083449E+01  1.665005347E+01  6.529361695E-07  0.00000E+00  9.000E+00
      21     1     1     2   512   515 -1.473561419E+01  1.228004292E+00  6.335563349E+01  6.505830166E+01  6.743495762E-07  0.00000E+00  9.000E+00
      21     1     1     2   515   511  2.840814324E+00 -5.788895060E+00  3.214005535E+02  3.214652350E+02  0.000000000E+00  0.00000E+00  9.000E+00
</event>
<event>
      5  10001  2.40292E+09  1.31520E+01 -1.00000E+00  1.82887E-01
      21    -1     0     0   513   512  0.000000000E+00  0.000000000E+00  1.884747866E+01  1.884747866E+01  0.000000000E+00  0.00000E+00  9.000E+00
      21    -1     0     0   516   511  0.000000000E+00  0.000000000E+00 -1.022025202E+02  1.022025202E+02  0.000000000E+00  0.00000E+00  9.000E+00
      21     1     1     2   514   511 -1.804543965E+01 -1.551052403E+01 -7.028687449E+01  7.420551848E+01  1.348699152E-06  0.00000E+00  9.000E+00
      21     1     1     2   516   512  1.940920444E+01  2.429404601E+00 -2.312477179E+01  3.028818737E+01  3.371747881E-07  0.00000E+00  9.000E+00
      21     1     1     2   513   514 -1.363764790E+00  1.308111943E+01  1.005660473E+01  1.655629302E+01  2.384185791E-07  0.00000E+00  9.000E+00
</event>
<event>
      5  10001  2.40292E+09  1.68217E+01 -1.00000E+00  1.72774E-01
      21    -1     0     0   515   512  0.000000000E+00  0.000000000E+00  4.711791076E+01  4.711791076E+01  0.000000000E+00  0.00000E+00  9.000E+00
      -1    -1     0     0     0   514  0.000000000E+00  0.000000000E+00 -1.904083124E+01  1.904083124E+01  0.000000000E+00  0.00000E+00  9.000E+00
      -1     1     1     2     0   511  1.038171620E+01 -5.911129886E+00 -1.201733614E+01  1.694835554E+01  3.300000131E-01  0.00000E+00  9.000E+00
      21     1     1     2   515   514 -1.700702261E+01  1.089795067E+01  2.720310187E+01  3.388233903E+01  3.371747881E-07  0.00000E+00  9.000E+00
      21     1     1     2   511   512  6.625306412E+00 -4.986820784E+00  1.289131379E+01  1.532804742E+01  1.685873940E-07  0.00000E+00  9.000E+00
</event>
<event>
      5  10001  2.40292E+09  5.77509E+00 -1.00000E+00  2.28000E-01
      21    -1     0     0   513   514  0.000000000E+00  0.000000000E+00  2.721561907E+01  2.721561907E+01  0.000000000E+00  0.00000E+00  9.000E+00
      21    -1     0     0   512   513  0.000000000E+00  0.000000000E+00 -8.388816628E+01  8.388816628E+01  0.000000000E+00  0.00000E+00  9.000E+00
      21     1     1     2   516   514 -2.356824436E-01 -1.073096797E+01  2.461732970E+01  2.685557933E+01  3.371747881E-07  0.00000E+00  9.000E+00
      21     1     1     2   515   516 -1.023763279E+00  6.908571596E+00 -7.956280232E+01  7.986874211E+01  9.536743164E-07  0.00000E+00  9.000E+00
      21     1     1     2   512   515  1.259445723E+00  3.822396370E+00 -1.727074579E+00  4.379463910E+00  2.107342426E-08  0.00000E+00  9.000E+00
</event>
<event>
      5  10001  2.40292E+09  5.15728E+00 -1.00000E+00  2.36103E-01
      -2    -1     0     0     0   516  0.000000000E+00  0.000000000E+00  8.553910805E+02  8.553910805E+02  0.000000000E+00  0.00000E+00  9.000E+00
      21    -1     0     0   512   511  0.000000000E+00  0.000000000E+00 -1.463046240E+01  1.463046240E+01  0.000000000E+00  0.00000E+00  9.000E+00
      21     1     1     2   515   516 -3.999401197E+00 -1.481996679E+01  1.712434459E+02  1.719300567E+02  2.697398305E-06  0.00000E+00  9.000E+00
      21     1     1     2   512   515  9.058785463E+00  1.581995915E+01 -8.458063358E+00  2.009655536E+01  7.444617746E-07  0.00000E+00  9.000E+00
      -2     1     1     2     0   511 -5.059384266E+00 -9.999923630E-01  6.779752356E+02  6.779949309E+02  3.300000131E-01  0.00000E+00  9.000E+00
</event>
<event>
      5  10001  2.40292E+09  6.22466E+00 -1.00000E+00  2.22944E-01
      21    -1     0     0   513   511  0.000000000E+00  0.000000000E+00  7.434627018E+01  7.434627018E+01  0.000000000E+00  0.00000E+00  9.000E+00
      21    -1     0     0   516   514  0.000000000E+00  0.000000000E+00 -1.247156747E+01  1.247156747E+01  0.000000000E+00  0.00000E+00  9.000E+00
      21     1     1     2   513   514 -8.074195399E+00 -1.224030006E+01  6.486822833E+01  6.650492180E+01  0.000000000E+00  0.00000E+00  9.000E+00
      21     1     1     2   512   511  2.821462011E+00  1.115697554E+01 -7.131632694E+00  1.353879374E+01  4.042583694E-07  0.00000E+00  9.000E+00
      21     1     1     2   516   512  5.252733389E+00  1.083324513E+00  4.138107072E+00  6.774122098E+00  1.685873940E-07  0.00000E+00  9.000E+00
</event>
<event>
      5  10001  2.40292E+09  7.90827E+00 -1.00000E+00  2.08261E-01
       3    -1     0     0   514     0  0.000000000E+00  0.000000000E+00  1.465305399E+01  1.465305399E+01  0.000000000E+00  0.00000E+00  9.000E+00
      21    -1     0     0   515   512  0.000000000E+00  0.000000000E+00 -2.127533115E+01  2.127533115E+01  0.000000000E+00  0.00000E+00  9.000E+00
      21     1     1     2   514   512 -1.480139356E+01  2.841736690E-01 -9.032535508E+00  1.734210782E+01  1.685873940E-07  0.00000E+00  9.000E+00
       3     1     1     2   511     0  9.580603969E+00 -4.130753862E+00  5.028888555E+00  1.159270546E+01  5.000000000E-01  0.00000E+00  9.000E+00
      21     1     1     2   515   511  5.220789592E+00  3.846580193E+00 -2.618630212E+00  6.993571858E+00  1.365713982E-07  0.00000E+00  9.000E+00
</event>
<event>
      5  10001  2.40292E+09  5.08633E+00 -1.00000E+00  2.37137E-01
      21    -1     0     0   513   511  0.000000000E+00  0.000000000E+00  8.026534576E+00  8.026534576E+00  0.000000000E+00  0.00000E+00  9.000E+00
      21    -1     0     0   511   514  0.000000000E+00  0.000000000E+00 -3.981527816E+01  3.981527816E+01  0.000000000E+00  0.00000E+00  9.000E+00
      21     1     1     2   512   514 -8.765258328E+00 -1.682276929E+00 -3.361773018E+01  3.478234598E+01  0.000000000E+00  0.00000E+00  9.000E+00
       1     1     1     2   513     0  9.901549476E+00  3.694327670E+00  1.797055627E+00  1.072506634E+01  3.300000131E-01  0.00000E+00  9.000E+00
      -1     1     1     2     0   512 -1.136291148E+00 -2.012050740E+00  3.193096694E-02  2.334400426E+00  3.300000131E-01  0.00000E+00  9.000E+00
</event>
<event>
      5  10001  2.40292E+09  1.05309E+01 -1.00000E+00  1.93139E-01
      21    -1     0     0   515   514  0.000000000E+00  0.000000000E+00  8.168727877E+01  8.168727877E+01  0.000000000E+00  0.00000E+00  9.000E+00
      21    -1     0     0   513   512  0.000000000E+00  0.000000000E+00 -1.066921992E+01  1.066921992E+01  0.000000000E+00  0.00000E+00  9.000E+00
      21     1     1     2   515   512 -1.720981718E+01  3.214515397E+00  6.718641248E+01  6.943000028E+01  1.348699152E-06  0.00000E+00  9.000E+00
      21     1     1     2   511   514  7.447213728E+00 -7.163197227E+00 -2.509971353E+00  1.063354800E+01  3.305237444E-07  0.00000E+00  9.000E+00
      21     1     1     2   513   511  9.762603454E+00  3.948681829E+00  6.341617730E+00  1.229295041E+01  1.884864366E-07  0.00000E+00  9.000E+00
</event>
<event>
      5  10001  2.40292E+09  5.45556E+00 -1.00000E+00  2.32002E-01
      21    -1     0     0   516   514  0.000000000E+00  0.000000000E+00  1.086776058E+01  1.086776058E+01  0.000000000E+00  0.00000E+00  9.000E+00
      21    -1     0     0   513   516  0.000000000E+00  0.000000000E+00 -1.235089896E+01  1.235089896E+01  0.000000000E+00  0.00000E+00  9.000E+00
      21     1     1     2   511   514 -3.673756986E+00  8.115722247E+00 -4.552181711E+00  1.000418894E+01  0.000000000E+00  0.00000E+00  9.000E+00
      21     1     1     2   513   512  6.530885719E+00 -6.201200770E+00  3.666463874E+00  9.723698711E+00  2.190014490E-07  0.00000E+00  9.000E+00
      21     1     1     2   512   511 -2.857128733E+00 -1.914521476E+00 -5.974205403E-01  3.490771889E+00  9.856191691E-08  0.00000E+00  9.000E+00
</event>
<event>
      5  10001  2.40292E+09  7.59094E+00 -1.00000E+00  2.10628E-01
      21    -1     0     0   515   513  0.000000000E+00  0.000000000E+00  6.387557073E+00  6.387557073E+00  0.000000000E+00  0.00000E+00  9.000E+00
      21    -1     0     0   517   515  0.000000000E+00  0.000000000E+00 -1.826951025E+01  1.826951025E+01  0.000000000E+00  0.00000E+00  9.000E+00
      21     1     1     2   517   511  1.369008549E+00  9.325071918E+00 -3.112852973E+00  9.925774746E+00  1.192092896E-07  0.00000E+00  9.000E+00
      21     1     1     2   514   513 -3.693183833E+00 -4.162147207E+00 -2.015291157E+00  5.918147907E+00  1.154238983E-07  0.00000E+00  9.000E+00
      21     1     1     2   511   514  2.324175284E+00 -5.162924711E+00 -6.753809048E+00  8.813144670E+00  0.000000000E+00  0.00000E+00  9.000E+00
</event>
<event>
      5  10001  2.40292E+09  4.32922E+00 -1.00000E+00  2.55529E-01
      21    -1     0     0   515   513  0.000000000E+00  0.000000000E+00  2.036684639E+03  2.036684639E+03  0.000000000E+00  0.00000E+00  9.000E+00
      21    -1     0     0   516   512  0.000000000E+00  0.000000000E+00 -8.451225682E+00  8.451225682E+00  0.000000000E+00  0.00000E+00  9.000E+00
      21     1     1     2   514   513  7.294749069E+00 -1.332505127E+01  7.244417585E+01  7.401978769E+01  1.651812370E-06  0.00000E+00  9.000E+00
      21     1     1     2   516   514 -1.149966145E+01  1.229506789E+01  1.587447130E+00  1.690949131E+01  5.813362957E-07  0.00000E+00  9.000E+00
      21     1     1     2   515   512  4.204912386E+00  1.029983379E+00  1.954201790E+03  1.954206585E+03  0.000000000E+00  0.00000E+00  9.000E+00
</event>
<event>
      5  10001  2.40292E+09  1.27788E+01 -1.00000E+00  1.84150E-01
      21    -1     0     0   511   512  0.000000000E+00  0.000000000E+00  2.186972449E+01  2.186972449E+01  0.000000000E+00  0.00000E+00  9.000E+00
      21    -1     0     0   513   517  0.000000000E+00  0.000000000E+00 -5.689951654E+00  5.689951654E+00  0.000000000E+00  0.00000E+00  9.000E+00
      21     1     1     2   511   517  5.065712786E+00 -2.708287136E+00  7.539376451E+00  9.478315384E+00  8.429369702E-08  0.00000E+00  9.000E+00
      21     1     1     2   513   514 -7.437525456E+00  3.774796821E+00  1.150639099E+01  1.421136551E+01  2.920019320E-07  0.00000E+00  9.000E+00
      21     1     1     2   514   512  2.371812670E+00 -1.066509684E+00 -2.865994601E+00  3.869995258E+00  1.884864366E-07  0.00000E+00  9.000E+00
</event>
<event>
      5  10001  2.40292E+09  3.25698E+00 -1.00000E+00  2.86312E-01
       2    -1     0     0   513     0  0.000000000E+00  0.000000000E+00  3.895210888E+01  3.895210888E+01  0.000000000E+00  0.00000E+00  9.000E+00
      21    -1     0     0   514   515  0.000000000E+00  0.000000000E+00 -5.023738797E+00  5.023738797E+00  0.000000000E+00  0.00000E+00  9.000E+00
      21     1     1     2   513   515  1.056839984E+01  7.622280612E+00  1.219627707E+01  1.784767243E+01  2.384185791E-07  0.00000E+00  9.000E+00
       2     1     1     2   511     0 -7.757035801E+00 -7.904783064E+00  1.985067816E+01  2.273357700E+01  3.300000131E-01  0.00000E+00  9.000E+00
      21     1     1     2   514   511 -2.811364040E+00  2.825024512E-01  1.881414853E+00  3.394598246E+00  9.185692672E-08  0.00000E+00  9.000E+00
</event>
<event>
      5  10001  2.40292E+09  3.24888E+00 -1.00000E+00  2.86616E-01
      21    -1     0     0   512   516  0.000000000E+00  0.000000000E+00  9.037421195E+02  9.037421195E+02  0.000000000E+00  0.00000E+00  9.000E+00
      21    -1     0     0   514   512  0.000000000E+00  0.000000000E+00 -2.376600436E-01  2.376600436E-01  0.000000000E+00  0.00000E+00  9.000E+00
      21     1     1     2   511   516  3.135286862E+00 -1.187208381E+01  2.210775695E+02  2.214183103E+02  2.697398305E-06  0.00000E+00  9.000E+00
      21     1     1     2   514   513 -7.549365019E-01  9.052129071E+00  5.738436770E+02  5.739155657E+02  1.078959322E-05  0.00000E+00  9.000E+00
      21     1     1     2   513   511 -2.380350360E+00  2.819954741E+00  1.085832130E+02  1.086459035E+02  1.348699152E-06  0.00000E+00  9.000E+00
</event>
<event>
      5  10001  2.40292E+09  6.43178E+00 -1.00000E+00  2.20810E-01
      21    -1     0     0   514   511  0.000000000E+00  0.000000000E+00  1.162008052E+02  1.162008052E+02  0.000000000E+00  0.00000E+00  9.000E+00
       2    -1     0     0   511     0  0.000000000E+00  0.000000000E+00 -3.153441301E+00  3.153441301E+00  0.000000000E+00  0.00000E+00  9.000E+00
      21     1     1     2   514   513 -4.385828711E-01 -1.078816967E+01  1.051439205E+02  1.056968352E+02  1.348699152E-06  0.00000E+00  9.000E+00
      21     1     1     2   513   512  9.286723952E-01  1.196390301E+00  8.500373462E-01  1.736762983E+00  5.771194914E-08  0.00000E+00  9.000E+00
       2     1     1     2   512     0 -4.900895240E-01  9.591779366E+00  7.053406107E+00  1.192064834E+01  3.300000131E-01  0.00000E+00  9.000E+00
</event>
<event>
      5  10001  2.40292E+09  1.79013E+01 -1.00000E+00  1.70398E-01
       2    -1     0     0   514     0  0.000000000E+00  0.000000000E+00  1.416328938E+03  1.416328938E+03  0.000000000E+00  0.00000E+00  9.000E+00
      21    -1     0     0   513   514  0.000000000E+00  0.000000000E+00 -2.855625902E+00  2.855625902E+00  0.000000000E+00  0.00000E+00  9.000E+00
      21     1     1     2   513   511  3.885517762E+00  7.685814589E+00  4.620855365E+00  9.773499807E+00  9.424321831E-07  0.00000E+00  9.000E+00
       2     1     1     2   512     0 -1.435525129E+01 -1.275009437E+01  1.244280283E+03  1.244428451E+03  3.300000131E-01  0.00000E+00  9.000E+00
      21     1     1     2   511   512  1.046973353E+01  5.064279786E+00  1.645721739E+02  1.649826132E+02  0.000000000E+00  0.00000E+00  9.000E+00
</event>
<event>
      5  10001  2.40292E+09  4.89169E+00 -1.00000E+00  2.44351E-01
      21    -1     0     0   515   513  0.000000000E+00  0.000000000E+00  3.210172511E+01  3.210172511E+01  0.000000000E+00  0.00000E+00  9.000E+00
      21    -1     0     0   511   516  0.000000000E+00  0.000000000E+00 -1.392233373E+01  1.392233373E+01  0.000000000E+00  0.00000E+00  9.000E+00
      21     1     1     2   515   516  1.291801780E+01 -5.226314658E+00 -4.220395393E+00  1.456026394E+01  2.858538343E-07  0.00000E+00  9.000E+00
      21     1     1     2   511   512 -1.306650148E+01  1.011574629E+01  1.362378261E+01  2.141656453E+01  4.460403188E-07  0.00000E+00  9.000E+00
      21     1     1     2   512   513  1.484836807E-01 -4.889431629E+00  8.776004166E+00  1.004723037E+01  1.192092896E-07  0.00000E+00  9.000E+00
</event>
<event>
      5  10001  2.40292E+09  6.79423E+00 -1.00000E+00  2.17329E-01
       2    -1     0     0   511     0  0.000000000E+00  0.000000000E+00  1.235769136E+02  1.235769136E+02  0.000000000E+00  0.00000E+00  9.000E+00
      21    -1     0     0   512   514  0.000000000E+00  0.000000000E+00 -1.989817534E+00  1.989817534E+00  0.000000000E+00  0.00000E+00  9.000E+00
      21     1     1     2   511   514  1.126146113E+01  5.929067151E+00  2.705891013E+01  2.990249089E+01  6.743495762E-07  0.00000E+00  9.000E+00
       2     1     1     2   515     0 -5.394256598E+00 -1.089270749E+00  6.261540505E+01  6.285763569E+01  3.300000131E-01  0.00000E+00  9.000E+00
      21     1     1     2   512   515 -5.867204536E+00 -4.839796402E+00  3.191278087E+01  3.280660454E+01  3.371747881E-07  0.00000E+00  9.000E+00
</event>
<event>
      5  10001  2.40292E+09  7.97677E+00 -1.00000E+00  2.07770E-01
      21    -1     0     0   512   511  0.000000000E+00  0.000000000E+00  1.954916643E+02  1.954916643E+02  0.000000000E+00  0.00000E+00  9.000E+00
       1    -1     0     0   515     0  0.000000000E+00  0.000000000E+00 -2.002695290E+01  2.002695290E+01  0.000000000E+00  0.00000E+00  9.000E+00
      21     1     1     2   515   513  1.904170765E+01  1.149283228E+01  5.643732895E+00  2.294610086E+01  4.086288572E-07  0.00000E+00  9.000E+00
       1     1     1     2   512     0 -1.210545203E+01 -7.553831249E+00 -6.773158360E+00  1.579831984E+01  3.300000131E-01  0.00000E+00  9.000E+00
      21     1     1     2   513   511 -6.936255613E+00 -3.939001029E+00  1.765941369E+02  1.767741965E+02  0.000000000E+00  0.00000E+00  9.000E+00
</event>
<event>
      5  10001  2.40292E+09  2.60034E+00 -1.00000E+00  3.16916E-01
       2    -1     0     0   513     0  0.000000000E+00  0.000000000E+00  2.695560448E+00  2.695560448E+00  0.000000000E+00  0.00000E+00  9.000E+00
       1    -1     0     0   511     0  0.000000000E+00  0.000000000E+00 -4.471428751E+02  4.471428751E+02  0.000000000E+00  0.00000E+00  9.000E+00
       1     1     1     2   513     0  4.965576142E+00 -8.735101589E+00 -4.349083809E+02  4.350245598E+02  3.300000131E-01  0.00000E+00  9.000E+00
       2     1     1     2   512     0 -5.953104222E+00  7.648281702E+00 -9.054484547E+00  1.326756395E+01  3.300000131E-01  0.00000E+00  9.000E+00
      21     1     1     2   511   512  9.875280801E-01  1.086819887E+00 -4.844492167E-01  1.546311812E+00  1.560180753E-07  0.00000E+00  9.000E+00
</event>
<event>
      5  10001  2.40292E+09  7.97799E+00 -1.00000E+00  2.07761E-01
       2    -1     0     0   511     0  0.000000000E+00  0.000000000E+00  4.481009248E+01  4.481009248E+01  0.000000000E+00  0.00000E+00  9.000E+00
      21    -1     0     0   514   512  0.000000000E+00  0.000000000E+00 -3.115951621E+00  3.115951621E+00  0.000000000E+00  0.00000E+00  9.000E+00
       3     1     1     2   511     0 -1.837465526E+00 -5.851248821E+00  3.290963888E+00  6.978096850E+00  5.000000000E-01  0.00000E+00  9.000E+00
       2     1     1     2   514     0  5.717877098E+00  7.608460486E+00  2.160279140E+01  2.360873325E+01  3.300000131E-01  0.00000E+00  9.000E+00
      -3     1     1     2     0   512 -3.880411572E+00 -1.757211665E+00  1.680038557E+01  1.733921400E+01  5.000000000E-01  0.00000E+00  9.000E+00
</event>
<event>
      5  10001  2.40292E+09  2.44047E+00 -1.00000E+00  3.26848E-01
      21    -1     0     0   511   514  0.000000000E+00  0.000000000E+00  3.493605943E+01  3.493605943E+01  0.000000000E+00  0.00000E+00  9.000E+00
      -4    -1     0     0     0   512  0.000000000E+00  0.000000000E+00 -9.713181777E+00  9.713181777E+00  0.000000000E+00  0.00000E+00  9.000E+00
      -4     1     1     2     0   514 -1.445799006E+01 -2.313128360E+00  1.265859655E+00  1.477282776E+01  1.500000000E+00  0.00000E+00  9.000E+00
      21     1     1     2   513   512  1.435007245E+01  4.746824942E+00  2.226359108E+01  2.690955990E+01  4.129530925E-07  0.00000E+00  9.000E+00
      21     1     1     2   511   513  1.079176076E-01 -2.433696581E+00  1.693426921E+00  2.966853551E+00  4.214684851E-08  0.00000E+00  9.000E+00
</event>
<event>
      5  10001  2.40292E+09  9.47900E+00 -1.00000E+00  1.98422E-01
      21    -1     0     0   515   513  0.000000000E+00  0.000000000E+00  3.988489728E+02  3.988489728E+02  0.000000000E+00  0.00000E+00  9.000E+00
      21    -1     0     0   513   511  0.000000000E+00  0.000000000E+00 -7.588019248E-01  7.588019248E-01  0.000000000E+00  0.00000E+00  9.000E+00
      -2     1     1     2     0   511 -6.504645293E-01 -1.110484667E+01  2.747853838E+02  2.750106485E+02  3.300000131E-01  0.00000E+00  9.000E+00
      21     1     1     2   515   512 -1.726898723E+00  6.024453159E+00  1.658605735E+01  1.773058131E+01  1.011524364E-06  0.00000E+00  9.000E+00
       2     1     1     2   512     0  2.377363252E+00  5.080393506E+00  1.067187298E+02  1.068665450E+02  3.300000131E-01  0.00000E+00  9.000E+00
</event>
<event>
      5  10001  2.40292E+09  1.07843E+01 -1.00000E+00  1.91985E-01
      21    -1     0     0   514   513  0.000000000E+00  0.000000000E+00  9.996739049E+00  9.996739049E+00  0.000000000E+00  0.00000E+00  9.000E+00
       2    -1     0     0   513     0  0.000000000E+00  0.000000000E+00 -1.491703615E+02  1.491703615E+02  0.000000000E+00  0.00000E+00  9.000E+00
       4     1     1     2   514     0  2.486642819E+00 -3.815247668E+00  1.744947121E+00  5.102386474E+00  1.500000000E+00  0.00000E+00  9.000E+00
       2     1     1     2   512     0  2.718969965E+00  1.493844213E+01 -1.408760453E+02  1.416923389E+02  3.300000131E-01  0.00000E+00  9.000E+00
      -4     1     1     2     0   512 -5.205612784E+00 -1.112319446E+01 -4.252423801E-02  1.237237519E+01  1.500000000E+00  0.00000E+00  9.000E+00
</event>
<event>
      5  10001  2.40292E+09  1.42981E+01 -1.00000E+00  1.79318E-01
      21    -1     0     0   511   512  0.000000000E+00  0.000000000E+00  1.415373982E+00  1.415373982E+00  0.000000000E+00  0.00000E+00  9.000E+00
       2    -1     0     0   513     0  0.000000000E+00  0.000000000E+00 -1.266177755E+02  1.266177755E+02  0.000000000E+00  0.00000E+00  9.000E+00
      21     1     1     2   513   512 -3.711203875E+00 -9.635311643E+00 -5.469080549E+01  5.565695347E+01  6.743495762E-07  0.00000E+00  9.000E+00
       2     1     1     2   514     0  1.216157498E+00  4.185945187E+00 -6.084860912E+01  6.100543670E+01  3.300000131E-01  0.00000E+00  9.000E+00
      21     1     1     2   511   514  2.495046377E+00  5.449366456E+00 -9.662986937E+00  1.137075933E+01  3.153981341E-07  0.00000E+00  9.000E+00
</event>
<event>
      5  10001  2.40292E+09  3.21911E+00 -1.00000E+00  2.87746E-01
       1    -1     0     0   515     0  0.000000000E+00  0.000000000E+00  9.055126102E+02  9.055126102E+02  0.000000000E+00  0.00000E+00  9.000E+00
      21    -1     0     0   511   514  0.000000000E+00  0.000000000E+00 -1.564603084E-01  1.564603084E-01  0.000000000E+00  0.00000E+00  9.000E+00
      21     1     1     2   515   512  1.804720587E-01  6.519532587E+00  1.152146492E+02  1.153990999E+02  3.303624740E-06  0.00000E+00  9.000E+00
       1     1     1     2   511     0 -2.825449841E+00 -9.264290256E+00  6.644893691E+02  6.645600355E+02  3.300000131E-01  0.00000E+00  9.000E+00
      21     1     1     2   512   514  2.644977783E+00  2.744757669E+00  1.256521316E+02  1.257099351E+02  2.336015456E-06  0.00000E+00  9.000E+00
</event>
<event>
      5  10001  2.40292E+09  3.88664E+00 -1.00000E+00  2.66336E-01
      21    -1     0     0   513   511  0.000000000E+00  0.000000000E+00  1.032904857E+01  1.032904857E+01  0.000000000E+00  0.00000E+00  9.000E+00
      21    -1     0     0   512   515  0.000000000E+00  0.000000000E+00 -2.320164280E+01  2.320164280E+01  0.000000000E+00  0.00000E+00  9.000E+00
      21     1     1     2   513   516 -8.466870348E+00 -2.813677840E+00  3.396824328E+00  9.546889126E+00  1.115100797E-07  0.00000E+00  9.000E+00
      21     1     1     2   512   511  1.235345378E+01  2.833962874E+00 -8.395110692E+00  1.520253431E+01  2.665600750E-07  0.00000E+00  9.000E+00
      21     1     1     2   516   515 -3.886583430E+00 -2.028503414E-02 -7.874307863E+00  8.781267936E+00  1.460009660E-07  0.00000E+00  9.000E+00
</event>
<event>
      5  10001  2.40292E+09  2.60571E+01 -1.00000E+00  1.57378E-01
      21    -1     0     0   514   511  0.000000000E+00  0.000000000E+00  2.738336244E+01  2.738336244E+01  0.000000000E+00  0.00000E+00  9.000E+00
      21    -1     0     0   517   514  0.000000000E+00  0.000000000E+00 -7.929204639E+00  7.929204639E+00  0.000000000E+00  0.00000E+00  9.000E+00
      21     1     1     2   512   511 -6.704665612E+00 -1.050692270E+00  1.486207181E+01  1.633822737E+01  1.685873940E-07  0.00000E+00  9.000E+00
      21     1     1     2   517   513 -4.713935046E+00  3.603859472E+00  4.195368672E+00  7.267056144E+00  1.032382731E-07  0.00000E+00  9.000E+00
      21     1     1     2   513   512  1.141860066E+01 -2.553167202E+00  3.967173200E-01  1.170728356E+01  1.707142478E-07  0.00000E+00  9.000E+00
</event>
<event>
      5  10001  2.40292E+09  6.16154E+00 -1.00000E+00  2.23618E-01
      21    -1     0     0   515   511  0.000000000E+00  0.000000000E+00  2.096327700E+02  2.096327700E+02  0.000000000E+00  0.00000E+00  9.000E+00
      21    -1     0     0   516   515  0.000000000E+00  0.000000000E+00 -4.330700597E+00  4.330700597E+00  0.000000000E+00  0.00000E+00  9.000E+00
      21     1     1     2   516   512 -4.511499096E+00 -9.665878847E+00  2.986724956E+00  1.107715505E+01  3.424026159E-07  0.00000E+00  9.000E+00
      21     1     1     2   514   511 -8.338341124E-01  7.059800819E+00  1.596888878E+02  1.598470423E+02  2.697398305E-06  0.00000E+00  9.000E+00
      21     1     1     2   512   514  5.345333208E+00  2.606078028E+00  4.262645665E+01  4.303927318E+01  0.000000000E+00  0.00000E+00  9.000E+00
</event>
<event>
      5  10001  2.40292E+09  3.37738E+00 -1.00000E+00  2.81954E-01
       2    -1     0     0   512     0  0.000000000E+00  0.000000000E+00  4.203558299E+02  4.203558299E+02  0.000000000E+00  0.00000E+00  9.000E+00
      21    -1     0     0   513   514  0.000000000E+00  0.000000000E+00 -3.794488774E-01  3.794488774E-01  0.000000000E+00  0.00000E+00  9.000E+00
      21     1     1     2   512   511  3.520478351E+00  5.874823970E-02  7.452268567E+01  7.460581679E+01  1.348699152E-06  0.00000E+00  9.000E+00
       2     1     1     2   513     0 -1.208661917E+01  2.882884417E+00  1.807187260E+02  1.811456989E+02  3.300000131E-01  0.00000E+00  9.000E+00
      21     1     1     2   511   514  8.566140822E+00 -2.941632656E+00  1.647349694E+02  1.649837632E+02  0.000000000E+00  0.00000E+00  9.000E+00
</event>
<event>
      5  10001  2.40292E+09  5.36546E+00 -1.00000E+00  2.33201E-01
      21    -1     0     0   515   513  0.000000000E+00  0.000000000E+00  2.451528301E+02  2.451528301E+02  0.000000000E+00  0.00000E+00  9.000E+00
      21    -1     0     0   511   516  0.000000000E+00  0.000000000E+00 -5.138053796E+00  5.138053796E+00  0.000000000E+00  0.00000E+00  9.000E+00
      21     1     1     2   515   516  8.524063040E+00 -8.403266957E+00  2.360746934E+02  2.363779504E+02  2.697398305E-06  0.00000E+00  9.000E+00
      21     1     1     2   511   512 -4.078914794E+00  7.426679982E+00  3.980736925E+00  9.361591100E+00  4.380028980E-07  0.00000E+00  9.000E+00
      21     1     1     2   512   513 -4.445148245E+00  9.765869744E-01 -4.065405292E-02  4.551342417E+00  3.409677389E-07  0.00000E+00  9.000E+00
</event>
<event>
      5  10001  2.40292E+09  5.22283E+00 -1.00000E+00  2.35169E-01
      21    -1     0     0   511   513  0.000000000E+00  0.000000000E+00  2.739654167E+01  2.739654167E+01  0.000000000E+00  0.00000E+00  9.000E+00
      21    -1     0     0   512   514  0.000000000E+00  0.000000000E+00 -2.907601509E+01  2.907601509E+01  0.000000000E+00  0.00000E+00  9.000E+00
      -5     1     1     2     0   514 -1.445568238E+01 -9.419374496E+00 -1.509780819E+01  2.342381658E+01  4.800000191E+00  0.00000E+00  9.000E+00
      21     1     1     2   512   513  1.219223013E+01  4.825613781E+00 -4.453398601E+00  1.384809673E+01  2.457562462E-07  0.00000E+00  9.000E+00
       5     1     1     2   511     0  2.263452250E+00  4.593760715E+00  1.787173337E+01  1.920064346E+01  4.800000191E+00  0.00000E+00  9.000E+00
</event>
<event>
      5  10001  2.40292E+09  8.88272E+00 -1.00000E+00  2.01837E-01
       2    -1     0     0   512     0  0.000000000E+00  0.000000000E+00  3.154575879E+00  3.154575879E+00  0.000000000E+00  0.00000E+00  9.000E+00
      21    -1     0     0   511   515  0.000000000E+00  0.000000000E+00 -7.036573352E+01  7.036573352E+01  0.000000000E+00  0.00000E+00  9.000E+00
      21     1     1     2   513   515 -4.507300992E+00  5.670015878E+00 -2.504651939E+01  2.607283981E+01  4.768371582E-07  0.00000E+00  9.000E+00
       2     1     1     2   511     0  8.444208210E+00 -3.743798235E+00 -6.002887987E+00  1.102108169E+01  3.300000131E-01  0.00000E+00  9.000E+00
      21     1     1     2   512   513 -3.936907218E+00 -1.926217643E+00 -3.616175026E+01  3.642638789E+01  6.743495762E-07  0.00000E+00  9.000E+00
</event>
<event>
      5  10001  2.40292E+09  6.73122E+00 -1.00000E+00  2.17912E-01
      21    -1     0     0   511   514  0.000000000E+00  0.000000000E+00  4.052881831E+01  4.052881831E+01  0.000000000E+00  0.00000E+00  9.000E+00
      -4    -1     0     0     0   513  0.000000000E+00  0.000000000E+00 -4.627678275E+01  4.627678275E+01  0.000000000E+00  0.00000E+00  9.000E+00
      -4     1     1     2     0   512  1.591299747E+01  1.378057888E+01 -3.979376822E+01  4.504355483E+01  1.500000000E+00  0.00000E+00  9.000E+00
      21     1     1     2   512   514 -1.281812549E+01 -7.805349023E+00  1.365673526E+01  2.029123536E+01  3.371747881E-07  0.00000E+00  9.000E+00
      21     1     1     2   511   513 -3.094871982E+00 -5.975229855E+00  2.038906852E+01  2.147081087E+01  2.384185791E-07  0.00000E+00  9.000E+00
</event>
<event>
      5  10001  2.40292E+09  4.33371E+00 -1.00000E+00  2.55430E-01
      21    -1     0     0   515   514  0.000000000E+00  0.000000000E+00  2.054157366E+02  2.054157366E+02  0.000000000E+00  0.00000E+00  9.000E+00
      21    -1     0     0   517   516  0.000000000E+00  0.000000000E+00 -2.248932931E+02  2.248932931E+02  0.000000000E+00  0.00000E+00  9.000E+00
      21     1     1     2   515   516  4.417794418E+00 -1.153652713E+01 -2.225629990E+02  2.229055785E+02  5.394796609E-06  0.00000E+00  9.000E+00
      21     1     1     2   517   512 -7.372583122E+00  8.366312376E+00  1.243075487E+01  1.669951590E+01  3.769728732E-07  0.00000E+00  9.000E+00
      21     1     1     2   512   514  2.954788704E+00  3.170214754E+00  1.906546876E+02  1.907039353E+02  2.697398305E-06  0.00000E+00  9.000E+00
</event>
<event>
      5  10001  2.40292E+09  5.15748E+00 -1.00000E+00  2.36100E-01
       2    -1     0     0   513     0  0.000000000E+00  0.000000000E+00  1.316338636E+03  1.316338636E+03  0.000000000E+00  0.00000E+00  9.000E+00
      21    -1     0     0   512   513  0.000000000E+00  0.000000000E+00 -1.482035406E-01  1.482035406E-01  0.000000000E+00  0.00000E+00  9.000E+00
      21     1     1     2   515   511 -5.294679541E+00  1.362124450E+00  5.629837719E+02  5.630103164E+02  7.629394531E-06  0.00000E+00  9.000E+00
       2     1     1     2   511     0  1.158586984E+01 -4.895694571E+00  4.060825715E+02  4.062774471E+02  3.300000131E-01  0.00000E+00  9.000E+00
      21     1     1     2   512   515 -6.291190299E+00  3.533570121E+00  3.471240887E+02  3.471990756E+02  3.814697266E-06  0.00000E+00  9.000E+00
</event>
<event>
      5  10001  2.40292E+09  4.78588E+00 -1.00000E+00  2.46276E-01
      21    -1     0     0   514   511  0.000000000E+00  0.000000000E+00  1.944342173E+01  1.944342173E+01  0.000000000E+00  0.00000E+00  9.000E+00
      21    -1     0     0   512   513  0.000000000E+00  0.000000000E+00 -1.107218013E+01  1.107218013E+01  0.000000000E+00  0.00000E+00  9.000E+00
      21     1     1     2   514   515 -7.649239855E+00  2.122422287E+00  9.883217092E+00  1.267649505E+01  1.192092896E-07  0.00000E+00  9.000E+00
      21     1     1     2   512   511  1.197190298E+01 -4.176496943E+00  3.990970313E-01  1.268577416E+01  3.025522903E-07  0.00000E+00  9.000E+00
      21     1     1     2   515   513 -4.322663121E+00  2.054074655E+00 -1.911072521E+00  5.153332643E+00  1.053671213E-07  0.00000E+00  9.000E+00
</event>
<event>
      5  10001  2.40292E+09  3.28750E+01 -1.00000E+00  1.50296E-01
       2    -1     0     0   513     0  0.000000000E+00  0.000000000E+00  8.160703061E+01  8.160703061E+01  0.000000000E+00  0.00000E+00  9.000E+00
      21    -1     0     0   515   513  0.000000000E+00  0.000000000E+00 -6.107621588E+01  6.107621588E+01  0.000000000E+00  0.00000E+00  9.000E+00
      21     1     1     2   515   516  9.796977064E+00 -3.272026254E+00 -5.988821265E+01  6.077240270E+01  6.743495762E-07  0.00000E+00  9.000E+00
      21     1     1     2   516   511 -4.099638501E+00 -1.402965522E+00  7.839008634E+00  8.956863539E+00  1.685873940E-07  0.00000E+00  9.000E+00
       2     1     1     2   511     0 -5.697338563E+00  4.674991776E+00  7.258001874E+01  7.295398026E+01  3.300000131E-01  0.00000E+00  9.000E+00
</event>
<event>
      5  10001  2.40292E+09  5.90702E+00 -1.00000E+00  2.26451E-01
      21    -1     0     0   512   513  0.000000000E+00  0.000000000E+00  5.741366102E+01  5.741366102E+01  0.000000000E+00  0.00000E+00  9.000E+00
      21    -1     0     0   514   512  0.000000000E+00  0.000000000E+00 -4.787879819E+01  4.787879819E+01  0.000000000E+00  0.00000E+00  9.000E+00
      21     1     1     2   517   511 -1.331336106E+01 -1.428089179E+01 -2.467468599E+01  3.146473553E+01  5.840038640E-07  0.00000E+00  9.000E+00
      21     1     1     2   514   517  1.416443402E+01  2.012627766E+01 -1.190308731E+01  2.733828325E+01  4.129530925E-07  0.00000E+00  9.000E+00
      21     1     1     2   511   513 -8.510729578E-01 -5.845385863E+00  4.611263613E+01  4.648944043E+01  6.743495762E-07  0.00000E+00  9.000E+00
</event>
<event>
      5  10001  2.40292E+09  1.85659E+01 -1.00000E+00  1.69037E-01
      -3    -1     0     0     0   513  0.000000000E+00  0.000000000E+00  1.384870892E+01  1.384870892E+01  0.000000000E+00  0.00000E+00  9.000E+00
       5    -1     0     0   513     0  0.000000000E+00  0.000000000E+00 -2.525775282E+01  2.525775282E+01  0.000000000E+00  0.00000E+00  9.000E+00
      -3     1     1     2     0   512 -9.326253154E+00  8.289319154E-01  1.067162991E+00  9.436893708E+00  5.000000000E-01  0.00000E+00  9.000E+00
       5     1     1     2   514     0  1.146733669E+01  3.177343547E+00 -1.825867601E+01  2.231624015E+01  4.800000191E+00  0.00000E+00  9.000E+00
      21     1     1     2   512   514 -2.141083540E+00 -4.006275462E+00  5.782469116E+00  7.353327878E+00  1.884864366E-07  0.00000E+00  9.000E+00
</event>
<event>
      5  10001  2.40292E+09  1.52421E+01 -1.00000E+00  1.76684E-01
      21    -1     0     0   511   513  0.000000000E+00  0.000000000E+00  3.654499704E+02  3.654499704E+02  0.000000000E+00  0.00000E+00  9.000E+00
      21    -1     0     0   512   515  0.000000000E+00  0.000000000E+00 -2.781848262E+01  2.781848262E+01  0.000000000E+00  0.00000E+00  9.000E+00
      21     1     1     2   511   515 -3.249505635E+00  1.424491636E+01  3.510298158E+02  3.513337565E+02  0.000000000E+00  0.00000E+00  9.000E+00
      21     1     1     2   512   516  1.495261817E+01 -1.359776881E+01 -2.004067801E+01  2.846241173E+01  9.830249847E-07  0.00000E+00  9.000E+00
      21     1     1     2   516   513 -1.170311254E+01 -6.471475564E-01  6.642350062E+00  1.347228479E+01  2.665600750E-07  0.00000E+00  9.000E+00
</event>
<event>
      5  10001  2.40292E+09  1.95624E+01 -1.00000E+00  1.67124E-01
      21    -1     0     0   514   512  0.000000000E+00  0.000000000E+00  6.420150407E+00  6.420150407E+00  0.000000000E+00  0.00000E+00  9.000E+00
      21    -1     0     0   513   514  0.000000000E+00  0.000000000E+00 -1.859090562E+02  1.859090562E+02  0.000000000E+00  0.00000E+00  9.000E+00
      21     1     1     2   513   517  5.001819822E+00 -6.498046882E+00 -1.457395900E+02  1.459701028E+02  0.000000000E+00  0.00000E+00  9.000E+00
      21     1     1     2   511   512 -1.958792772E+00 -4.780494588E+00  4.196470639E+00  6.655851820E+00  9.195356739E-07  0.00000E+00  9.000E+00
      21     1     1     2   517   511 -3.043027049E+00  1.127854147E+01 -3.794578644E+01  3.970325201E+01  9.536743164E-07  0.00000E+00  9.000E+00
</event>
<event>
      5  10001  2.40292E+09  2.53144E+00 -1.00000E+00  3.21040E-01
      21    -1     0     0   513   512  0.000000000E+00  0.000000000E+00  8.989068650E+01  8.989068650E+01  0.000000000E+00  0.00000E+00  9.000E+00
       4    -1     0     0   515     0  0.000000000E+00  0.000000000E+00 -1.816489421E+01  1.816489421E+01  0.000000000E+00  0.00000E+00  9.000E+00
       3     1     1     2   515     0  8.671097460E+00  7.442265806E+00  1.447553284E+01  1.844901901E+01  5.000000000E-01  0.00000E+00  9.000E+00
       4     1     1     2   513     0 -1.119043007E+01 -7.674759846E+00 -1.327029533E+01  1.903886557E+01  1.500000000E+00  0.00000E+00  9.000E+00
      -3     1     1     2     0   512  2.519332613E+00  2.324940402E-01  7.052055478E+01  7.056769613E+01  5.000000000E-01  0.00000E+00  9.000E+00
</event>
<event>
      5  10001  2.40292E+09  5.38792E+00 -1.00000E+00  2.32899E-01
      21    -1     0     0   511   513  0.000000000E+00  0.000000000E+00  6.545004545E+00  6.545004545E+00  0.000000000E+00  0.00000E+00  9.000E+00
      21    -1     0     0   512   511  0.000000000E+00  0.000000000E+00 -1.216884824E+02  1.216884824E+02  0.000000000E+00  0.00000E+00  9.000E+00
      21     1     1     2   512   514  1.235029152E+01  1.624033636E+00 -1.056875450E+02  1.064190977E+02  1.907348633E-06  0.00000E+00  9.000E+00
      21     1     1     2   514   515 -1.331862919E+01  3.676155075E+00 -8.813408038E+00  1.638829341E+01  4.129530925E-07  0.00000E+00  9.000E+00
      21     1     1     2   515   513  9.683376680E-01 -5.300188710E+00 -6.425248410E-01  5.426095869E+00  1.993639493E-07  0.00000E+00  9.000E+00
</event>
<event>
      5  10001  2.40292E+09  4.29132E+00 -1.00000E+00  2.56375E-01
      21    -1     0     0   516   512  0.000000000E+00  0.000000000E+00  1.269022067E+02  1.269022067E+02  0.000000000E+00  0.00000E+00  9.000E+00
      21    -1     0     0   513   516  0.000000000E+00  0.000000000E+00 -1.957584798E+01  1.957584798E+01  0.000000000E+00  0.00000E+00  9.000E+00
      21     1     1     2   517   512 -1.190898427E+01 -3.741283642E+00  1.244599241E+02  1.250843468E+02  1.907348633E-06  0.00000E+00  9.000E+00
      21     1     1     2   513   511  4.866005946E+00  1.708561721E+00 -4.795599163E+00  7.042369512E+00  6.336060651E-07  0.00000E+00  9.000E+00
      21     1     1     2   511   517  7.042978320E+00  2.032721920E+00 -1.233796622E+01  1.435133835E+01  1.250277577E-06  0.00000E+00  9.000E+00
</event>
<event>
      5  10001  2.40292E+09  1.76628E+01 -1.00000E+00  1.70905E-01
      21    -1     0     0   514   511  0.000000000E+00  0.000000000E+00  1.053955384E+01  1.053955384E+01  0.000000000E+00  0.00000E+00  9.000E+00
      21    -1     0     0   515   514  0.000000000E+00  0.000000000E+00 -1.048704397E+03  1.048704397E+03  0.000000000E+00  0.00000E+00  9.000E+00
      21     1     1     2   513   511  8.651319662E+00 -1.476925327E+01  2.911939912E+00  1.736247586E+01  1.632340424E-07  0.00000E+00  9.000E+00
      21     1     1     2   515   512 -9.540310510E+00 -8.015673251E-01 -8.798539182E+02  8.799060049E+02  1.868812365E-05  0.00000E+00  9.000E+00
      21     1     1     2   512   513  8.889908478E-01  1.557082059E+01 -1.612228645E+02  1.619754697E+02  2.697398305E-06  0.00000E+00  9.000E+00
</event>
<event>
      5  10001  2.40292E+09  4.49899E+00 -1.00000E+00  2.51895E-01
      21    -1     0     0   516   515  0.000000000E+00  0.000000000E+00  2.058393981E+02  2.058393981E+02  0.000000000E+00  0.00000E+00  9.000E+00
      21    -1     0     0   511   513  0.000000000E+00  0.000000000E+00 -3.358861802E+00  3.358861802E+00  0.000000000E+00  0.00000E+00  9.000E+00
      21     1     1     2   516   513 -9.717020362E+00  1.097926223E+01  1.506080266E+01  2.101885964E+01  4.460403188E-07  0.00000E+00  9.000E+00
      21     1     1     2   514   515  8.137839347E+00 -5.785660546E+00  1.538435573E+02  1.541672418E+02  2.697398305E-06  0.00000E+00  9.000E+00
      21     1     1     2   511   514  1.579181014E+00 -5.193601680E+00  3.357617628E+01  3.401215848E+01  4.768371582E-07  0.00000E+00  9.000E+00
</event>
<event>
      5  10001  2.40292E+09  9.00155E+00 -1.00000E+00  2.01129E-01
      21    -1     0     0   515   513  0.000000000E+00  0.000000000E+00  6.200774390E+01  6.200774390E+01  0.000000000E+00  0.00000E+00  9.000E+00
      21    -1     0     0   511   517  0.000000000E+00  0.000000000E+00 -4.656039456E+01  4.656039456E+01  0.000000000E+00  0.00000E+00  9.000E+00
      21     1     1     2   512   517  5.570177361E+00  2.317782382E+01 -1.268457610E+01  2.700253439E+01  3.769728732E-07  0.00000E+00  9.000E+00
      21     1     1     2   511   513 -1.181357536E+01 -1.669339202E+01 -2.234592759E+01  3.029142420E+01  7.152557373E-07  0.00000E+00  9.000E+00
      21     1     1     2   515   512  6.243397995E+00 -6.484431795E+00  5.047785303E+01  5.127417987E+01  6.743495762E-07  0.00000E+00  9.000E+00
</event>
<event>
      5  10001  2.40292E+09  5.50223E+00 -1.00000E+00  2.31394E-01
      21    -1     0     0   514   513  0.000000000E+00  0.000000000E+00  3.771862544E+01  3.771862544E+01  0.000000000E+00  0.00000E+00  9.000E+00
      21    -1     0     0   516   512  0.000000000E+00  0.000000000E+00 -1.277387051E+01  1.277387051E+01  0.000000000E+00  0.00000E+00  9.000E+00
      21     1     1     2   514   512 -1.385084341E+00  1.310902961E+01  2.112811450E+01  2.490305882E+01  0.000000000E+00  0.00000E+00  9.000E+00
      21     1     1     2   516   511 -3.140918603E+00 -9.980162436E+00 -7.589494678E+00  1.292553447E+01  8.429369702E-08  0.00000E+00  9.000E+00
      21     1     1     2   511   513  4.526002944E+00 -3.128867171E+00  1.140613511E+01  1.266390266E+01  2.384185791E-07  0.00000E+00  9.000E+00
</event>
<event>
      5  10001  2.40292E+09  2.82512E+00 -1.00000E+00  3.04867E-01
      21    -1     0     0   515   514  0.000000000E+00  0.000000000E+00  1.428570064E+01  1.428570064E+01  0.000000000E+00  0.00000E+00  9.000E+00
      21    -1     0     0   517   513  0.000000000E+00  0.000000000E+00 -2.128453194E+01  2.128453194E+01  0.000000000E+00  0.00000E+00  9.000E+00
      21     1     1     2   515   513 -2.192928128E+00  1.075634208E+01 -6.318164787E+00  1.266597943E+01  2.528810911E-07  0.00000E+00  9.000E+00
      21     1     1     2   517   512  2.538415798E+00 -1.356025262E+01 -7.371304132E+00  1.564161534E+01  3.264680848E-07  0.00000E+00  9.000E+00
      21     1     1     2   512   514 -3.454876698E-01  2.803910541E+00  6.690637621E+00  7.262637801E+00  8.429369702E-08  0.00000E+00  9.000E+00
</event>
<event>
      5  10001  2.40292E+09  7.99049E+00 -1.00000E+00  2.07672E-01
       1    -1     0     0   515     0  0.000000000E+00  0.000000000E+00  5.255403123E+02  5.255403123E+02  0.000000000E+00  0.00000E+00  9.000E+00
      21    -1     0     0   511   512  0.000000000E+00  0.000000000E+00 -1.497141467E+00  1.497141467E+00  0.000000000E+00  0.00000E+00  9.000E+00
      21     1     1     2   513   512 -7.716653758E+00  4.356657108E+00  1.517479126E+01  1.757274868E+01  1.400392070E-06  0.00000E+00  9.000E+00
       1     1     1     2   511     0  1.288611284E+01 -1.044921335E+01  3.595424181E+02  3.599251273E+02  3.300000131E-01  0.00000E+00  9.000E+00
      21     1     1     2   515   513 -5.169459080E+00  6.092556241E+00  1.493259615E+02  1.495395778E+02  1.907348633E-06  0.00000E+00  9.000E+00
</event>
<event>
      5  10001  2.40292E+09  1.35365E+01 -1.00000E+00  1.81640E-01
      21    -1     0     0   514   511  0.000000000E+00  0.000000000E+00  5.088487336E+01  5.088487336E+01  0.000000000E+00  0.00000E+00  9.000E+00
      21    -1     0     0   516   513  0.000000000E+00  0.000000000E+00 -4.244625161E+02  4.244625161E+02  0.000000000E+00  0.00000E+00  9.000E+00
      21     1     1     2   514   513  1.375577596E+01  4.409967524E-01 -4.216272083E+02  4.218517733E+02  5.394796609E-06  0.00000E+00  9.000E+00
      21     1     1     2   512   511 -9.372183786E+00  8.694900556E+00  3.262421094E+01  3.503966701E+01  1.430511475E-06  0.00000E+00  9.000E+00
      21     1     1     2   516   512 -4.383592170E+00 -9.135897309E+00  1.542535454E+01  1.845594924E+01  6.951036328E-07  0.00000E+00  9.000E+00
</event>
<event>
      5  10001  2.40292E+09  4.26504E+00 -1.00000E+00  2.56970E-01
       3    -1     0     0   513     0  0.000000000E+00  0.000000000E+00  1.144397367E+01  1.144397367E+01  0.000000000E+00  0.00000E+00  9.000E+00
      21    -1     0     0   512   511  0.000000000E+00  0.000000000E+00 -2.445493963E+01  2.445493963E+01  0.000000000E+00  0.00000E+00  9.000E+00
      21     1     1     2   512   515  8.316519491E+00 -5.786061488E+00 -1.521293500E+01  1.827775684E+01  3.769728732E-07  0.00000E+00  9.000E+00
       3     1     1     2   515     0 -1.075541368E+01  2.288422030E+00  5.429139658E+00  1.227360404E+01  5.000000000E-01  0.00000E+00  9.000E+00
      21     1     1     2   513   511  2.438894185E+00  3.497639459E+00 -3.227170618E+00  5.347552415E+00  5.960464478E-08  0.00000E+00  9.000E+00
</event>
<event>
      5  10001  2.40292E+09  3.76502E+00 -1.00000E+00  2.69710E-01
      21    -1     0     0   514   512  0.000000000E+00  0.000000000E+00  5.023590215E+01  5.023590215E+01  0.000000000E+00  0.00000E+00  9.000E+00
      21    -1     0     0   516   515  0.000000000E+00  0.000000000E+00 -1.251868401E+02  1.251868401E+02  0.000000000E+00  0.00000E+00  9.000E+00
      21     1     1     2   516   511 -7.284490831E+00  9.829850332E+00 -5.809097211E+00  1.354383161E+01  4.915124924E-07  0.00000E+00  9.000E+00
      21     1     1     2   511   512  4.708351890E+00 -7.084152083E+00  4.594739018E+01  4.672811202E+01  6.743495762E-07  0.00000E+00  9.000E+00
      21     1     1     2   514   515  2.576138941E+00 -2.745698249E+00 -1.150892309E+02  1.151507986E+02  0.000000000E+00  0.00000E+00  9.000E+00
</event>
<event>
      5  10001  2.40292E+09  6.23616E+00 -1.00000E+00  2.22823E-01
      21    -1     0     0   513   511  0.000000000E+00  0.000000000E+00  1.201810945E+01  1.201810945E+01  0.000000000E+00  0.00000E+00  9.000E+00
      21    -1     0     0   516   517  0.000000000E+00  0.000000000E+00 -7.011270394E+01  7.011270394E+01  0.000000000E+00  0.00000E+00  9.000E+00
      21     1     1     2   513   517 -9.756357081E+00  8.346030468E+00 -6.413443971E+01  6.540694982E+01  9.536743164E-07  0.00000E+00  9.000E+00
      21     1     1     2   516   512  4.741659654E+00 -2.528377880E+00  7.170352022E+00  8.960467571E+00  4.380028980E-07  0.00000E+00  9.000E+00
      21     1     1     2   512   511  5.014697427E+00 -5.817652588E+00 -1.130506807E+00  7.763396007E+00  1.976862425E-07  0.00000E+00  9.000E+00
</event>
<event>
      5  10001  2.40292E+09  3.85132E+00 -1.00000E+00  2.67296E-01
      21    -1     0     0   514   516  0.000000000E+00  0.000000000E+00  1.109482659E+00  1.109482659E+00  0.000000000E+00  0.00000E+00  9.000E+00
      21    -1     0     0   515   511  0.000000000E+00  0.000000000E+00 -9.496040374E+01  9.496040374E+01  0.000000000E+00  0.00000E+00  9.000E+00
      21     1     1     2   514   511  9.042186178E+00  9.448030992E-01 -4.226025275E+01  4.322710661E+01  4.768371582E-07  0.00000E+00  9.000E+00
      21     1     1     2   513   516 -8.565524301E+00  1.490376020E+00 -4.419106242E+01  4.503819962E+01  1.066240300E-06  0.00000E+00  9.000E+00
      21     1     1     2   515   513 -4.766618773E-01 -2.435179119E+00 -7.399605916E+00  7.804580168E+00  2.064765462E-07  0.00000E+00  9.000E+00
</event>
<event>
      5  10001  2.40292E+09  1.25572E+01 -1.00000E+00  1.84927E-01
      21    -1     0     0   511   514  0.000000000E+00  0.000000000E+00  2.919566912E+01  2.919566912E+01  0.000000000E+00  0.00000E+00  9.000E+00
      21    -1     0     0   512   513  0.000000000E+00  0.000000000E+00 -2.577615284E+02  2.577615284E+02  0.000000000E+00  0.00000E+00  9.000E+00
      21     1     1     2   511   513  2.639905441E+01 -1.424410117E+00 -2.496266070E+02  2.510226722E+02  2.697398305E-06  0.00000E+00  9.000E+00
       5     1     1     2   512     0 -1.454338294E+01 -2.592037571E+00  1.326637507E+01  2.042707408E+01  4.800000191E+00  0.00000E+00  9.000E+00
      -5     1     1     2     0   514 -1.185567146E+01  4.016447688E+00  7.794372662E+00  1.550745127E+01  4.800000191E+00  0.00000E+00  9.000E+00
</event>
<event>
      5  10001  2.40292E+09  2.92258E+00 -1.00000E+00  3.00214E-01
      21    -1     0     0   512   511  0.000000000E+00  0.000000000E+00  7.970720464E+01  7.970720464E+01  0.000000000E+00  0.00000E+00  9.000E+00
       2    -1     0     0   514     0  0.000000000E+00  0.000000000E+00 -5.883314684E+01  5.883314684E+01  0.000000000E+00  0.00000E+00  9.000E+00
      21     1     1     2   512   515  7.466320563E+00  5.699770001E+00 -4.445894296E+00  1.039227102E+01  1.788139343E-07  0.00000E+00  9.000E+00
       2     1     1     2   515     0 -1.038149504E+01 -5.907441800E+00 -5.069132668E+01  5.208063756E+01  3.300000131E-01  0.00000E+00  9.000E+00
      21     1     1     2   514   511  2.915174474E+00  2.076717991E-01  7.601127878E+01  7.606744291E+01  1.348699152E-06  0.00000E+00  9.000E+00
</event>
<event>
      5  10001  2.40292E+09  4.78626E+00 -1.00000E+00  2.46269E-01
      21    -1     0     0   513   512  0.000000000E+00  0.000000000E+00  5.524684889E+01  5.524684889E+01  0.000000000E+00  0.00000E+00  9.000E+00
      21    -1     0     0   511   513  0.000000000E+00  0.000000000E+00 -2.668893547E+01  2.668893547E+01  0.000000000E+00  0.00000E+00  9.000E+00
      21     1     1     2   511   514 -1.799721462E+01 -4.753247690E+00 -3.533660533E+00  1.894676369E+01  5.264139692E-07  0.00000E+00  9.000E+00
      21     1     1     2   514   515  1.519396552E+01  8.738085839E-01 -1.153761659E+01  1.909808174E+01  5.331201500E-07  0.00000E+00  9.000E+00
      21     1     1     2   515   512  2.803249102E+00  3.879439106E+00  4.362919055E+01  4.389093894E+01  8.259061849E-07  0.00000E+00  9.000E+00
</event>
<event>
      5  10001  2.40292E+09  5.18897E+00 -1.00000E+00  2.35649E-01
      21    -1     0     0   516   514  0.000000000E+00  0.000000000E+00  6.079196359E+00  6.079196359E+00  0.000000000E+00  0.00000E+00  9.000E+00
      21    -1     0     0   511   512  0.000000000E+00  0.000000000E+00 -5.999028628E+01  5.999028628E+01  0.000000000E+00  0.00000E+00  9.000E+00
      21     1     1     2   516   512  1.234804713E+01  1.342276097E+01 -2.165320912E+01  2.831088563E+01  2.384185791E-07  0.00000E+00  9.000E+00
      21     1     1     2   511   513 -8.417040244E+00 -8.630403212E+00 -2.722360458E+01  2.977339538E+01  0.000000000E+00  0.00000E+00  9.000E+00
      21     1     1     2   513   514 -3.931006884E+00 -4.792357757E+00 -5.034276217E+00  7.985201627E+00  1.332800375E-07  0.00000E+00  9.000E+00
</event>
<event>
      5  10001  2.40292E+09  6.48110E+00 -1.00000E+00  2.20318E-01
       3    -1     0     0   513     0  0.000000000E+00  0.000000000E+00  4.855501429E+00  4.855501429E+00  0.000000000E+00  0.00000E+00  9.000E+00
      -1    -1     0     0     0   513  0.000000000E+00  0.000000000E+00 -7.545692508E+01  7.545692508E+01  0.000000000E+00  0.00000E+00  9.000E+00
      -1     1     1     2     0   514  8.958917692E+00  1.531630977E+00 -6.084741548E+01  6.152336930E+01  3.300000131E-01  0.00000E+00  9.000E+00
       3     1     1     2   511     0 -5.845016352E+00  2.610861950E-01  2.227449083E+00  6.280438804E+00  5.000000000E-01  0.00000E+00  9.000E+00
      21     1     1     2   514   511 -3.113901340E+00 -1.792717172E+00 -1.198145726E+01  1.250861841E+01  0.000000000E+00  0.00000E+00  9.000E+00
</event>
<event>
      5  10001  2.40292E+09  1.33184E+01 -1.00000E+00  1.82340E-01
      21    -1     0     0   513   511  0.000000000E+00  0.000000000E+00  1.283686872E+02  1.283686872E+02  0.000000000E+00  0.00000E+00  9.000E+00
      21    -1     0     0   515   512  0.000000000E+00  0.000000000E+00 -3.900658670E+01  3.900658670E+01  0.000000000E+00  0.00000E+00  9.000E+00
      21     1     1     2   515   516  5.681589823E-02 -1.364268632E+01 -3.475015969E+01  3.733228786E+01  1.066240300E-06  0.00000E+00  9.000E+00
      21     1     1     2   516   511  1.090950511E+01  2.120048037E+01  9.627937744E+01  9.918768165E+01  1.348699152E-06  0.00000E+00  9.000E+00
      21     1     1     2   513   512 -1.096632101E+01 -7.557794046E+00  2.783288277E+01  3.085530442E+01  0.000000000E+00  0.00000E+00  9.000E+00
</event>
<event>
      5  10001  2.40292E+09  7.61436E+00 -1.00000E+00  2.10448E-01
      21    -1     0     0   514   511  0.000000000E+00  0.000000000E+00  6.829374203E+01  6.829374203E+01  0.000000000E+00  0.00000E+00  9.000E+00
      21    -1     0     0   515   517  0.000000000E+00  0.000000000E+00 -3.906277126E+02  3.906277126E+02  0.000000000E+00  0.00000E+00  9.000E+00
      21     1     1     2   514   517  1.136104973E+01 -6.095027616E+00  6.547127535E+01  6.672863485E+01  1.907348633E-06  0.00000E+00  9.000E+00
      21     1     1     2   515   512 -7.623589956E+00  1.272902266E+01 -3.827849690E+02  3.830724209E+02  7.629394531E-06  0.00000E+00  9.000E+00
      21     1     1     2   512   511 -3.737459779E+00 -6.633995040E+00 -5.020276903E+00  9.120398893E+00  1.460009660E-07  0.00000E+00  9.000E+00
</event>
<event>
      5  10001  2.40292E+09  2.74331E+00 -1.00000E+00  3.09024E-01
      -2    -1     0     0     0   511  0.000000000E+00  0.000000000E+00  1.904604953E+00  1.904604953E+00  0.000000000E+00  0.00000E+00  9.000E+00
      21    -1     0     0   511   513  0.000000000E+00  0.000000000E+00 -4.681425031E+02  4.681425031E+02  0.000000000E+00  0.00000E+00  9.000E+00
      -2     1     1     2     0   512  6.440460926E+00  7.785441819E+00 -1.201576389E+01  1.570286990E+01  3.300000131E-01  0.00000E+00  9.000E+00
      21     1     1     2   512   514 -4.924686632E+00 -4.246538158E+00 -2.428437093E+02  2.429307571E+02  3.814697266E-06  0.00000E+00  9.000E+00
      21     1     1     2   514   513 -1.515774293E+00 -3.538903660E+00 -2.113784250E+02  2.114134810E+02  2.697398305E-06  0.00000E+00  9.000E+00
</event>
<event>
      5  10001  2.40292E+09  6.14134E+00 -1.00000E+00  2.23835E-01
       1    -1     0     0   513     0  0.000000000E+00  0.000000000E+00  1.863596507E+03  1.863596507E+03  0.000000000E+00  0.00000E+00  9.000E+00
      21    -1     0     0   512   513  0.000000000E+00  0.000000000E+00 -7.218071602E-01  7.218071602E-01  0.000000000E+00  0.00000E+00  9.000E+00
       3     1     1     2   512     0 -6.304653057E+00  8.144164588E+00  5.859234924E+01  5.949276810E+01  5.000000000E-01  0.00000E+00  9.000E+00
       1     1     1     2   514     0  1.074771360E+01 -6.540703208E+00  1.781913238E+03  1.781957684E+03  3.300000131E-01  0.00000E+00  9.000E+00
      -3     1     1     2     0   514 -4.443060545E+00 -1.603461380E+00  2.236911297E+01  2.286786152E+01  5.000000000E-01  0.00000E+00  9.000E+00
</event>
<event>
      5  10001  2.40292E+09  2.12960E+01 -1.00000E+00  1.64110E-01
       5    -1     0     0   514     0  0.000000000E+00  0.000000000E+00  2.734497780E+00  2.734497780E+00  0.000000000E+00  0.00000E+00  9.000E+00
      21    -1     0     0   511   513  0.000000000E+00  0.000000000E+00 -1.321643795E+02  1.321643795E+02  0.000000000E+00  0.00000E+00  9.000E+00
      21     1     1     2   514   513  9.069268748E+00  4.051900978E+00 -7.774701347E+01  7.837900000E+01  1.651812370E-06  0.00000E+00  9.000E+00
       5     1     1     2   512     0 -3.571936490E+00  7.167593789E+00 -1.406823383E+01  1.688455910E+01  4.800000191E+00  0.00000E+00  9.000E+00
      21     1     1     2   511   512 -5.497332259E+00 -1.121949477E+01 -3.761463438E+01  3.963531815E+01  4.768371582E-07  0.00000E+00  9.000E+00
</event>
<event>
      5  10001  2.40292E+09  6.24392E+00 -1.00000E+00  2.22741E-01
       4    -1     0     0   512     0  0.000000000E+00  0.000000000E+00  1.790935961E+01  1.790935961E+01  0.000000000E+00  0.00000E+00  9.000E+00
       2    -1     0     0   515     0  0.000000000E+00  0.000000000E+00 -4.629320298E+02  4.629320298E+02  0.000000000E+00  0.00000E+00  9.000E+00
      21     1     1     2   512   511 -1.094395342E+01  8.470845217E+00 -6.888097137E+00  1.545869390E+01  1.253115895E-06  0.00000E+00  9.000E+00
       2     1     1     2   511     0  1.606826580E+01 -4.904234516E+00 -4.508367736E+02  4.511498044E+02  3.300000131E-01  0.00000E+00  9.000E+00
       4     1     1     2   515     0 -5.124312389E+00 -3.566610701E+00  1.270220057E+01  1.423289109E+01  1.500000000E+00  0.00000E+00  9.000E+00
</event>
<event>
      5  10001  2.40292E+09  1.27561E+01 -1.00000E+00  1.84229E-01
      21    -1     0     0   513   512  0.000000000E+00  0.000000000E+00  8.777632496E+01  8.777632496E+01  0.000000000E+00  0.00000E+00  9.000E+00
      21    -1     0     0   515   514  0.000000000E+00  0.000000000E+00 -2.403884660E+01  2.403884660E+01  0.000000000E+00  0.00000E+00  9.000E+00
      21     1     1     2   513   514 -1.440707836E+01 -5.558409206E+00 -1.102848160E+01  1.897596443E+01  3.371747881E-07  0.00000E+00  9.000E+00
      21     1     1     2   515   511  2.716319829E+01  5.574976180E+00  1.460447004E+01  3.134023365E+01  7.539457465E-07  0.00000E+00  9.000E+00
      21     1     1     2   511   512 -1.275611993E+01 -1.656697338E-02  6.016148992E+01  6.149897348E+01  1.168007728E-06  0.00000E+00  9.000E+00
</event>
<event>
      5  10001  2.40292E+09  1.49512E+01 -1.00000E+00  1.77469E-01
       2    -1     0     0   514     0  0.000000000E+00  0.000000000E+00  5.213137775E+02  5.213137775E+02  0.000000000E+00  0.00000E+00  9.000E+00
      21    -1     0     0   513   516  0.000000000E+00  0.000000000E+00 -1.232747334E+01  1.232747334E+01  0.000000000E+00  0.00000E+00  9.000E+00
      21     1     1     2   514   516 -1.061220696E+01  7.075571426E+00 -4.620451890E+00  1.356581082E+01  5.685920724E-07  0.00000E+00  9.000E+00
       2     1     1     2   511     0  2.550009277E+01 -8.449524729E+00  4.970170541E+02  4.977426143E+02  3.300000131E-01  0.00000E+00  9.000E+00
      21     1     1     2   513   511 -1.488788581E+01  1.373953302E+00  1.658970203E+01  2.233282573E+01  0.000000000E+00  0.00000E+00  9.000E+00
</event>
<event>
      5  10001  2.40292E+09  6.20483E+00 -1.00000E+00  2.23154E-01
      21    -1     0     0   512   514  0.000000000E+00  0.000000000E+00  2.842859410E+01  2.842859410E+01  0.000000000E+00  0.00000E+00  9.000E+00
      21    -1     0     0   513   512  0.000000000E+00  0.000000000E+00 -2.991747272E+01  2.991747272E+01  0.000000000E+00  0.00000E+00  9.000E+00
      21     1     1     2   513   515  2.293811958E+01 -3.925951664E-01  5.166762598E+00  2.351609866E+01  2.598106231E-07  0.00000E+00  9.000E+00
      21     1     1     2   515   511 -1.678122930E+01  1.162420620E+00 -1.626011069E+01  2.339555681E+01  4.129530925E-07  0.00000E+00  9.000E+00
      21     1     1     2   511   514 -6.156890276E+00 -7.698254539E-01  9.604469472E+00  1.143441135E+01  1.192092896E-07  0.00000E+00  9.000E+00
</event>
<event>
      5  10001  2.40292E+09  8.94638E+00 -1.00000E+00  2.01456E-01
       2    -1     0     0   515     0  0.000000000E+00  0.000000000E+00  1.026587499E+02  1.026587499E+02  0.000000000E+00  0.00000E+00  9.000E+00
      21    -1     0     0   511   512  0.000000000E+00  0.000000000E+00 -1.105280097E+01  1.105280097E+01  0.000000000E+00  0.00000E+00  9.000E+00
      21     1     1     2   515   512 -3.859289252E+00 -1.417292224E+01  8.529527242E+01  8.655084826E+01  0.000000000E+00  0.00000E+00  9.000E+00
      21     1     1     2   511   513 -7.361329046E-01  1.362322996E+01 -5.316130796E+00  1.464225163E+01  4.616955931E-07  0.00000E+00  9.000E+00
       2     1     1     2   513     0  4.595422156E+00  5.496922783E-01  1.162680729E+01  1.251845095E+01  3.300000131E-01  0.00000E+00  9.000E+00
</event>
<event>
      5  10001  2.40292E+09  2.40814E+00 -1.00000E+00  3.29021E-01
       2    -1     0     0   511     0  0.000000000E+00  0.000000000E+00  8.089534731E-01  8.089534731E-01  0.000000000E+00  0.00000E+00  9.000E+00
      21    -1     0     0   513   514  0.000000000E+00  0.000000000E+00 -9.098290181E+02  9.098290181E+02  0.000000000E+00  0.00000E+00  9.000E+00
      21     1     1     2   511   512 -2.067064691E+01 -1.443499323E+01 -4.724989545E+02  4.731711178E+02  0.000000000E+00  0.00000E+00  9.000E+00
       2     1     1     2   513     0  2.243505138E+01  1.358784799E+01 -3.758804984E+02  3.767946644E+02  3.300000131E-01  0.00000E+00  9.000E+00
      21     1     1     2   512   514 -1.764404467E+00  8.471452380E-01 -6.064061163E+01  6.067218933E+01  6.743495762E-07  0.00000E+00  9.000E+00
</event>
<event>
      5  10001  2.40292E+09  9.55218E+00 -1.00000E+00  1.98026E-01
      21    -1     0     0   515   511  0.000000000E+00  0.000000000E+00  3.810865482E+01  3.810865482E+01  0.000000000E+00  0.00000E+00  9.000E+00
      21    -1     0     0   512   516  0.000000000E+00  0.000000000E+00 -3.545442468E+01  3.545442468E+01  0.000000000E+00  0.00000E+00  9.000E+00
      21     1     1     2   515   516 -7.080587211E+00  1.245228416E+01 -3.082004039E+01  3.398630586E+01  3.371747881E-07  0.00000E+00  9.000E+00
      21     1     1     2   512   513 -2.214075955E+00 -1.024923020E+01  1.120894149E+01  1.534891597E+01  2.064765462E-07  0.00000E+00  9.000E+00
      21     1     1     2   513   511  9.294663166E+00 -2.203053965E+00  2.226532904E+01  2.422785768E+01  3.371747881E-07  0.00000E+00  9.000E+00
</event>
<event>
      5  10001  2.40292E+09  8.34226E+00 -1.00000E+00  2.05255E-01
       2    -1     0     0   512     0  0.000000000E+00  0.000000000E+00  1.351073374E+01  1.351073374E+01  0.000000000E+00  0.00000E+00  9.000E+00
      21    -1     0     0   513   514  0.000000000E+00  0.000000000E+00 -2.156315195E+01  2.156315195E+01  0.000000000E+00  0.00000E+00  9.000E+00
      -1     1     1     2     0   514  1.003214364E+01 -4.867326008E+00 -1.482386668E+00  1.125349451E+01  3.300000131E-01  0.00000E+00  9.000E+00
       2     1     1     2   513     0 -1.151851262E+01  9.338566376E+00  1.034636007E+00  1.486823213E+01  3.300000131E-01  0.00000E+00  9.000E+00
       1     1     1     2   512     0  1.486368981E+00 -4.471240368E+00 -7.604667551E+00  8.952159055E+00  3.300000131E-01  0.00000E+00  9.000E+00
</event>
<event>
      5  10001  2.40292E+09  1.15294E+01 -1.00000E+00  1.88819E-01
      21    -1     0     0   511   513  0.000000000E+00  0.000000000E+00  2.993958400E+02  2.993958400E+02  0.000000000E+00  0.00000E+00  9.000E+00
      21    -1     0     0   516   514  0.000000000E+00  0.000000000E+00 -1.979682676E+01  1.979682676E+01  0.000000000E+00  0.00000E+00  9.000E+00
      21     1     1     2   511   515  1.527895104E+01 -2.120915131E+00  1.449223156E+02  1.457409420E+02  3.814697266E-06  0.00000E+00  9.000E+00
      21     1     1     2   516   513 -1.965079247E+01 -8.547442362E+00  1.515268929E+02  1.530346748E+02  1.907348633E-06  0.00000E+00  9.000E+00
      21     1     1     2   515   514  4.371841429E+00  1.066835749E+01 -1.685019525E+01  2.041704996E+01  7.907449699E-07  0.00000E+00  9.000E+00
</event>
<event>
      5  10001  2.40292E+09  3.45896E+01 -1.00000E+00  1.48833E-01
       1    -1     0     0   515     0  0.000000000E+00  0.000000000E+00  3.483662112E+02  3.483662112E+02  0.000000000E+00  0.00000E+00  9.000E+00
      21    -1     0     0   512   514  0.000000000E+00  0.000000000E+00 -1.234884776E+02  1.234884776E+02  0.000000000E+00  0.00000E+00  9.000E+00
      21     1     1     2   511   514 -1.912425920E+00  1.404867513E+01 -4.771874119E+01  4.978052738E+01  1.168007728E-06  0.00000E+00  9.000E+00
       1     1     1     2   512     0 -1.136541129E+01 -4.930898790E+00  3.463553950E+02  3.465770547E+02  3.300000131E-01  0.00000E+00  9.000E+00
      21     1     1     2   515   511  1.327783721E+01 -9.117776337E+00 -7.375892016E+01  7.549710663E+01  1.348699152E-06  0.00000E+00  9.000E+00
</event>
<event>
      5  10001  2.40292E+09  1.37431E+01 -1.00000E+00  1.80991E-01
      21    -1     0     0   513   512  0.000000000E+00  0.000000000E+00  1.247006709E+02  1.247006709E+02  0.000000000E+00  0.00000E+00  9.000E+00
      21    -1     0     0   516   511  0.000000000E+00  0.000000000E+00 -1.529437127E+00  1.529437127E+00  0.000000000E+00  0.00000E+00  9.000E+00
      21     1     1     2   513   511 -6.204164979E+00  1.802914584E+00  1.228861007E+01  1.388351906E+01  4.129530925E-07  0.00000E+00  9.000E+00
      21     1     1     2   516   514  2.019616907E+00 -7.557842447E+00  8.884442743E+01  8.918818374E+01  0.000000000E+00  0.00000E+00  9.000E+00
      21     1     1     2   514   512  4.184548072E+00  5.754927863E+00  2.203819629E+01  2.315840523E+01  2.384185791E-07  0.00000E+00  9.000E+00
</event>
<event>
      5  10001  2.40292E+09  3.61831E+00 -1.00000E+00  2.74056E-01
      21    -1     0     0   515   511  0.000000000E+00  0.000000000E+00  1.274583085E+01  1.274583085E+01  0.000000000E+00  0.00000E+00  9.000E+00
      21    -1     0     0   513   515  0.000000000E+00  0.000000000E+00 -4.280071545E+02  4.280071545E+02  0.000000000E+00  0.00000E+00  9.000E+00
      21     1     1     2   512   517 -5.548112956E+00  8.244927007E+00 -1.779636366E+02  1.782408941E+02  3.303624740E-06  0.00000E+00  9.000E+00
      21     1     1     2   517   511  8.579728300E+00 -6.269710418E+00  1.035242041E+01  1.483555239E+01  7.725644944E-07  0.00000E+00  9.000E+00
      21     1     1     2   513   512 -3.031615344E+00 -1.975216589E+00 -2.476501075E+02  2.476765389E+02  2.697398305E-06  0.00000E+00  9.000E+00
</event>
<event>
      5  10001 -2.40292E+09  9.47880E+00 -1.00000E+00  1.98423E-01
      21    -1     0     0   511   516  0.000000000E+00  0.000000000E+00  6.281178617E+02  6.281178617E+02  0.000000000E+00  0.00000E+00  9.000E+00
      21    -1     0     0   513   514  0.000000000E+00  0.000000000E+00 -3.226299293E+01  3.226299293E+01  0.000000000E+00  0.00000E+00  9.000E+00
      21     1     1     2   513   512 -7.349334804E+00  4.899540902E+00 -3.132917916E+01  3.255050982E+01  2.158972058E-06  0.00000E+00  9.000E+00
      21     1     1     2   512   516  5.201523104E+00 -1.413179211E+01  5.227949259E+02  5.230117569E+02  0.000000000E+00  0.00000E+00  9.000E+00
      21     1     1     2   511   514  2.147811700E+00  9.232251211E+00  1.043891220E+02  1.048185878E+02  1.348699152E-06  0.00000E+00  9.000E+00
</event>
<event>
      5  10001  2.40292E+09  1.58397E+01 -1.00000E+00  1.75137E-01
      21    -1     0     0   515   512  0.000000000E+00  0.000000000E+00  6.302831851E+00  6.302831851E+00  0.000000000E+00  0.00000E+00  9.000E+00
      21    -1     0     0   513   517  0.000000000E+00  0.000000000E+00 -2.071799017E+02  2.071799017E+02  0.000000000E+00  0.00000E+00  9.000E+00
      21     1     1     2   515   517 -5.602722266E+00 -1.304257924E+01 -2.867387224E+00  1.448175678E+01  7.456538679E-07  0.00000E+00  9.000E+00
      21     1     1     2   513   516 -3.287323890E+00  9.350809761E+00 -8.316457165E+01  8.375314991E+01  1.348699152E-06  0.00000E+00  9.000E+00
      21     1     1     2   516   512  8.890046157E+00  3.691769475E+00 -1.148451109E+02  1.152478268E+02  1.348699152E-06  0.00000E+00  9.000E+00
</event>
<event>
      5  10001  2.40292E+09  7.10983E+00 -1.00000E+00  2.14532E-01
       1    -1     0     0   511     0  0.000000000E+00  0.000000000E+00  4.605648573E+01  4.605648573E+01  0.000000000E+00  0.00000E+00  9.000E+00
      21    -1     0     0   513   511  0.000000000E+00  0.000000000E+00 -7.191686299E+01  7.191686299E+01  0.000000000E+00  0.00000E+00  9.000E+00
      -3     1     1     2     0   512 -1.210951396E+01  3.195243174E+00 -1.379024148E+01  1.863519969E+01  5.000000000E-01  0.00000E+00  9.000E+00
       1     1     1     2   512     0  1.254518929E+01  3.900501612E+00  4.240712108E+01  4.439671728E+01  3.300000131E-01  0.00000E+00  9.000E+00
       3     1     1     2   513     0 -4.356753254E-01 -7.095744787E+00 -5.447725687E+01  5.494143175E+01  5.000000000E-01  0.00000E+00  9.000E+00
</event>
<event>
      5  10001  2.40292E+09  4.71146E+00 -1.00000E+00  2.47675E-01
       1    -1     0     0   514     0  0.000000000E+00  0.000000000E+00  4.667159418E+02  4.667159418E+02  0.000000000E+00  0.00000E+00  9.000E+00
      21    -1     0     0   513   515  0.000000000E+00  0.000000000E+00 -5.850400777E+00  5.850400777E+00  0.000000000E+00  0.00000E+00  9.000E+00
      21     1     1     2   514   515  3.176860475E+00 -1.302266563E+01  2.866732746E+01  3.164645203E+01  5.840038640E-07  0.00000E+00  9.000E+00
      21     1     1     2   513   512 -7.433600443E+00  1.100338495E+01  5.791532744E+00  1.448705447E+01  3.264680848E-07  0.00000E+00  9.000E+00
       1     1     1     2   512     0  4.256739968E+00  2.019280685E+00  4.264066808E+02  4.264328360E+02  3.300000131E-01  0.00000E+00  9.000E+00
</event>
<event>
      5  10001  2.40292E+09  6.06098E+00 -1.00000E+00  2.24714E-01
      21    -1     0     0   514   513  0.000000000E+00  0.000000000E+00  1.183288461E+01  1.183288461E+01  0.000000000E+00  0.00000E+00  9.000E+00
      21    -1     0     0   516   511  0.000000000E+00  0.000000000E+00 -5.636822866E+01  5.636822866E+01  0.000000000E+00  0.00000E+00  9.000E+00
      21     1     1     2   516   517 -4.203905228E-01  1.144529865E+01 -4.799928377E+01  4.934676110E+01  6.743495762E-07  0.00000E+00  9.000E+00
      21     1     1     2   517   513  6.077127786E+00 -9.268879839E+00 -1.280574717E+00  1.115721682E+01  3.650024150E-08  0.00000E+00  9.000E+00
      21     1     1     2   514   511 -5.656737263E+00 -2.176418808E+00  4.744514434E+00  7.697135344E+00  1.460009660E-07  0.00000E+00  9.000E+00
</event>
<event>
      5  10001  2.40292E+09  4.32768E+00 -1.00000E+00  2.55563E-01
      21    -1     0     0   512   513  0.000000000E+00  0.000000000E+00  1.490591505E+00  1.490591505E+00  0.000000000E+00  0.00000E+00  9.000E+00
      21    -1     0     0   515   512  0.000000000E+00  0.000000000E+00 -1.621379669E+02  1.621379669E+02  0.000000000E+00  0.00000E+00  9.000E+00
      21     1     1     2   511   513  3.178319878E+00  1.349730007E+01 -1.092035962E+02  1.100804445E+02  0.000000000E+00  0.00000E+00  9.000E+00
      21     1     1     2   515   516 -4.491720249E+00 -7.984778074E+00 -3.355747511E+01  3.478557700E+01  8.259061849E-07  0.00000E+00  9.000E+00
      21     1     1     2   516   511  1.313400370E+00 -5.512521991E+00 -1.788630410E+01  1.876253697E+01  0.000000000E+00  0.00000E+00  9.000E+00
</event>
<event>
      5  10001  2.40292E+09  4.13690E+00 -1.00000E+00  2.59968E-01
      21    -1     0     0   512   515  0.000000000E+00  0.000000000E+00  3.553721752E+00  3.553721752E+00  0.000000000E+00  0.00000E+00  9.000E+00
      21    -1     0     0   513   511  0.000000000E+00  0.000000000E+00 -1.245684076E+02  1.245684076E+02  0.000000000E+00  0.00000E+00  9.000E+00
      21     1     1     2   514   511 -2.916161871E-01 -1.002932710E+01 -1.033408693E+02  1.038268159E+02  1.907348633E-06  0.00000E+00  9.000E+00
      21     1     1     2   513   515 -3.293909399E+00  1.209280461E+01 -1.329290275E+01  1.826983924E+01  4.129530925E-07  0.00000E+00  9.000E+00
      21     1     1     2   512   514  3.585525587E+00 -2.063477512E+00 -4.380913797E+00  6.025474161E+00  5.960464478E-08  0.00000E+00  9.000E+00
</event>
<event>
      5  10001  2.40292E+09  3.58930E+00 -1.00000E+00  2.74954E-01
       2    -1     0     0   511     0  0.000000000E+00  0.000000000E+00  3.367722891E+00  3.367722891E+00  0.000000000E+00  0.00000E+00  9.000E+00
      21    -1     0     0   512   516  0.000000000E+00  0.000000000E+00 -3.286778273E+01  3.286778273E+01  0.000000000E+00  0.00000E+00  9.000E+00
      21     1     1     2   511   516  9.983445566E+00 -4.208656059E-01 -1.220941197E+01  1.577707368E+01  2.384185791E-07  0.00000E+00  9.000E+00
      21     1     1     2   512   513 -6.027062210E+00 -5.979308950E-01 -1.381532908E+01  1.508463847E+01  1.685873940E-07  0.00000E+00  9.000E+00
       2     1     1     2   513     0 -3.956383356E+00  1.018796501E+00 -3.475318792E+00  5.373793472E+00  3.300000131E-01  0.00000E+00  9.000E+00
</event>
<event>
      5  10001  2.40292E+09  1.27820E+01 -1.00000E+00  1.84139E-01
       2    -1     0     0   512     0  0.000000000E+00  0.000000000E+00  3.307939210E+02  3.307939210E+02  0.000000000E+00  0.00000E+00  9.000E+00
      21    -1     0     0   513   514  0.000000000E+00  0.000000000E+00 -5.841734569E-01  5.841734569E-01  0.000000000E+00  0.00000E+00  9.000E+00
      21     1     1     2   512   514  8.581517215E+00  2.909351443E+00  4.960859391E+01  5.042935012E+01  6.743495762E-07  0.00000E+00  9.000E+00
      21     1     1     2   513   511 -1.772538439E+00 -5.964068916E+00  1.001933084E+02  1.003863091E+02  1.348699152E-06  0.00000E+00  9.000E+00
       2     1     1     2   511     0 -6.808978777E+00  3.054717473E+00  1.804078452E+02  1.805624352E+02  3.300000131E-01  0.00000E+00  9.000E+00
</event>
<event>
      5  10001  2.40292E+09  9.56775E+00 -1.00000E+00  1.97942E-01
      21    -1     0     0   515   511  0.000000000E+00  0.000000000E+00  6.011629000E-01  6.011629000E-01  0.000000000E+00  0.00000E+00  9.000E+00
      21    -1     0     0   516   515  0.000000000E+00  0.000000000E+00 -3.304832228E+02  3.304832228E+02  0.000000000E+00  0.00000E+00  9.000E+00
      21     1     1     2   513   511 -8.250403971E+00  1.879935350E+00 -4.315174374E+01  4.397358651E+01  1.168007728E-06  0.00000E+00  9.000E+00
      21     1     1     2   512   513  7.842766292E+00 -5.997055125E+00 -1.540829036E+02  1.543988823E+02  2.697398305E-06  0.00000E+00  9.000E+00
      21     1     1     2   516   512  4.076376793E-01  4.117119775E+00 -1.326474125E+02  1.327119169E+02  2.697398305E-06  0.00000E+00  9.000E+00
</event>
<event>
      5  10001  2.40292E+09  1.72244E+01 -1.00000E+00  1.71862E-01
      -2    -1     0     0     0   514  0.000000000E+00  0.000000000E+00  3.301422178E+01  3.301422178E+01  0.000000000E+00  0.00000E+00  9.000E+00
      21    -1     0     0   513   512  0.000000000E+00  0.000000000E+00 -3.814035997E+00  3.814035997E+00  0.000000000E+00  0.00000E+00  9.000E+00
      -2     1     1     2     0   511 -3.630116030E+00  1.373185007E+00  2.599942188E+01  2.628958382E+01  3.300000131E-01  0.00000E+00  9.000E+00
      21     1     1     2   513   514  4.094296728E+00  1.224531974E+00  5.550655981E+00  7.005178519E+00  1.788139343E-07  0.00000E+00  9.000E+00
      21     1     1     2   511   512 -4.641806989E-01 -2.597716981E+00 -2.349892077E+00  3.533495438E+00  1.931411236E-07  0.00000E+00  9.000E+00
</event>
<event>
      5  10001  2.40292E+09  7.14531E+00 -1.00000E+00  2.14230E-01
      21    -1     0     0   515   511  0.000000000E+00  0.000000000E+00  3.649778724E+01  3.649778724E+01  0.000000000E+00  0.00000E+00  9.000E+00
      21    -1     0     0   516   515  0.000000000E+00  0.000000000E+00 -5.686898378E+00  5.686898378E+00  0.000000000E+00  0.00000E+00  9.000E+00
      21     1     1     2   516   512 -8.124450025E+00 -5.323997869E+00  5.058785199E-01  9.726641486E+00  2.015791723E-07  0.00000E+00  9.000E+00
       4     1     1     2   512     0  1.681935989E+00  4.321116105E+00  1.116099639E+01  1.217862034E+01  1.500000000E+00  0.00000E+00  9.000E+00
      -4     1     1     2     0   511  6.442514037E+00  1.002881764E+00  1.914401395E+01  2.027942379E+01  1.500000000E+00  0.00000E+00  9.000E+00
</event>
<event>
      5  10001  2.40292E+09  2.33303E+00 -1.00000E+00  3.34310E-01
      21    -1     0     0   513   511  0.000000000E+00  0.000000000E+00  3.862797576E+01  3.862797576E+01  0.000000000E+00  0.00000E+00  9.000E+00
      21    -1     0     0   512   514  0.000000000E+00  0.000000000E+00 -5.025171275E+01  5.025171275E+01  0.000000000E+00  0.00000E+00  9.000E+00
      21     1     1     2   512   511 -8.267953852E+00 -8.185876509E+00  3.640781631E+01  3.822167872E+01  6.743495762E-07  0.00000E+00  9.000E+00
       2     1     1     2   513     0  7.054067665E+00  6.193677589E+00 -1.610077648E+01  1.864042425E+01  3.300000131E-01  0.00000E+00  9.000E+00
      -2     1     1     2     0   514  1.213886187E+00  1.992198920E+00 -3.193077682E+01  3.201758555E+01  3.300000131E-01  0.00000E+00  9.000E+00
</event>
<event>
      5  10001  2.40292E+09  1.53451E+01 -1.00000E+00  1.76411E-01
      21    -1     0     0   515   511  0.000000000E+00  0.000000000E+00  6.938574245E+00  6.938574245E+00  0.000000000E+00  0.00000E+00  9.000E+00
      21    -1     0     0   516   515  0.000000000E+00  0.000000000E+00 -2.367337992E+02  2.367337992E+02  0.000000000E+00  0.00000E+00  9.000E+00
      21     1     1     2   516   512 -3.178455947E-01  1.041453628E+01 -2.309276445E+02  2.311625847E+02  3.814697266E-06  0.00000E+00  9.000E+00
      -1     1     1     2     0   511 -2.104272852E+00 -4.305917117E-01  4.457567028E-02  2.173536394E+00  3.300000131E-01  0.00000E+00  9.000E+00
       1     1     1     2   512     0  2.422118446E+00 -9.983944568E+00  1.087843897E+00  1.033625228E+01  3.300000131E-01  0.00000E+00  9.000E+00
</event>
<event>
      5  10001  2.40292E+09  7.30293E+00 -1.00000E+00  2.12916E-01
      21    -1     0     0   513   511  0.000000000E+00  0.000000000E+00  1.783583394E+01  1.783583394E+01  0.000000000E+00  0.00000E+00  9.000E+00
      21    -1     0     0   514   513  0.000000000E+00  0.000000000E+00 -1.025299607E+02  1.025299607E+02  0.000000000E+00  0.00000E+00  9.000E+00
      21     1     1     2   517   511 -3.657978391E+00  1.157133032E+01  1.445924339E+01  1.887713460E+01  4.460403188E-07  0.00000E+00  9.000E+00
      21     1     1     2   515   517 -1.428788625E+00 -8.141466134E+00 -9.052446276E+01  9.090106306E+01  1.348699152E-06  0.00000E+00  9.000E+00
      21     1     1     2   514   515  5.086767016E+00 -3.429864183E+00 -8.628907368E+00  1.058759696E+01  1.192092896E-07  0.00000E+00  9.000E+00
</event>
<event>
      5  10001  2.40292E+09  8.97080E+00 -1.00000E+00  2.01311E-01
      21    -1     0     0   512   514  0.000000000E+00  0.000000000E+00  2.747664553E+02  2.747664553E+02  0.000000000E+00  0.00000E+00  9.000E+00
      21    -1     0     0   511   516  0.000000000E+00  0.000000000E+00 -6.329784628E+00  6.329784628E+00  0.000000000E+00  0.00000E+00  9.000E+00
      21     1     1     2   512   516 -7.605033274E-01 -1.199556057E+01  2.676986098E+02  2.679683144E+02  3.814697266E-06  0.00000E+00  9.000E+00
      21     1     1     2   511   513 -8.099629803E-01  4.948236050E+00  2.632779622E+00  5.663268365E+00  2.289159819E-07  0.00000E+00  9.000E+00
      21     1     1     2   513   514  1.570466308E+00  7.047324520E+00 -1.894718748E+00  7.464657155E+00  5.347835554E-07  0.00000E+00  9.000E+00
</event>
<event>
      5  10001  2.40292E+09  1.60364E+01 -1.00000E+00  1.74647E-01
      21    -1     0     0   515   511  0.000000000E+00  0.000000000E+00  1.223925914E+01  1.223925914E+01  0.000000000E+00  0.00000E+00  9.000E+00
      21    -1     0     0   517   514  0.000000000E+00  0.000000000E+00 -5.186500485E+01  5.186500485E+01  0.000000000E+00  0.00000E+00  9.000E+00
      21     1     1     2   515   514 -2.182539291E+00  1.228004977E+01 -4.579161863E+01  4.745982972E+01  9.536743164E-07  0.00000E+00  9.000E+00
      21     1     1     2   512   511  4.151419879E+00 -3.224301047E+00 -4.231889901E-01  5.273470696E+00  5.424104548E-08  0.00000E+00  9.000E+00
      21     1     1     2   517   512 -1.968880589E+00 -9.055748724E+00  6.589061909E+00  1.137096357E+01  1.192092896E-07  0.00000E+00  9.000E+00
</event>
<event>
      5  10001  2.40292E+09  3.38000E+00 -1.00000E+00  2.81862E-01
      21    -1     0     0   513   511  0.000000000E+00  0.000000000E+00  2.515941665E-01  2.515941665E-01  0.000000000E+00  0.00000E+00  9.000E+00
       2    -1     0     0   512     0  0.000000000E+00  0.000000000E+00 -8.168996174E+02  8.168996174E+02  0.000000000E+00  0.00000E+00  9.000E+00
      21     1     1     2   514   511 -9.211794798E+00  7.330584257E+00 -1.848813930E+02  1.852558343E+02  2.697398305E-06  0.00000E+00  9.000E+00
       2     1     1     2   513     0  7.391046476E+00 -7.045515879E+00 -5.895819802E+02  5.896704903E+02  3.300000131E-01  0.00000E+00  9.000E+00
      21     1     1     2   512   514  1.820748323E+00 -2.850683779E-01 -4.218465003E+01  4.222488705E+01  6.743495762E-07  0.00000E+00  9.000E+00
</event>
<event>
      5  10001  2.40292E+09  7.16003E+00 -1.00000E+00  2.14105E-01
      21    -1     0     0   515   511  0.000000000E+00  0.000000000E+00  2.311462737E+01  2.311462737E+01  0.000000000E+00  0.00000E+00  9.000E+00
       1    -1     0     0   511     0  0.000000000E+00  0.000000000E+00 -5.109445868E+01  5.109445868E+01  0.000000000E+00  0.00000E+00  9.000E+00
      21     1     1     2   515   512  1.919596793E+00 -1.210877885E+01  1.852279524E+01  2.221263876E+01  2.384185791E-07  0.00000E+00  9.000E+00
      21     1     1     2   512   513  7.038587895E-01  9.636234352E+00 -4.731076239E+01  4.828727232E+01  9.536743164E-07  0.00000E+00  9.000E+00
       1     1     1     2   513     0 -2.623455583E+00  2.472544496E+00  8.081358383E-01  3.709174979E+00  3.300000131E-01  0.00000E+00  9.000E+00
</event>
<event>
      5  10001  2.40292E+09  4.39812E+00 -1.00000E+00  2.54024E-01
       2    -1     0     0   512     0  0.000000000E+00  0.000000000E+00  6.050113293E+01  6.050113293E+01  0.000000000E+00  0.00000E+00  9.000E+00
      21    -1     0     0   513   514  0.000000000E+00  0.000000000E+00 -2.292069183E+01  2.292069183E+01  0.000000000E+00  0.00000E+00  9.000E+00
      21     1     1     2   512   514 -8.942874254E+00 -4.552567038E+00 -2.008213033E+01  2.244978452E+01  4.768371582E-07  0.00000E+00  9.000E+00
       2     1     1     2   511     0  9.371626233E+00  2.779093259E+00  5.824212724E+01  5.905764153E+01  3.300000131E-01  0.00000E+00  9.000E+00
      21     1     1     2   513   511 -4.287519796E-01  1.773473779E+00 -5.795558088E-01  1.914398715E+00  6.006850115E-08  0.00000E+00  9.000E+00
</event>
<event>
      5  10001  2.40292E+09  8.12049E+00 -1.00000E+00  2.06760E-01
      21    -1     0     0   515   511  0.000000000E+00  0.000000000E+00  1.184788222E+01  1.184788222E+01  0.000000000E+00  0.00000E+00  9.000E+00
      21    -1     0     0   513   515  0.000000000E+00  0.000000000E+00 -3.341048669E+01  3.341048669E+01  0.000000000E+00  0.00000E+00  9.000E+00
      21     1     1     2   513   516  1.439456948E+00 -1.095559404E+01 -2.898782457E+01  3.102242818E+01  3.371747881E-07  0.00000E+00  9.000E+00
      21     1     1     2   512   511 -2.412965484E+00  2.032958507E+00  2.249505833E+00  3.874996672E+00  9.424321831E-08  0.00000E+00  9.000E+00
      21     1     1     2   516   512  9.735085356E-01  8.922635530E+00  5.175714262E+00  1.036094406E+01  3.097148194E-07  0.00000E+00  9.000E+00
</event>
<event>
      5  10001  2.40292E+09  1.29490E+01 -1.00000E+00  1.83567E-01
       2    -1     0     0   515     0  0.000000000E+00  0.000000000E+00  7.392343498E+02  7.392343498E+02  0.000000000E+00  0.00000E+00  9.000E+00
      21    -1     0     0   512   515  0.000000000E+00  0.000000000E+00 -2.788550349E+00  2.788550349E+00  0.000000000E+00  0.00000E+00  9.000E+00
      21     1     1     2   512   511 -2.008257725E+00 -6.731609771E+00  3.799015377E+00  7.986249873E+00  5.075152625E-07  0.00000E+00  9.000E+00
       2     1     1     2   514     0  1.354184969E+01  6.014550035E+00  6.788933013E+02  6.790550640E+02  3.300000131E-01  0.00000E+00  9.000E+00
      21     1     1     2   511   514 -1.153359197E+01  7.170597361E-01  5.375348281E+01  5.498158630E+01  6.743495762E-07  0.00000E+00  9.000E+00
</event>
<event>
      5  10001  2.40292E+09  4.71248E+00 -1.00000E+00  2.47656E-01
      21    -1     0     0   513   511  0.000000000E+00  0.000000000E+00  3.458678912E+00  3.458678912E+00  0.000000000E+00  0.00000E+00  9.000E+00
      21    -1     0     0   516   513  0.000000000E+00  0.000000000E+00 -2.379451170E+02  2.379451170E+02  0.000000000E+00  0.00000E+00  9.000E+00
      21     1     1     2   516   512  2.336233913E+00 -9.687500859E+00 -2.262380122E+02  2.264573775E+02  2.697398305E-06  0.00000E+00  9.000E+00
      21     1     1     2   512   515  3.696160341E-01  9.603940091E+00 -7.331735986E+00  1.208828498E+01  5.057621821E-07  0.00000E+00  9.000E+00
      21     1     1     2   515   511 -2.705849947E+00  8.356076756E-02 -9.166899157E-01  2.858133437E+00  6.664001875E-08  0.00000E+00  9.000E+00
</event>
<event>
      5  10001  2.40292E+09  7.98417E+00 -1.00000E+00  2.07717E-01
       1    -1     0     0   512     0  0.000000000E+00  0.000000000E+00  2.228945742E+02  2.228945742E+02  0.000000000E+00  0.00000E+00  9.000E+00
      21    -1     0     0   516   513  0.000000000E+00  0.000000000E+00 -4.270829199E+00  4.270829199E+00  0.000000000E+00  0.00000E+00  9.000E+00
      21     1     1     2   512   513  5.405125797E+00  8.478504580E+00  2.129744868E+01  2.355168243E+01  8.259061849E-07  0.00000E+00  9.000E+00
       1     1     1     2   514     0  1.156915688E+00 -1.302632003E+01  1.948012718E+02  1.952400263E+02  3.300000131E-01  0.00000E+00  9.000E+00
      21     1     1     2   516   514 -6.562041485E+00  4.547815446E+00  2.525024503E+00  8.373694676E+00  1.884864366E-07  0.00000E+00  9.000E+00
</event>
<event>
      5  10001  2.40292E+09  4.38339E+00 -1.00000E+00  2.54342E-01
      -3    -1     0     0     0   511  0.000000000E+00  0.000000000E+00  9.071341734E+00  9.071341734E+00  0.000000000E+00  0.00000E+00  9.000E+00
      21    -1     0     0   512   514  0.000000000E+00  0.000000000E+00 -4.664778633E+01  4.664778633E+01  0.000000000E+00  0.00000E+00  9.000E+00
      -3     1     1     2     0   513 -1.131683724E+01  8.677114926E+00 -3.876403012E+00  1.478646776E+01  5.000000000E-01  0.00000E+00  9.000E+00
      21     1     1     2   512   511  1.191509912E+01 -1.351727977E+01 -2.910845356E+01  3.423431770E+01  4.768371582E-07  0.00000E+00  9.000E+00
      21     1     1     2   513   514 -5.982618816E-01  4.840164847E+00 -4.591588020E+00  6.698342599E+00  1.192092896E-07  0.00000E+00  9.000E+00
</event>
<event>
      5  10001  2.40292E+09  4.98286E+00 -1.00000E+00  2.42750E-01
      21    -1     0     0   512   511  0.000000000E+00  0.000000000E+00  5.651645042E-01  5.651645042E-01  0.000000000E+00  0.00000E+00  9.000E+00
       2    -1     0     0   511     0  0.000000000E+00  0.000000000E+00 -5.240620799E+02  5.240620799E+02  0.000000000E+00  0.00000E+00  9.000E+00
      21     1     1     2   516   515 -4.085514439E-01  1.164788210E+01 -1.261222068E+02  1.266595876E+02  2.697398305E-06  0.00000E+00  9.000E+00
       2     1     1     2   515     0  4.056238795E-01 -1.639070302E+01 -2.641525491E+02  2.646610998E+02  3.300000131E-01  0.00000E+00  9.000E+00
      21     1     1     2   512   516  2.927564353E-03  4.742820925E+00 -1.332221595E+02  1.333065570E+02  1.907348633E-06  0.00000E+00  9.000E+00
</event>
<event>
      5  10001  2.40292E+09  9.35208E+00 -1.00000E+00  1.99121E-01
      21    -1     0     0   515   511  0.000000000E+00  0.000000000E+00  4.041165581E+02  4.041165581E+02  0.000000000E+00  0.00000E+00  9.000E+00
       1    -1     0     0   511     0  0.000000000E+00  0.000000000E+00 -9.455770974E+02  9.455770974E+02  0.000000000E+00  0.00000E+00  9.000E+00
      21     1     1     2   514   513  2.035365887E+00  1.603761693E+01  3.989369759E+02  3.992643969E+02  1.206313194E-05  0.00000E+00  9.000E+00
       1     1     1     2   513     0 -8.540646247E+00 -9.318783115E+00 -9.409744435E+02  9.410594002E+02  3.300000131E-01  0.00000E+00  9.000E+00
      21     1     1     2   515   514  6.505280360E+00 -6.718833813E+00  5.769284215E-01  9.369858418E+00  2.112604213E-07  0.00000E+00  9.000E+00
</event>
<event>
      5  10001  2.40292E+09  2.48383E+01 -1.00000E+00  1.58924E-01
      21    -1     0     0   512   511  0.000000000E+00  0.000000000E+00  2.842999065E+01  2.842999065E+01  0.000000000E+00  0.00000E+00  9.000E+00
       2    -1     0     0   513     0  0.000000000E+00  0.000000000E+00 -1.284928792E+01  1.284928792E+01  0.000000000E+00  0.00000E+00  9.000E+00
      21     1     1     2   513   511 -8.512137992E+00 -2.326633606E+00 -4.649631823E+00  9.974406911E+00  2.308477966E-07  0.00000E+00  9.000E+00
       2     1     1     2   516     0 -2.556429523E+00  1.003918203E+01  9.627245705E+00  1.414613967E+01  3.300000131E-01  0.00000E+00  9.000E+00
      21     1     1     2   512   516  1.106856752E+01 -7.712548424E+00  1.060308885E+01  1.715873198E+01  2.064765462E-07  0.00000E+00  9.000E+00
</event>
<event>
      5  10001  2.40292E+09  6.22222E+00 -1.00000E+00  2.22970E-01
      21    -1     0     0   514   513  0.000000000E+00  0.000000000E+00  3.834355278E+01  3.834355278E+01  0.000000000E+00  0.00000E+00  9.000E+00
      21    -1     0     0   511   515  0.000000000E+00  0.000000000E+00 -2.759615691E+01  2.759615691E+01  0.000000000E+00  0.00000E+00  9.000E+00
      21     1     1     2   514   515  6.785641902E+00  8.136281262E+00  3.532824303E+01  3.688263499E+01  4.768371582E-07  0.00000E+00  9.000E+00
      21     1     1     2   517   513 -2.437463026E+00 -3.334765048E+00 -2.148335467E+01  2.187684647E+01  4.129530925E-07  0.00000E+00  9.000E+00
      21     1     1     2   511   517 -4.348178876E+00 -4.801516214E+00 -3.097492490E+00  7.180228215E+00  9.424321831E-08  0.00000E+00  9.000E+00
</event>
<event>
      5  10001 -2.40292E+09  5.08834E+00 -1.00000E+00  2.37108E-01
      21    -1     0     0   512   513  0.000000000E+00  0.000000000E+00  5.129758823E+02  5.129758823E+02  0.000000000E+00  0.00000E+00  9.000E+00
      21    -1     0     0   511   514  0.000000000E+00  0.000000000E+00 -1.674630283E+02  1.674630283E+02  0.000000000E+00  0.00000E+00  9.000E+00
      21     1     1     2   516   513 -4.824845231E+00  6.707787307E+00  5.112877276E+02  5.113544895E+02  9.344061824E-06  0.00000E+00  9.000E+00
      21     1     1     2   511   516  3.811796622E+00 -1.169426070E+01 -2.188460560E+01  2.510421258E+01  8.596304120E-07  0.00000E+00  9.000E+00
      21     1     1     2   512   514  1.013048609E+00  4.986473396E+00 -1.438902681E+02  1.439802085E+02  2.697398305E-06  0.00000E+00  9.000E+00
</event>
<event>
      5  10001  2.40292E+09  6.88011E+00 -1.00000E+00  2.16547E-01
      21    -1     0     0   513   514  0.000000000E+00  0.000000000E+00  5.002608346E+01  5.002608346E+01  0.000000000E+00  0.00000E+00  9.000E+00
      21    -1     0     0   517   515  0.000000000E+00  0.000000000E+00 -2.870275732E+01  2.870275732E+01  0.000000000E+00  0.00000E+00  9.000E+00
      21     1     1     2   511   514 -4.020951631E+00 -9.499848134E+00  2.206206370E+00  1.054905271E+01  3.345302391E-07  0.00000E+00  9.000E+00
      21     1     1     2   517   511  5.660782135E+00  1.618167858E+01 -2.120892361E+01  2.727103989E+01  3.371747881E-07  0.00000E+00  9.000E+00
      21     1     1     2   513   515 -1.639830504E+00 -6.681830450E+00  4.032604338E+01  4.090874817E+01  0.000000000E+00  0.00000E+00  9.000E+00
</event>
<event>
      5  10001  2.40292E+09  1.86832E+01 -1.00000E+00  1.68804E-01
      21    -1     0     0   512   515  0.000000000E+00  0.000000000E+00  1.545701311E+01  1.545701311E+01  0.000000000E+00  0.00000E+00  9.000E+00
      21    -1     0     0   514   516  0.000000000E+00  0.000000000E+00 -8.589198709E+00  8.589198709E+00  0.000000000E+00  0.00000E+00  9.000E+00
      21     1     1     2   512   516  1.972948485E+00 -6.409260037E+00  5.894311566E+00  8.928272441E+00  1.884864366E-07  0.00000E+00  9.000E+00
      21     1     1     2   511   515  5.155878858E+00  7.664951266E-01  2.689679293E+00  5.865575529E+00  6.664001875E-08  0.00000E+00  9.000E+00
      21     1     1     2   514   511 -7.128827344E+00  5.642764910E+00 -1.716176460E+00  9.252363848E+00  3.075565016E-07  0.00000E+00  9.000E+00
</event>
<event>
      5  10001  2.40292E+09  4.74085E+00 -1.00000E+00  2.47118E-01
      21    -1     0     0   513   511  0.000000000E+00  0.000000000E+00  1.755716471E+02  1.755716471E+02  0.000000000E+00  0.00000E+00  9.000E+00
       1    -1     0     0   514     0  0.000000000E+00  0.000000000E+00 -1.059602915E+00  1.059602915E+00  0.000000000E+00  0.00000E+00  9.000E+00
      21     1     1     2   514   512 -7.813887595E+00  2.420125259E-01  8.264247164E+01  8.301140601E+01  0.000000000E+00  0.00000E+00  9.000E+00
       1     1     1     2   513     0  9.375236484E+00  2.286146567E+00  2.686650988E+01  2.854890153E+01  3.300000131E-01  0.00000E+00  9.000E+00
      21     1     1     2   512   511 -1.561348889E+00 -2.528159093E+00  6.500306271E+01  6.507094252E+01  9.536743164E-07  0.00000E+00  9.000E+00
</event>
<event>
      5  10001  2.40292E+09  1.07466E+01 -1.00000E+00  1.92154E-01
      21    -1     0     0   513   514  0.000000000E+00  0.000000000E+00  2.307802070E+02  2.307802070E+02  0.000000000E+00  0.00000E+00  9.000E+00
      21    -1     0     0   512   511  0.000000000E+00  0.000000000E+00 -5.071914506E+00  5.071914506E+00  0.000000000E+00  0.00000E+00  9.000E+00
      21     1     1     2   515   511 -2.235419527E+01  1.674026487E+00  2.588295907E+01  3.424091093E+01  3.371747881E-07  0.00000E+00  9.000E+00
      21     1     1     2   512   514  1.236335045E+01 -5.633000038E+00  1.513687841E+02  1.519772743E+02  1.907348633E-06  0.00000E+00  9.000E+00
      21     1     1     2   513   515  9.990844823E+00  3.958973551E+00  4.845654938E+01  4.963393627E+01  0.000000000E+00  0.00000E+00  9.000E+00
</event>
<event>
      5  10001  2.40292E+09  4.96434E+00 -1.00000E+00  2.43071E-01
       1    -1     0     0   511     0  0.000000000E+00  0.000000000E+00  4.025429672E+02  4.025429672E+02  0.000000000E+00  0.00000E+00  9.000E+00
      21    -1     0     0   513   516  0.000000000E+00  0.000000000E+00 -8.030012574E-01  8.030012574E-01  0.000000000E+00  0.00000E+00  9.000E+00
      21     1     1     2   511   516  5.999078003E+00  8.723472148E+00  4.074349596E+01  4.209656003E+01  6.743495762E-07  0.00000E+00  9.000E+00
       1     1     1     2   512     0 -2.835788535E+00 -4.996506534E+00  3.007142266E+02  3.007692833E+02  3.300000131E-01  0.00000E+00  9.000E+00
      21     1     1     2   513   512 -3.163289468E+00 -3.726965615E+00  6.028224336E+01  6.048012515E+01  0.000000000E+00  0.00000E+00  9.000E+00
</event>
<event>
      5  10001  2.40292E+09  4.17912E+00 -1.00000E+00  2.58962E-01
      21    -1     0     0   514   512  0.000000000E+00  0.000000000E+00  5.911307595E+01  5.911307595E+01  0.000000000E+00  0.00000E+00  9.000E+00
      21    -1     0     0   513   511  0.000000000E+00  0.000000000E+00 -5.830560934E+00  5.830560934E+00  0.000000000E+00  0.00000E+00  9.000E+00
      21     1     1     2   514   515 -1.971387066E+00  1.212905672E+01  1.048600853E+01  1.615415609E+01  3.153981341E-07  0.00000E+00  9.000E+00
      21     1     1     2   513   512 -2.102431277E+00 -1.119684104E+01  4.311833959E+01  4.459798959E+01  4.768371582E-07  0.00000E+00  9.000E+00
      21     1     1     2   515   511  4.073818343E+00 -9.322156747E-01 -3.218331109E-01  4.191491204E+00  2.471078031E-08  0.00000E+00  9.000E+00
</event>
<event>
      5  10001  2.40292E+09  9.26365E+00 -1.00000E+00  1.99616E-01
      21    -1     0     0   516   511  0.000000000E+00  0.000000000E+00  4.968500411E+00  4.968500411E+00  0.000000000E+00  0.00000E+00  9.000E+00
      21    -1     0     0   515   517  0.000000000E+00  0.000000000E+00 -6.178215267E+01  6.178215267E+01  0.000000000E+00  0.00000E+00  9.000E+00
      21     1     1     2   516   517 -6.999848355E+00 -1.412283361E+01 -2.927480028E+01  3.324855242E+01  7.539457465E-07  0.00000E+00  9.000E+00
      21     1     1     2   512   511  3.250171901E+00  8.396850788E+00 -5.797812174E+00  1.070912445E+01  1.884864366E-07  0.00000E+00  9.000E+00
      21     1     1     2   515   512  3.749676454E+00  5.725982825E+00 -2.174103980E+01  2.279297621E+01  2.384185791E-07  0.00000E+00  9.000E+00
</event>
<event>
      5  10001  2.40292E+09  1.19275E+01 -1.00000E+00  1.87252E-01
      21    -1     0     0   513   511  0.000000000E+00  0.000000000E+00  6.850497973E+01  6.850497973E+01  0.000000000E+00  0.00000E+00  9.000E+00
      21    -1     0     0   514   513  0.000000000E+00  0.000000000E+00 -9.329790440E+01  9.329790440E+01  0.000000000E+00  0.00000E+00  9.000E+00
      21     1     1     2   514   515 -1.587612128E+00 -5.316395090E+00 -8.682612495E+01  8.700322145E+01  9.536743164E-07  0.00000E+00  9.000E+00
      21     1     1     2   515   512 -4.182215968E+00  1.575545982E+01  5.779422494E+00  1.729529326E+01  6.690604782E-07  0.00000E+00  9.000E+00
      21     1     1     2   512   511  5.769828096E+00 -1.043906473E+01  5.625377779E+01  5.750436943E+01  1.168007728E-06  0.00000E+00  9.000E+00
</event>
<event>
      5  10001  2.40292E+09  1.14806E+01 -1.00000E+00  1.89017E-01
      21    -1     0     0   516   515  0.000000000E+00  0.000000000E+00  7.863875452E+00  7.863875452E+00  0.000000000E+00  0.00000E+00  9.000E+00
      21    -1     0     0   514   511  0.000000000E+00  0.000000000E+00 -4.379551403E+01  4.379551403E+01  0.000000000E+00  0.00000E+00  9.000E+00
      21     1     1     2   516   511  7.750746401E+00  7.410888538E+00 -1.763199851E-03  1.072358810E+01  1.959043252E-07  0.00000E+00  9.000E+00
      21     1     1     2   513   515 -8.158872381E-01 -8.079606575E+00 -3.183516849E+01  3.285458366E+01  0.000000000E+00  0.00000E+00  9.000E+00
      21     1     1     2   514   513 -6.934859163E+00  6.687180364E-01 -4.094706890E+00  8.081217726E+00  5.960464478E-08  0.00000E+00  9.000E+00
</event>
<event>
      5  10001  2.40292E+09  5.36585E+00 -1.00000E+00  2.33196E-01
       2    -1     0     0   511     0  0.000000000E+00  0.000000000E+00  6.557435722E+01  6.557435722E+01  0.000000000E+00  0.00000E+00  9.000E+00
      21    -1     0     0   513   511  0.000000000E+00  0.000000000E+00 -6.747752613E+00  6.747752613E+00  0.000000000E+00  0.00000E+00  9.000E+00
      21     1     1     2   513   512 -9.152717892E+00 -2.876106748E+00 -2.173415901E+00  9.837071287E+00  1.074538015E-07  0.00000E+00  9.000E+00
       2     1     1     2   515     0  5.440983918E+00  5.624928971E+00  4.908651731E+01  4.970753679E+01  3.300000131E-01  0.00000E+00  9.000E+00
      21     1     1     2   512   515  3.711733974E+00 -2.748822223E+00  1.191350319E+01  1.277750175E+01  0.000000000E+00  0.00000E+00  9.000E+00
</event>
<event>
      5  10001  2.40292E+09  8.21837E+00 -1.00000E+00  2.06088E-01
       1    -1     0     0   514     0  0.000000000E+00  0.000000000E+00  3.888095862E+02  3.888095862E+02  0.000000000E+00  0.00000E+00  9.000E+00
      -3    -1     0     0     0   514  0.000000000E+00  0.000000000E+00 -1.211528532E+00  1.211528532E+00  0.000000000E+00  0.00000E+00  9.000E+00
      -3     1     1     2     0   511 -1.681429407E+00  9.973032860E+00  3.805965545E+01  3.938370174E+01  5.000000000E-01  0.00000E+00  9.000E+00
      21     1     1     2   511   513  7.630600059E-01 -1.813729131E+01  1.835569704E+02  1.844524464E+02  2.697398305E-06  0.00000E+00  9.000E+00
       1     1     1     2   513     0  9.183694007E-01  8.164258448E+00  1.659814318E+02  1.661849666E+02  3.300000131E-01  0.00000E+00  9.000E+00
</event>
<event>
      5  10001  2.40292E+09  9.55286E+00 -1.00000E+00  1.98022E-01
      21    -1     0     0   512   513  0.000000000E+00  0.000000000E+00  1.075567913E+02  1.075567913E+02  0.000000000E+00  0.00000E+00  9.000E+00
      21    -1     0     0   515   512  0.000000000E+00  0.000000000E+00 -2.383478892E+01  2.383478892E+01  0.000000000E+00  0.00000E+00  9.000E+00
      21     1     1     2   516   513 -1.295242089E+01  5.748736856E+00  1.018671450E+02  1.028480842E+02  0.000000000E+00  0.00000E+00  9.000E+00
      21     1     1     2   515   511  4.272516559E+00 -8.214194265E+00 -1.711849271E+01  1.946201885E+01  7.152557373E-07  0.00000E+00  9.000E+00
      21     1     1     2   511   516  8.679904327E+00  2.465457409E+00 -1.026649874E+00  9.081477265E+00  2.870166344E-07  0.00000E+00  9.000E+00
</event>
<event>
      5  10001  2.40292E+09  1.50460E+01 -1.00000E+00  1.77211E-01
      21    -1     0     0   514   513  0.000000000E+00  0.000000000E+00  5.474958732E+00  5.474958732E+00  0.000000000E+00  0.00000E+00  9.000E+00
      21    -1     0     0   517   514  0.000000000E+00  0.000000000E+00 -1.295599789E+02  1.295599789E+02  0.000000000E+00  0.00000E+00  9.000E+00
      21     1     1     2   517   516  8.852524070E+00 -6.413598856E+00 -1.175958759E+02  1.181028851E+02  2.336015456E-06  0.00000E+00  9.000E+00
       4     1     1     2   516     0 -7.209732520E+00  9.977222085E-03 -6.965262130E+00  1.013633164E+01  1.500000000E+00  0.00000E+00  9.000E+00
      -4     1     1     2     0   513 -1.642791549E+00  6.403621634E+00  4.761179009E-01  6.795720886E+00  1.500000000E+00  0.00000E+00  9.000E+00
</event>
<event>
      5  10001  2.40292E+09  1.03116E+01 -1.00000E+00  1.94172E-01
      21    -1     0     0   511   515  0.000000000E+00  0.000000000E+00  6.606160349E+00  6.606160349E+00  0.000000000E+00  0.00000E+00  9.000E+00
       1    -1     0     0   512     0  0.000000000E+00  0.000000000E+00 -1.004283320E+03  1.004283320E+03  0.000000000E+00  0.00000E+00  9.000E+00
      21     1     1     2   512   513 -2.047175061E+01 -4.701731257E-01 -5.072644760E+02  5.076776165E+02  1.206313194E-05  0.00000E+00  9.000E+00
      21     1     1     2   513   515  1.773121219E+01  1.041084095E+01 -1.031605910E+01  2.300440328E+01  8.920806376E-07  0.00000E+00  9.000E+00
       1     1     1     2   511     0  2.740538425E+00 -9.940667820E+00 -4.800966241E+02  4.802074601E+02  3.300000131E-01  0.00000E+00  9.000E+00
</event>
<event>
      5  10001  2.40292E+09  9.97286E+00 -1.00000E+00  1.95835E-01
      21    -1     0     0   514   513  0.000000000E+00  0.000000000E+00  1.149184665E+01  1.149184665E+01  0.000000000E+00  0.00000E+00  9.000E+00
      21    -1     0     0   512   516  0.000000000E+00  0.000000000E+00 -3.033291775E+01  3.033291775E+01  0.000000000E+00  0.00000E+00  9.000E+00
      21     1     1     2   514   516  1.176872966E+01 -1.043809480E+01 -3.561835690E+00  1.612896446E+01  1.632340424E-07  0.00000E+00  9.000E+00
      21     1     1     2   515   513 -4.447113566E+00  1.213768615E+01 -1.141005943E+01  1.724209096E+01  0.000000000E+00  0.00000E+00  9.000E+00
      21     1     1     2   512   515 -7.321616095E+00 -1.699591350E+00 -3.869175967E+00  8.453708989E+00  1.192092896E-07  0.00000E+00  9.000E+00
</event>
<event>
      5  10001  2.40292E+09  8.84742E+00 -1.00000E+00  2.02051E-01
      21    -1     0     0   511   515  0.000000000E+00  0.000000000E+00  4.857462558E-01  4.857462558E-01  0.000000000E+00  0.00000E+00  9.000E+00
      21    -1     0     0   512   511  0.000000000E+00  0.000000000E+00 -2.268393777E+02  2.268393777E+02  0.000000000E+00  0.00000E+00  9.000E+00
      21     1     1     2   512   517 -1.421405390E+00  6.575451729E+00 -6.014427814E+01  6.051934527E+01  9.536743164E-07  0.00000E+00  9.000E+00
      21     1     1     2   513   515 -1.513083040E+00 -9.117479877E+00 -8.443495983E+01  8.493927420E+01  1.348699152E-06  0.00000E+00  9.000E+00
      21     1     1     2   517   513  2.934488430E+00  2.542028148E+00 -8.177439347E+01  8.186650449E+01  9.536743164E-07  0.00000E+00  9.000E+00
</event>
<event>
      5  10001  2.40292E+09  1.59790E+00 -1.00000E+00  4.15383E-01
       3    -1     0     0   513     0  0.000000000E+00  0.000000000E+00  5.173270206E+02  5.173270206E+02  0.000000000E+00  0.00000E+00  9.000E+00
      21    -1     0     0   514   511  0.000000000E+00  0.000000000E+00 -3.329519462E-01  3.329519462E-01  0.000000000E+00  0.00000E+00  9.000E+00
      21     1     1     2   513   511 -8.708493104E-01 -1.051033817E+01  3.918005752E+02  3.919424911E+02  7.629394531E-06  0.00000E+00  9.000E+00
       3     1     1     2   512     0  5.911953448E-01  9.123636792E+00  8.360058516E+01  8.410052378E+01  5.000000000E-01  0.00000E+00  9.000E+00
      21     1     1     2   514   512  2.796539656E-01  1.386701383E+00  4.159290829E+01  4.161695768E+01  4.768371582E-07  0.00000E+00  9.000E+00
</event>
<event>
      5  10001  2.40292E+09  9.88653E+00 -1.00000E+00  1.96273E-01
      21    -1     0     0   514   512  0.000000000E+00  0.000000000E+00  1.931832890E+01  1.931832890E+01  0.000000000E+00  0.00000E+00  9.000E+00
      -1    -1     0     0     0   515  0.000000000E+00  0.000000000E+00 -1.389278441E+01  1.389278441E+01  0.000000000E+00  0.00000E+00  9.000E+00
      21     1     1     2   511   512  2.213000219E+00  5.145175989E+00  8.545138110E+00  1.021712245E+01  2.064765462E-07  0.00000E+00  9.000E+00
      21     1     1     2   514   515 -5.060178557E+00 -1.324915655E+01 -2.119849541E+00  1.434012965E+01  2.580956828E-07  0.00000E+00  9.000E+00
      -1     1     1     2     0   511  2.847178338E+00  8.103980560E+00 -9.997440806E-01  8.653861198E+00  3.300000131E-01  0.00000E+00  9.000E+00
</event>
<event>
      5  10001  2.40292E+09  4.76105E+00 -1.00000E+00  2.46739E-01
       2    -1     0     0   511     0  0.000000000E+00  0.000000000E+00  2.935648402E+02  2.935648402E+02  0.000000000E+00  0.00000E+00  9.000E+00
       3    -1     0     0   513     0  0.000000000E+00  0.000000000E+00 -3.219467555E+00  3.219467555E+00  0.000000000E+00  0.00000E+00  9.000E+00
       2     1     1     2   513     0 -3.279138093E+00  1.163583324E+01  2.791965439E+02  2.794583411E+02  3.300000131E-01  0.00000E+00  9.000E+00
      21     1     1     2   511   512  3.853085456E+00 -8.121468180E+00  1.022263924E+01  1.361274645E+01  2.665600750E-07  0.00000E+00  9.000E+00
       3     1     1     2   512     0 -5.739473627E-01 -3.514365063E+00  9.261894663E-01  3.713220206E+00  5.000000000E-01  0.00000E+00  9.000E+00
</event>
<event>
      5  10001  2.40292E+09  5.15084E+00 -1.00000E+00  2.36196E-01
      21    -1     0     0   514   511  0.000000000E+00  0.000000000E+00  4.673073659E+02  4.673073659E+02  0.000000000E+00  0.00000E+00  9.000E+00
      21    -1     0     0   513   515  0.000000000E+00  0.000000000E+00 -3.828887433E+00  3.828887433E+00  0.000000000E+00  0.00000E+00  9.000E+00
      21     1     1     2   514   515  1.291360909E+00  1.376095997E+01  2.784361723E+02  2.787790051E+02  5.394796609E-06  0.00000E+00  9.000E+00
      21     1     1     2   513   516 -6.082191388E-01 -8.655624462E+00  1.576340758E+00  8.818991753E+00  6.603753509E-07  0.00000E+00  9.000E+00
      21     1     1     2   516   511 -6.831417706E-01 -5.105335511E+00  1.834659654E+02  1.835382565E+02  2.697398305E-06  0.00000E+00  9.000E+00
</event>
<event>
      5  10001  2.40292E+09  3.42216E+00 -1.00000E+00  2.80407E-01
      21    -1     0     0   516   511  0.000000000E+00  0.000000000E+00  9.144745473E+01  9.144745473E+01  0.000000000E+00  0.00000E+00  9.000E+00
      21    -1     0     0   513   512  0.000000000E+00  0.000000000E+00 -2.487937254E+01  2.487937254E+01  0.000000000E+00  0.00000E+00  9.000E+00
      -1     1     1     2     0   511  5.238778132E+00 -1.119639810E+01 -1.602248239E+01  2.023939151E+01  3.300000131E-01  0.00000E+00  9.000E+00
      21     1     1     2   516   512 -4.376248330E+00  1.450785173E+01  8.820873892E+01  8.950089906E+01  9.536743164E-07  0.00000E+00  9.000E+00
       1     1     1     2   513     0 -8.625298024E-01 -3.311453626E+00 -5.618174340E+00  6.586536700E+00  3.300000131E-01  0.00000E+00  9.000E+00
</event>
<event>
      5  10001  2.40292E+09  3.88716E+00 -1.00000E+00  2.66322E-01
       2    -1     0     0   514     0  0.000000000E+00  0.000000000E+00  2.760314276E+02  2.760314276E+02  0.000000000E+00  0.00000E+00  9.000E+00
      21    -1     0     0   511   515  0.000000000E+00  0.000000000E+00 -2.066142801E+01  2.066142801E+01  0.000000000E+00  0.00000E+00  9.000E+00
      21     1     1     2   514   515  1.438895121E+01  1.203579456E+00 -1.542095025E+01  2.112572430E+01  5.331201500E-07  0.00000E+00  9.000E+00
      21     1     1     2   511   513 -1.082969373E+01 -2.766127002E+00  1.078600170E+01  1.553291851E+01  2.064765462E-07  0.00000E+00  9.000E+00
       2     1     1     2   513     0 -3.559257482E+00  1.562547547E+00  2.600049482E+02  2.600342128E+02  3.300000131E-01  0.00000E+00  9.000E+00
</event>
<event>
      5  10001  2.40292E+09  1.91003E+01 -1.00000E+00  1.67993E-01
      21    -1     0     0   512   511  0.000000000E+00  0.000000000E+00  1.131648265E+01  1.131648265E+01  0.000000000E+00  0.00000E+00  9.000E+00
      21    -1     0     0   516   512  0.000000000E+00  0.000000000E+00 -4.255423188E+01  4.255423188E+01  0.000000000E+00  0.00000E+00  9.000E+00
      21     1     1     2   516   517  3.479284341E+00  6.500443881E+00 -2.334500251E+01  2.448163255E+01  0.000000000E+00  0.00000E+00  9.000E+00
      21     1     1     2   517   514 -1.051097621E+01 -2.855786378E+00  6.698460339E+00  1.278692722E+01  1.460009660E-07  0.00000E+00  9.000E+00
      21     1     1     2   514   511  7.031691873E+00 -3.644657503E+00 -1.459120706E+01  1.660215475E+01  1.685873940E-07  0.00000E+00  9.000E+00
</event>
<event>
      5  10001  2.40292E+09  9.28767E+00 -1.00000E+00  1.99481E-01
      -1    -1     0     0     0   511  0.000000000E+00  0.000000000E+00  3.043870483E+02  3.043870483E+02  0.000000000E+00  0.00000E+00  9.000E+00
      21    -1     0     0   511   512  0.000000000E+00  0.000000000E+00 -9.572163430E+00  9.572163430E+00  0.000000000E+00  0.00000E+00  9.000E+00
      -1     1     1     2     0   515 -4.325333529E-01 -5.422027647E+00  2.923232090E+02  2.923739949E+02  3.300000131E-01  0.00000E+00  9.000E+00
      21     1     1     2   513   512  2.154565267E+00  1.020804220E+01 -5.740855302E+00  1.190813573E+01  6.899736466E-07  0.00000E+00  9.000E+00
      21     1     1     2   515   513 -1.722031914E+00 -4.786014551E+00  8.232531152E+00  9.677081087E+00  1.685873940E-07  0.00000E+00  9.000E+00
</event>
<event>
      5  10001  2.40292E+09  8.14749E+00 -1.00000E+00  2.06573E-01
      21    -1     0     0   514   513  0.000000000E+00  0.000000000E+00  6.242670060E-01  6.242670060E-01  0.000000000E+00  0.00000E+00  9.000E+00
      21    -1     0     0   511   516  0.000000000E+00  0.000000000E+00 -2.154377000E+02  2.154377000E+02  0.000000000E+00  0.00000E+00  9.000E+00
      21     1     1     2   514   516 -9.493025953E-01  9.066322480E+00 -5.807455194E+01  5.878565269E+01  6.743495762E-07  0.00000E+00  9.000E+00
      21     1     1     2   512   513  7.442917360E-01 -3.988284313E+00 -1.297311132E+02  1.297945381E+02  0.000000000E+00  0.00000E+00  9.000E+00
      21     1     1     2   511   512  2.050108594E-01 -5.078038167E+00 -2.700776781E+01  2.748177620E+01  3.371747881E-07  0.00000E+00  9.000E+00
</event>
<event>
      5  10001  2.40292E+09  2.84378E+00 -1.00000E+00  3.03952E-01
      -1    -1     0     0     0   515  0.000000000E+00  0.000000000E+00  1.107300024E+00  1.107300024E+00  0.000000000E+00  0.00000E+00  9.000E+00
       1    -1     0     0   513     0  0.000000000E+00  0.000000000E+00 -3.348979435E+02  3.348979435E+02  0.000000000E+00  0.00000E+00  9.000E+00
      -1     1     1     2     0   512  9.487656453E+00  2.046765131E-01 -2.622545333E+01  2.789159049E+01  3.300000131E-01  0.00000E+00  9.000E+00
      21     1     1     2   513   515 -1.208847372E+01  9.438306922E-01 -1.400217186E+02  1.405457352E+02  3.303624740E-06  0.00000E+00  9.000E+00
       1     1     1     2   512     0  2.600817271E+00 -1.148507205E+00 -1.675434715E+02  1.675679178E+02  3.300000131E-01  0.00000E+00  9.000E+00
</event>
<event>
      5  10001  2.40292E+09  5.43259E+00 -1.00000E+00  2.32304E-01
      21    -1     0     0   512   513  0.000000000E+00  0.000000000E+00  1.251706383E+01  1.251706383E+01  0.000000000E+00  0.00000E+00  9.000E+00
       2    -1     0     0   513     0  0.000000000E+00  0.000000000E+00 -1.005163040E+03  1.005163040E+03  0.000000000E+00  0.00000E+00  9.000E+00
      21     1     1     2   514   511 -1.229723155E+01  8.232031772E+00  6.550356341E+00  1.618318322E+01  6.690604782E-07  0.00000E+00  9.000E+00
       2     1     1     2   511     0  8.175220136E+00 -9.205912706E+00 -9.962762566E+02  9.963523831E+02  3.300000131E-01  0.00000E+00  9.000E+00
      21     1     1     2   512   514  4.122011418E+00  9.738809340E-01 -2.920075904E+00  5.144537441E+00  1.576990671E-07  0.00000E+00  9.000E+00
</event>
<event>
      5  10001  2.40292E+09  1.41432E+01 -1.00000E+00  1.79775E-01
      21    -1     0     0   515   511  0.000000000E+00  0.000000000E+00  3.505343480E+01  3.505343480E+01  0.000000000E+00  0.00000E+00  9.000E+00
      21    -1     0     0   513   515  0.000000000E+00  0.000000000E+00 -2.212568971E+02  2.212568971E+02  0.000000000E+00  0.00000E+00  9.000E+00
      21     1     1     2   513   514  2.862856990E+00 -1.153049541E+01 -2.088898722E+02  2.092274527E+02  0.000000000E+00  0.00000E+00  9.000E+00
      21     1     1     2   514   516 -1.237702735E+01  7.594319435E+00  3.074907166E+01  3.400543930E+01  1.685873940E-06  0.00000E+00  9.000E+00
      21     1     1     2   516   511  9.514170356E+00  3.936175978E+00 -8.062661799E+00  1.307743989E+01  1.685873940E-07  0.00000E+00  9.000E+00
</event>
<event>
      5  10001  2.40292E+09  6.76895E+00 -1.00000E+00  2.17562E-01
      21    -1     0     0   512   513  0.000000000E+00  0.000000000E+00  7.618718508E+01  7.618718508E+01  0.000000000E+00  0.00000E+00  9.000E+00
      21    -1     0     0   511   512  0.000000000E+00  0.000000000E+00 -8.010294423E+01  8.010294423E+01  0.000000000E+00  0.00000E+00  9.000E+00
      21     1     1     2   517   513  1.057137154E+01 -3.557940536E-01  7.396407790E+01  7.471656647E+01  1.348699152E-06  0.00000E+00  9.000E+00
      21     1     1     2   511   514 -1.454442909E+01 -2.904669816E+00 -7.298242028E+01  7.447423174E+01  1.348699152E-06  0.00000E+00  9.000E+00
      21     1     1     2   514   517  3.973057554E+00  3.260463870E+00 -4.897416769E+00  7.099331094E+00  1.460009660E-07  0.00000E+00  9.000E+00
</event>
<event>
      5  10001  2.40292E+09  1.29087E+01 -1.00000E+00  1.83704E-01
      21    -1     0     0   515   511  0.000000000E+00  0.000000000E+00  1.327032367E+01  1.327032367E+01  0.000000000E+00  0.00000E+00  9.000E+00
      21    -1     0     0   513   516  0.000000000E+00  0.000000000E+00 -3.055293463E+01  3.055293463E+01  0.000000000E+00  0.00000E+00  9.000E+00
      21     1     1     2   515   516  8.421215919E+00  6.010788108E+00  8.744165970E+00  1.354647149E+01  3.371747881E-07  0.00000E+00  9.000E+00
      21     1     1     2   512   511 -6.950997966E+00  2.035217350E+00 -1.105131971E+01  1.321325659E+01  2.064765462E-07  0.00000E+00  9.000E+00
      21     1     1     2   513   512 -1.470217954E+00 -8.046005458E+00 -1.497545722E+01  1.706353022E+01  2.384185791E-07  0.00000E+00  9.000E+00
</event>
<event>
      5  10001  2.40292E+09  7.42622E+00 -1.00000E+00  2.11919E-01
      21    -1     0     0   514   512  0.000000000E+00  0.000000000E+00  1.901800137E+02  1.901800137E+02  0.000000000E+00  0.00000E+00  9.000E+00
      21    -1     0     0   513   511  0.000000000E+00  0.000000000E+00 -3.442139548E+02  3.442139548E+02  0.000000000E+00  0.00000E+00  9.000E+00
      21     1     1     2   514   517  8.263450904E+00 -8.316185313E+00  4.222959942E+00  1.246101720E+01  4.042583694E-07  0.00000E+00  9.000E+00
      21     1     1     2   513   512 -1.131651619E+01  1.546583635E+00  1.816180678E+02  1.819768612E+02  0.000000000E+00  0.00000E+00  9.000E+00
      21     1     1     2   517   511  3.053065288E+00  6.769601678E+00 -3.398749689E+02  3.399560901E+02  3.814697266E-06  0.00000E+00  9.000E+00
</event>
<event>
      5  10001  2.40292E+09  5.55322E+00 -1.00000E+00  2.30739E-01
      21    -1     0     0   515   512  0.000000000E+00  0.000000000E+00  2.367633581E+02  2.367633581E+02  0.000000000E+00  0.00000E+00  9.000E+00
      21    -1     0     0   516   515  0.000000000E+00  0.000000000E+00 -7.311319041E+00  7.311319041E+00  0.000000000E+00  0.00000E+00  9.000E+00
      21     1     1     2   511   512 -4.390104871E+00  9.835555456E+00  2.254440145E+02  2.257011627E+02  0.000000000E+00  0.00000E+00  9.000E+00
       2     1     1     2   516     0  3.511339217E-01 -1.151068276E+01 -1.179482631E+00  1.158098407E+01  3.300000131E-01  0.00000E+00  9.000E+00
      -2     1     1     2     0   511  4.038970950E+00  1.675127305E+00  5.187507141E+00  6.792530321E+00  3.300000131E-01  0.00000E+00  9.000E+00
</event>
<event>
      5  10001  2.40292E+09  6.41237E+00 -1.00000E+00  2.21005E-01
      21    -1     0     0   513   512  0.000000000E+00  0.000000000E+00  6.220202242E+00  6.220202242E+00  0.000000000E+00  0.00000E+00  9.000E+00
      21    -1     0     0   514   513  0.000000000E+00  0.000000000E+00 -1.992570833E+02  1.992570833E+02  0.000000000E+00  0.00000E+00  9.000E+00
      21     1     1     2   516   511  6.283824038E+00 -1.162769585E+01 -6.675838557E+00  1.480731494E+01  3.264680848E-07  0.00000E+00  9.000E+00
      21     1     1     2   514   516 -1.147419881E+01  7.862256810E+00 -1.828131285E+02  1.833415182E+02  2.697398305E-06  0.00000E+00  9.000E+00
      21     1     1     2   511   512  5.190374769E+00  3.765439045E+00 -3.547913966E+00  7.328452426E+00  2.021291847E-07  0.00000E+00  9.000E+00
</event>
<event>
      5  10001  2.40292E+09  1.25626E+00 -1.00000E+00  5.14831E-01
      21    -1     0     0   516   512  0.000000000E+00  0.000000000E+00  1.962603860E-01  1.962603860E-01  0.000000000E+00  0.00000E+00  9.000E+00
      21    -1     0     0   515   516  0.000000000E+00  0.000000000E+00 -9.831159195E+02  9.831159195E+02  0.000000000E+00  0.00000E+00  9.000E+00
      -3     1     1     2     0   512  1.249965375E+01 -5.505076403E+00 -4.386804172E+02  4.388932737E+02  5.000000000E-01  0.00000E+00  9.000E+00
       3     1     1     2   513     0 -1.120080580E+01  3.959220939E+00 -4.430859664E+02  4.432454818E+02  5.000000000E-01  0.00000E+00  9.000E+00
      21     1     1     2   515   513 -1.298847949E+00  1.545855464E+00 -1.011532755E+02  1.011734245E+02  1.348699152E-06  0.00000E+00  9.000E+00
</event>
<event>
      5  10001  2.40292E+09  3.03140E+00 -1.00000E+00  2.95365E-01
      21    -1     0     0   511   515  0.000000000E+00  0.000000000E+00  1.727869595E+01  1.727869595E+01  0.000000000E+00  0.00000E+00  9.000E+00
      21    -1     0     0   514   512  0.000000000E+00  0.000000000E+00 -1.516908360E+02  1.516908360E+02  0.000000000E+00  0.00000E+00  9.000E+00
      21     1     1     2   513   515 -3.343017964E+00  9.789005071E+00  1.234949340E+01  1.610932576E+01  1.685873940E-07  0.00000E+00  9.000E+00
      21     1     1     2   514   513  4.006996346E-01 -1.051847137E+01 -6.099949762E+00  1.216586155E+01  2.230201594E-07  0.00000E+00  9.000E+00
      21     1     1     2   511   512  2.942318330E+00  7.294662943E-01 -1.406616837E+02  1.406943446E+02  2.697398305E-06  0.00000E+00  9.000E+00
</event>
<event>
      5  10001  2.40292E+09  5.06929E+00 -1.00000E+00  2.37389E-01
      21    -1     0     0   516   513  0.000000000E+00  0.000000000E+00  2.397731660E+00  2.397731660E+00  0.000000000E+00  0.00000E+00  9.000E+00
      21    -1     0     0   517   516  0.000000000E+00  0.000000000E+00 -8.890564468E+01  8.890564468E+01  0.000000000E+00  0.00000E+00  9.000E+00
      21     1     1     2   512   513 -3.974379776E+00 -9.678925769E+00 -1.209411359E+01  1.599202558E+01  1.685873940E-07  0.00000E+00  9.000E+00
       3     1     1     2   517     0  2.710950757E+00  2.870077896E+00 -4.044053383E+01  4.063586319E+01  5.000000000E-01  0.00000E+00  9.000E+00
      -3     1     1     2     0   512  1.263429018E+00  6.808847873E+00 -3.397326561E+01  3.467548757E+01  5.000000000E-01  0.00000E+00  9.000E+00
</event>
<event>
      5  10001  2.40292E+09  4.27200E+00 -1.00000E+00  2.56812E-01
       4    -1     0     0   515     0  0.000000000E+00  0.000000000E+00  3.322771254E+00  3.322771254E+00  0.000000000E+00  0.00000E+00  9.000E+00
      21    -1     0     0   511   514  0.000000000E+00  0.000000000E+00 -1.668005162E+02  1.668005162E+02  0.000000000E+00  0.00000E+00  9.000E+00
      21     1     1     2   515   513 -1.512450675E+00 -4.639711718E+00 -6.580115142E+01  6.598186084E+01  0.000000000E+00  0.00000E+00  9.000E+00
       4     1     1     2   511     0  2.430395482E+00  1.440254196E+01 -1.538282558E+01  2.126549694E+01  1.500000000E+00  0.00000E+00  9.000E+00
      21     1     1     2   513   514 -9.179448066E-01 -9.762830245E+00 -8.229376792E+01  8.287592965E+01  9.536743164E-07  0.00000E+00  9.000E+00
</event>
<event>
      5  10001  2.40292E+09  5.04929E+00 -1.00000E+00  2.37687E-01
      21    -1     0     0   512   515  0.000000000E+00  0.000000000E+00  3.377393210E+00  3.377393210E+00  0.000000000E+00  0.00000E+00  9.000E+00
      21    -1     0     0   513   516  0.000000000E+00  0.000000000E+00 -8.856105966E+01  8.856105966E+01  0.000000000E+00  0.00000E+00  9.000E+00
      21     1     1     2   512   516  2.128994184E-01  1.472419949E+01 -5.160447725E+01  5.366441511E+01  0.000000000E+00  0.00000E+00  9.000E+00
      21     1     1     2   513   511 -4.251251909E+00 -1.169318221E+01 -2.856956957E+01  3.116125733E+01  0.000000000E+00  0.00000E+00  9.000E+00
      21     1     1     2   511   515  4.038352490E+00 -3.031017285E+00 -5.009619630E+00  7.112780430E+00  0.000000000E+00  0.00000E+00  9.000E+00
</event>
<event>
      5  10001  2.40292E+09  1.18691E+01 -1.00000E+00  1.87477E-01
      21    -1     0     0   514   513  0.000000000E+00  0.000000000E+00  1.659563237E+00  1.659563237E+00  0.000000000E+00  0.00000E+00  9.000E+00
      21    -1     0     0   517   515  0.000000000E+00  0.000000000E+00 -1.044480033E+02  1.044480033E+02  0.000000000E+00  0.00000E+00  9.000E+00
      21     1     1     2   514   515 -1.004909022E+01  8.396592255E-02 -4.589485788E+01  4.698222264E+01  6.743495762E-07  0.00000E+00  9.000E+00
      21     1     1     2   517   512  6.683039763E+00 -8.676677906E-01 -5.451473774E+01  5.492970507E+01  0.000000000E+00  0.00000E+00  9.000E+00
      21     1     1     2   512   513  3.366050452E+00  7.837018680E-01 -2.378844432E+00  4.195638819E+00  4.214684851E-08  0.00000E+00  9.000E+00
</event>
<event>
      5  10001  2.40292E+09  1.11410E+01 -1.00000E+00  1.90429E-01
      21    -1     0     0   514   512  0.000000000E+00  0.000000000E+00  2.867068320E+01  2.867068320E+01  0.000000000E+00  0.00000E+00  9.000E+00
       2    -1     0     0   513     0  0.000000000E+00  0.000000000E+00 -3.373108760E+02  3.373108760E+02  0.000000000E+00  0.00000E+00  9.000E+00
      21     1     1     2   513   512 -1.511462414E+01  1.241506908E+01 -1.206694088E+02  1.222443947E+02  2.336015456E-06  0.00000E+00  9.000E+00
       2     1     1     2   511     0  6.401233226E+00 -1.935753792E+01 -2.142373303E+02  2.152055590E+02  3.300000131E-01  0.00000E+00  9.000E+00
      21     1     1     2   514   511  8.713390919E+00  6.942468834E+00  2.626654632E+01  2.853160546E+01  1.305872339E-06  0.00000E+00  9.000E+00
</event>
<event>
      5  10001  2.40292E+09  5.06940E+00 -1.00000E+00  2.37388E-01
      21    -1     0     0   515   511  0.000000000E+00  0.000000000E+00  1.311109837E+02  1.311109837E+02  0.000000000E+00  0.00000E+00  9.000E+00
      21    -1     0     0   512   515  0.000000000E+00  0.000000000E+00 -6.553430295E+00  6.553430295E+00  0.000000000E+00  0.00000E+00  9.000E+00
      21     1     1     2   516   513  9.715702551E+00 -8.299656668E+00  2.960596451E+01  3.224581076E+01  4.768371582E-07  0.00000E+00  9.000E+00
      21     1     1     2   513   511 -4.951798695E+00  6.566445905E+00  9.874508470E+01  9.908698337E+01  0.000000000E+00  0.00000E+00  9.000E+00
      21     1     1     2   512   516 -4.763903856E+00  1.733210762E+00 -3.793495813E+00  6.331619854E+00  2.384185791E-07  0.00000E+00  9.000E+00
</event>
<event>
      5  10001  2.40292E+09  1.17322E+01 -1.00000E+00  1.88011E-01
      21    -1     0     0   514   511  0.000000000E+00  0.000000000E+00  1.582877515E+02  1.582877515E+02  0.000000000E+00  0.00000E+00  9.000E+00
      21    -1     0     0   512   514  0.000000000E+00  0.000000000E+00 -1.174843293E+01  1.174843293E+01  0.000000000E+00  0.00000E+00  9.000E+00
      21     1     1     2   517   511  2.726685101E+01  2.915934529E+01  4.414795870E+01  5.952134776E+01  6.743495762E-07  0.00000E+00  9.000E+00
      21     1     1     2   513   517 -1.283092342E+01 -1.750985194E+01  4.113670479E+01  4.651296584E+01  4.768371582E-07  0.00000E+00  9.000E+00
      21     1     1     2   512   513 -1.443592759E+01 -1.164949336E+01  6.125465512E+01  6.400187087E+01  1.507891493E-06  0.00000E+00  9.000E+00
</event>
<event>
      5  10001  2.40292E+09  1.03430E+01 -1.00000E+00  1.94022E-01
      21    -1     0     0   515   511  0.000000000E+00  0.000000000E+00  2.394609089E+01  2.394609089E+01  0.000000000E+00  0.00000E+00  9.000E+00
      21    -1     0     0   512   515  0.000000000E+00  0.000000000E+00 -1.211327307E+02  1.211327307E+02  0.000000000E+00  0.00000E+00  9.000E+00
      21     1     1     2   512   516  1.294918024E+01 -2.365357314E+01 -1.085138682E+02  1.118142763E+02  1.907348633E-06  0.00000E+00  9.000E+00
      21     1     1     2   516   514 -1.228434845E+01  1.090328932E+01  1.221017950E+01  2.046644615E+01  7.539457465E-07  0.00000E+00  9.000E+00
      21     1     1     2   514   511 -6.648317908E-01  1.275028382E+01 -8.829510972E-01  1.279809913E+01  1.999200562E-07  0.00000E+00  9.000E+00
</event>
<event>
      5  10001  2.40292E+09  7.74582E+00 -1.00000E+00  2.09454E-01
      21    -1     0     0   513   516  0.000000000E+00  0.000000000E+00  4.817846326E+01  4.817846326E+01  0.000000000E+00  0.00000E+00  9.000E+00
      21    -1     0     0   512   511  0.000000000E+00  0.000000000E+00 -1.867806456E+01  1.867806456E+01  0.000000000E+00  0.00000E+00  9.000E+00
      21     1     1     2   513   511  7.630512855E+00  6.640352420E+00 -1.645435779E+01  1.931488796E+01  0.000000000E+00  0.00000E+00  9.000E+00
      21     1     1     2   515   516 -2.493004584E+00 -6.080608897E+00  1.923442785E+01  2.032614305E+01  2.384185791E-07  0.00000E+00  9.000E+00
      21     1     1     2   512   515 -5.137508270E+00 -5.597435230E-01  2.672032864E+01  2.721549681E+01  3.371747881E-07  0.00000E+00  9.000E+00
</event>
<event>
      5  10001  2.40292E+09  3.80088E+00 -1.00000E+00  2.68694E-01
      21    -1     0     0   515   511  0.000000000E+00  0.000000000E+00  8.329404991E+00  8.329404991E+00  0.000000000E+00  0.00000E+00  9.000E+00
      21    -1     0     0   514   515  0.000000000E+00  0.000000000E+00 -2.492012253E+01  2.492012253E+01  0.000000000E+00  0.00000E+00  9.000E+00
      -4     1     1     2     0   512 -3.835209904E+00  1.080365263E+01 -9.917013705E+00  1.523236377E+01  1.500000000E+00  0.00000E+00  9.000E+00
       4     1     1     2   514     0  7.524955150E+00 -9.998748300E+00 -6.628604232E+00  1.424037611E+01  1.500000000E+00  0.00000E+00  9.000E+00
      21     1     1     2   512   511 -3.689745246E+00 -8.049043273E-01 -4.509959958E-02  3.776787647E+00  4.487293477E-08  0.00000E+00  9.000E+00
</event>
<event>
      5  10001  2.40292E+09  4.07221E+00 -1.00000E+00  2.61546E-01
      -1    -1     0     0     0   514  0.000000000E+00  0.000000000E+00  5.088739214E+01  5.088739214E+01  0.000000000E+00  0.00000E+00  9.000E+00
      21    -1     0     0   511   513  0.000000000E+00  0.000000000E+00 -6.726641769E+01  6.726641769E+01  0.000000000E+00  0.00000E+00  9.000E+00
      -1     1     1     2     0   515 -3.135107077E+00 -1.336405221E+01  4.081350391E+01  4.306132591E+01  3.300000131E-01  0.00000E+00  9.000E+00
      21     1     1     2   515   513  2.673208007E+00  9.318162065E+00 -6.530220980E+01  6.601782176E+01  1.348699152E-06  0.00000E+00  9.000E+00
      21     1     1     2   511   514  4.618990702E-01  4.045890147E+00  8.109680340E+00  9.074662145E+00  1.685873940E-07  0.00000E+00  9.000E+00
</event>
<event>
      5  10001  2.40292E+09  7.90878E+00 -1.00000E+00  2.08257E-01
      21    -1     0     0   512   515  0.000000000E+00  0.000000000E+00  1.103913685E+02  1.103913685E+02  0.000000000E+00  0.00000E+00  9.000E+00
      21    -1     0     0   511   512  0.000000000E+00  0.000000000E+00 -1.895366142E+00  1.895366142E+00  0.000000000E+00  0.00000E+00  9.000E+00
      21     1     1     2   511   514 -9.191121962E+00  2.842415971E+00  1.911683015E+01  2.140115059E+01  2.384185791E-07  0.00000E+00  9.000E+00
      21     1     1     2   513   515  1.177206930E+01 -4.756770592E+00  5.984170984E+01  6.117384015E+01  0.000000000E+00  0.00000E+00  9.000E+00
      21     1     1     2   514   513 -2.580947337E+00  1.914354622E+00  2.953746239E+01  2.971174393E+01  0.000000000E+00  0.00000E+00  9.000E+00
</event>
<event>
      5  10001  2.40292E+09  1.67525E+01 -1.00000E+00  1.72934E-01
       3    -1     0     0   512     0  0.000000000E+00  0.000000000E+00  2.429342914E+01  2.429342914E+01  0.000000000E+00  0.00000E+00  9.000E+00
      21    -1     0     0   513   512  0.000000000E+00  0.000000000E+00 -4.230254196E+01  4.230254196E+01  0.000000000E+00  0.00000E+00  9.000E+00
      21     1     1     2   513   511  3.459124466E+00  7.659535807E+00 -1.572830645E+01  1.783293736E+01  1.685873940E-07  0.00000E+00  9.000E+00
       3     1     1     2   516     0  5.678503054E+00 -9.081737174E+00  2.107344140E+01  2.364451901E+01  5.000000000E-01  0.00000E+00  9.000E+00
      21     1     1     2   511   516 -9.137627521E+00  1.422201367E+00 -2.335424777E+01  2.511851473E+01  0.000000000E+00  0.00000E+00  9.000E+00
</event>
<event>
      5  10001  2.40292E+09  1.26241E+01 -1.00000E+00  1.84690E-01
      21    -1     0     0   514   513  0.000000000E+00  0.000000000E+00  1.600669916E+01  1.600669916E+01  0.000000000E+00  0.00000E+00  9.000E+00
      21    -1     0     0   511   515  0.000000000E+00  0.000000000E+00 -6.895059914E+00  6.895059914E+00  0.000000000E+00  0.00000E+00  9.000E+00
      21     1     1     2   514   515  6.079776932E+00  1.289182917E+00  4.134993992E+00  7.464841288E+00  1.976862425E-07  0.00000E+00  9.000E+00
      21     1     1     2   511   512 -5.666035750E+00  3.344317286E+00  7.635176476E+00  1.007890565E+01  1.685873940E-07  0.00000E+00  9.000E+00
      21     1     1     2   512   513 -4.137411817E-01 -4.633500203E+00 -2.658531218E+00  5.358012144E+00  1.192092896E-07  0.00000E+00  9.000E+00
</event>
<event>
      5  10001  2.40292E+09  7.05862E+00 -1.00000E+00  2.14972E-01
      21    -1     0     0   516   511  0.000000000E+00  0.000000000E+00  9.804646149E+01  9.804646149E+01  0.000000000E+00  0.00000E+00  9.000E+00
      21    -1     0     0   513   516  0.000000000E+00  0.000000000E+00 -1.141549651E+01  1.141549651E+01  0.000000000E+00  0.00000E+00  9.000E+00
      21     1     1     2   513   517  2.463543432E+00  1.133529866E+01 -7.869472577E+00  1.401736925E+01  8.429369702E-08  0.00000E+00  9.000E+00
      21     1     1     2   514   511 -4.092826985E+00 -3.783400767E+00  4.523274648E+01  4.557484732E+01  8.259061849E-07  0.00000E+00  9.000E+00
      21     1     1     2   517   514  1.629283554E+00 -7.551897897E+00  4.926769107E+01  4.986974143E+01  6.743495762E-07  0.00000E+00  9.000E+00
</event>
<event>
      5  10001  2.40292E+09  2.43704E+01 -1.00000E+00  1.59547E-01
      21    -1     0     0   513   511  0.000000000E+00  0.000000000E+00  8.231693393E+00  8.231693393E+00  0.000000000E+00  0.00000E+00  9.000E+00
      -1    -1     0     0     0   512  0.000000000E+00  0.000000000E+00 -4.108160828E+01  4.108160828E+01  0.000000000E+00  0.00000E+00  9.000E+00
      21     1     1     2   515   511  1.409761660E+01  3.247389635E+00 -1.081451548E+01  1.806217258E+01  4.460403188E-07  0.00000E+00  9.000E+00
      21     1     1     2   513   512 -4.505634886E+00  3.118110519E+00 -1.836300808E+01  1.916307451E+01  3.371747881E-07  0.00000E+00  9.000E+00
      -1     1     1     2     0   515 -9.591981717E+00 -6.365500155E+00 -3.672391330E+00  1.208805458E+01  3.300000131E-01  0.00000E+00  9.000E+00
</event>
<event>
      5  10001  2.40292E+09  3.48888E+00 -1.00000E+00  2.78172E-01
      21    -1     0     0   514   516  0.000000000E+00  0.000000000E+00  3.633381492E+01  3.633381492E+01  0.000000000E+00  0.00000E+00  9.000E+00
      21    -1     0     0   511   515  0.000000000E+00  0.000000000E+00 -1.246028939E+01  1.246028939E+01  0.000000000E+00  0.00000E+00  9.000E+00
      21     1     1     2   514   515 -3.094385815E+00 -9.509846989E+00  3.290894518E+01  3.439492820E+01  0.000000000E+00  0.00000E+00  9.000E+00
      21     1     1     2   511   512  9.582751558E-01  4.821393384E+00 -7.599330540E+00  9.050632580E+00  8.429369702E-08  0.00000E+00  9.000E+00
      21     1     1     2   512   516  2.136110659E+00  4.688453605E+00 -1.436089099E+00  5.348543527E+00  1.053671213E-07  0.00000E+00  9.000E+00
</event>
<event>
      5  10001  2.40292E+09  4.89027E+00 -1.00000E+00  2.44376E-01
       3    -1     0     0   512     0  0.000000000E+00  0.000000000E+00  1.821790601E+02  1.821790601E+02  0.000000000E+00  0.00000E+00  9.000E+00
       1    -1     0     0   511     0  0.000000000E+00  0.000000000E+00 -3.292570209E+01  3.292570209E+01  0.000000000E+00  0.00000E+00  9.000E+00
       1     1     1     2   512     0  1.408292136E+01  4.458039973E+00 -7.360839511E+00  1.650738177E+01  3.300000131E-01  0.00000E+00  9.000E+00
       3     1     1     2   513     0 -1.094345212E+01 -7.087248030E-01  1.771487568E+02  1.774885728E+02  5.000000000E-01  0.00000E+00  9.000E+00
      21     1     1     2   511   513 -3.139469237E+00 -3.749315170E+00 -2.053455933E+01  2.110880759E+01  4.129530925E-07  0.00000E+00  9.000E+00
</event>
<event>
      5  10001  2.40292E+09  1.74651E+01 -1.00000E+00  1.71332E-01
      21    -1     0     0   514   513  0.000000000E+00  0.000000000E+00  6.179542230E+00  6.179542230E+00  0.000000000E+00  0.00000E+00  9.000E+00
      21    -1     0     0   511   515  0.000000000E+00  0.000000000E+00 -5.103456560E+02  5.103456560E+02  0.000000000E+00  0.00000E+00  9.000E+00
      21     1     1     2   514   515 -3.355293790E+00  9.390397835E+00 -4.565463809E+02  4.566552698E+02  5.394796609E-06  0.00000E+00  9.000E+00
      21     1     1     2   511   512 -8.002807632E+00 -4.779891670E+00  1.323386619E+00  9.415075491E+00  1.108510191E-06  0.00000E+00  9.000E+00
      21     1     1     2   512   513  1.135810142E+01 -4.610506166E+00 -4.894311953E+01  5.045485293E+01  0.000000000E+00  0.00000E+00  9.000E+00
</event>
<event>
      5  10001  2.40292E+09  1.78596E+01 -1.00000E+00  1.70486E-01
      21    -1     0     0   516   512  0.000000000E+00  0.000000000E+00  5.962957525E+02  5.962957525E+02  0.000000000E+00  0.00000E+00  9.000E+00
      21    -1     0     0   513   516  0.000000000E+00  0.000000000E+00 -6.060829985E+00  6.060829985E+00  0.000000000E+00  0.00000E+00  9.000E+00
      21     1     1     2   511   512 -3.170888868E-01  1.052534490E+01  5.891431179E+02  5.892372160E+02  1.078959322E-05  0.00000E+00  9.000E+00
      21     1     1     2   514   511 -2.751536097E+00 -1.824766583E+00  1.981683873E+00  3.850687594E+00  1.460009660E-07  0.00000E+00  9.000E+00
      21     1     1     2   513   514  3.068624984E+00 -8.700578319E+00 -8.898792413E-01  9.268678840E+00  1.258596922E-06  0.00000E+00  9.000E+00
</event>
<event>
      5  10001  2.40292E+09  7.68596E+00 -1.00000E+00  2.09903E-01
      21    -1     0     0   515   513  0.000000000E+00  0.000000000E+00  9.217599571E+00  9.217599571E+00  0.000000000E+00  0.00000E+00  9.000E+00
      21    -1     0     0   512   517  0.000000000E+00  0.000000000E+00 -1.035241414E+02  1.035241414E+02  0.000000000E+00  0.00000E+00  9.000E+00
      21     1     1     2   515   517  1.800320947E+01  1.271662152E+00 -1.959875226E+00  1.815416720E+01  3.257872330E-07  0.00000E+00  9.000E+00
      21     1     1     2   512   511 -7.567485680E+00  1.629034805E-01 -6.208966395E+01  6.254933850E+01  9.536743164E-07  0.00000E+00  9.000E+00
      21     1     1     2   511   513 -1.043572379E+01 -1.434565632E+00 -3.025700268E+01  3.203823529E+01  4.768371582E-07  0.00000E+00  9.000E+00
</event>
<event>
      5  10001  2.40292E+09  3.33300E+01 -1.00000E+00  1.49898E-01
      -3    -1     0     0     0   513  0.000000000E+00  0.000000000E+00  4.738554768E+01  4.738554768E+01  0.000000000E+00  0.00000E+00  9.000E+00
      21    -1     0     0   511   514  0.000000000E+00  0.000000000E+00 -2.054348319E+01  2.054348319E+01  0.000000000E+00  0.00000E+00  9.000E+00
      21     1     1     2   512   514  3.863343239E+00  1.136729179E+01  6.863032497E+00  1.382902595E+01  1.460009660E-07  0.00000E+00  9.000E+00
      21     1     1     2   511   513 -4.088944248E+00 -8.328844378E+00 -1.572739121E+01  1.826033811E+01  3.371747881E-07  0.00000E+00  9.000E+00
      -3     1     1     2     0   512  2.256010092E-01 -3.038447412E+00  3.570642320E+01  3.583966680E+01  5.000000000E-01  0.00000E+00  9.000E+00
</event>
<event>
      5  10001  2.40292E+09  4.25749E+01 -1.00000E+00  1.43149E-01
      21    -1     0     0   515   511  0.000000000E+00  0.000000000E+00  2.015772766E+02  2.015772766E+02  0.000000000E+00  0.00000E+00  9.000E+00
       4    -1     0     0   513     0  0.000000000E+00  0.000000000E+00 -5.056051084E+00  5.056051084E+00  0.000000000E+00  0.00000E+00  9.000E+00
      21     1     1     2   513   511 -9.537226512E+00 -2.074126264E+00  1.342427114E+01  1.659734150E+01  3.769728732E-07  0.00000E+00  9.000E+00
      21     1     1     2   515   514  5.823854023E+00  4.846035217E+00  1.847403338E+02  1.848956253E+02  0.000000000E+00  0.00000E+00  9.000E+00
       4     1     1     2   514     0  3.713372490E+00 -2.771908953E+00 -1.643379372E+00  5.140360907E+00  1.500000000E+00  0.00000E+00  9.000E+00
</event>
<event>
      5  10001  2.40292E+09  1.87076E+01 -1.00000E+00  1.68756E-01
      21    -1     0     0   512   513  0.000000000E+00  0.000000000E+00  9.118798115E+00  9.118798115E+00  0.000000000E+00  0.00000E+00  9.000E+00
      21    -1     0     0   511   516  0.000000000E+00  0.000000000E+00 -1.560826025E+01  1.560826025E+01  0.000000000E+00  0.00000E+00  9.000E+00
      21     1     1     2   512   516  1.053365140E+00 -2.935075484E+00  3.830383512E-01  3.141809127E+00  1.350385618E-07  0.00000E+00  9.000E+00
      21     1     1     2   511   515  1.869083998E+00  3.810453710E+00 -1.357398957E+01  1.422203309E+01  2.384185791E-07  0.00000E+00  9.000E+00
      21     1     1     2   515   513 -2.922449138E+00 -8.753782268E-01  6.701489085E+00  7.363216142E+00  1.460009660E-07  0.00000E+00  9.000E+00
</event>
<event>
      5  10001  2.40292E+09  7.50682E+00 -1.00000E+00  2.11282E-01
      21    -1     0     0   511   513  0.000000000E+00  0.000000000E+00  9.199240984E+01  9.199240984E+01  0.000000000E+00  0.00000E+00  9.000E+00
       1    -1     0     0   513     0  0.000000000E+00  0.000000000E+00 -6.331346714E+01  6.331346714E+01  0.000000000E+00  0.00000E+00  9.000E+00
      21     1     1     2   511   514 -9.999691219E+00 -6.516894437E-01  9.118848638E+01  9.173744367E+01  1.348699152E-06  0.00000E+00  9.000E+00
      21     1     1     2   514   512  6.141404256E+00 -9.836626681E-01 -2.266954143E+01  2.350728710E+01  0.000000000E+00  0.00000E+00  9.000E+00
       1     1     1     2   512     0  3.858286963E+00  1.635352112E+00 -3.984000226E+01  4.006114620E+01  3.300000131E-01  0.00000E+00  9.000E+00
</event>
<event>
      5  10001  2.40292E+09  3.69850E+00 -1.00000E+00  2.71641E-01
      21    -1     0     0   514   511  0.000000000E+00  0.000000000E+00  2.289379025E+00  2.289379025E+00  0.000000000E+00  0.00000E+00  9.000E+00
       2    -1     0     0   513     0  0.000000000E+00  0.000000000E+00 -6.352137919E+02  6.352137919E+02  0.000000000E+00  0.00000E+00  9.000E+00
      21     1     1     2   514   512 -1.088189790E+01  7.063467528E+00 -4.508639189E+01  4.691578635E+01  1.430511475E-06  0.00000E+00  9.000E+00
       2     1     1     2   512     0  1.238170879E+01 -3.682794774E+00 -5.865181766E+02  5.866605067E+02  3.300000131E-01  0.00000E+00  9.000E+00
      21     1     1     2   513   511 -1.499810888E+00 -3.380672754E+00 -1.319844388E+00  3.926877917E+00  2.416562250E-07  0.00000E+00  9.000E+00
</event>
<event>
      5  10001  2.40292E+09  2.63440E+00 -1.00000E+00  3.14958E-01
       1    -1     0     0   514     0  0.000000000E+00  0.000000000E+00  1.859123812E+01  1.859123812E+01  0.000000000E+00  0.00000E+00  9.000E+00
      21    -1     0     0   512   514  0.000000000E+00  0.000000000E+00 -3.998779490E+01  3.998779490E+01  0.000000000E+00  0.00000E+00  9.000E+00
      21     1     1     2   512   515  1.122981642E+01  9.923551256E-01 -3.700456693E+01  3.868373714E+01  4.768371582E-07  0.00000E+00  9.000E+00
       1     1     1     2   516     0 -9.327804471E+00  1.209467510E+00  1.234452797E+01  1.552311240E+01  3.300000131E-01  0.00000E+00  9.000E+00
      21     1     1     2   515   516 -1.902011948E+00 -2.201822636E+00  3.263482183E+00  4.372183474E+00  1.460009660E-07  0.00000E+00  9.000E+00
</event>
<event>
      5  10001  2.40292E+09  1.05531E+01 -1.00000E+00  1.93036E-01
      -1    -1     0     0     0   511  0.000000000E+00  0.000000000E+00  2.716861096E+01  2.716861096E+01  0.000000000E+00  0.00000E+00  9.000E+00
      21    -1     0     0   511   513  0.000000000E+00  0.000000000E+00 -7.347304656E+00  7.347304656E+00  0.000000000E+00  0.00000E+00  9.000E+00
      -1     1     1     2     0   512 -6.125880235E-01 -9.191374459E+00  1.859552474E+01  2.075473606E+01  3.300000131E-01  0.00000E+00  9.000E+00
      21     1     1     2   512   514  3.794562383E+00  6.589981848E+00  4.200700335E+00  8.687487999E+00  1.192092896E-07  0.00000E+00  9.000E+00
      21     1     1     2   514   513 -3.181974359E+00  2.601392611E+00 -2.974918770E+00  5.073691558E+00  2.698715072E-07  0.00000E+00  9.000E+00
</event>
<event>
      5  10001  2.40292E+09  3.28133E+00 -1.00000E+00  2.85406E-01
      21    -1     0     0   512   511  0.000000000E+00  0.000000000E+00  1.322721300E+00  1.322721300E+00  0.000000000E+00  0.00000E+00  9.000E+00
      21    -1     0     0   514   513  0.000000000E+00  0.000000000E+00 -4.911436277E+02  4.911436277E+02  0.000000000E+00  0.00000E+00  9.000E+00
      21     1     1     2   512   513 -7.346425128E+00 -7.955362742E+00 -3.557485393E+02  3.559133054E+02  0.000000000E+00  0.00000E+00  9.000E+00
       3     1     1     2   514     0  8.595322584E+00  4.922254061E+00 -1.325186283E+02  1.328892208E+02  5.000000000E-01  0.00000E+00  9.000E+00
      -3     1     1     2     0   511 -1.248897457E+00  3.033108680E+00 -1.553738778E+00  3.663822773E+00  5.000000000E-01  0.00000E+00  9.000E+00
</event>
<event>
      5  10001  2.40292E+09  2.53702E+01 -1.00000E+00  1.58237E-01
       2    -1     0     0   513     0  0.000000000E+00  0.000000000E+00  8.983900416E+01  8.983900416E+01  0.000000000E+00  0.00000E+00  9.000E+00
      21    -1     0     0   515   516  0.000000000E+00  0.000000000E+00 -3.144123538E+00  3.144123538E+00  0.000000000E+00  0.00000E+00  9.000E+00
      21     1     1     2   513   516 -8.204622073E+00 -2.406230327E+00  1.183150404E+01  1.459761130E+01  1.685873940E-07  0.00000E+00  9.000E+00
      21     1     1     2   515   512  2.406920567E+00 -9.578921280E+00  2.967337187E+01  3.127391881E+01  3.371747881E-07  0.00000E+00  9.000E+00
       2     1     1     2   512     0  5.797701506E+00  1.198515161E+01  4.519000471E+01  4.711159759E+01  3.300000131E-01  0.00000E+00  9.000E+00
</event>
<event>
      5  10001  2.40292E+09  1.04406E+01 -1.00000E+00  1.93560E-01
      21    -1     0     0   511   515  0.000000000E+00  0.000000000E+00  9.318232566E+02  9.318232566E+02  0.000000000E+00  0.00000E+00  9.000E+00
      21    -1     0     0   517   513  0.000000000E+00  0.000000000E+00 -4.931809824E+01  4.931809824E+01  0.000000000E+00  0.00000E+00  9.000E+00
      21     1     1     2   511   514 -3.080216520E+00  1.534969586E+01  9.227188918E+02  9.228516967E+02  1.525878906E-05  0.00000E+00  9.000E+00
      21     1     1     2   517   515 -5.751792150E+00 -9.781788774E+00  4.623204081E+00  1.225318410E+01  7.748603821E-07  0.00000E+00  9.000E+00
      21     1     1     2   514   513  8.832008669E+00 -5.567907089E+00 -4.483693755E+01  4.603647396E+01  1.430511475E-06  0.00000E+00  9.000E+00
</event>
<event>
      5  10001  2.40292E+09  1.96623E+00 -1.00000E+00  3.66339E-01
      21    -1     0     0   511   513  0.000000000E+00  0.000000000E+00  1.442879768E+02  1.442879768E+02  0.000000000E+00  0.00000E+00  9.000E+00
      21    -1     0     0   514   516  0.000000000E+00  0.000000000E+00 -2.812490855E+00  2.812490855E+00  0.000000000E+00  0.00000E+00  9.000E+00
      21     1     1     2   512   516  1.129904062E+01 -3.504439934E+00  3.234889504E+01  3.444416392E+01  4.768371582E-07  0.00000E+00  9.000E+00
      21     1     1     2   514   513 -1.021666798E+01  5.145940374E+00  1.689339338E+01  2.040215055E+01  4.768371582E-07  0.00000E+00  9.000E+00
      21     1     1     2   511   512 -1.082372638E+00 -1.641500440E+00  9.223319749E+01  9.225415315E+01  1.348699152E-06  0.00000E+00  9.000E+00
</event>
<event>
      5  10001  2.40292E+09  7.27484E+00 -1.00000E+00  2.13147E-01
      21    -1     0     0   515   514  0.000000000E+00  0.000000000E+00  1.329517291E+01  1.329517291E+01  0.000000000E+00  0.00000E+00  9.000E+00
      -1    -1     0     0     0   512  0.000000000E+00  0.000000000E+00 -1.707600252E+02  1.707600252E+02  0.000000000E+00  0.00000E+00  9.000E+00
      21     1     1     2   515   512 -8.805049565E+00 -1.046132747E+01  5.648241835E+00  1.479428627E+01  3.209808354E-07  0.00000E+00  9.000E+00
      21     1     1     2   517   514  1.570774344E+00  9.695061671E+00 -5.075110532E+00  1.105523857E+01  2.064765462E-07  0.00000E+00  9.000E+00
      -1     1     1     2     0   517  7.234275221E+00  7.662658032E-01 -1.580379836E+02  1.582056733E+02  3.300000131E-01  0.00000E+00  9.000E+00
</event>
<event>
      5  10001  2.40292E+09  6.85186E+00 -1.00000E+00  2.16803E-01
      21    -1     0     0   511   512  0.000000000E+00  0.000000000E+00  3.957079473E+02  3.957079473E+02  0.000000000E+00  0.00000E+00  9.000E+00
      21    -1     0     0   516   513  0.000000000E+00  0.000000000E+00 -5.349827116E+00  5.349827116E+00  0.000000000E+00  0.00000E+00  9.000E+00
      21     1     1     2   511   513 -1.084321228E+01 -6.885976442E+00  2.732314214E+00  1.313230616E+01  4.031583446E-07  0.00000E+00  9.000E+00
      21     1     1     2   514   512  2.875184342E+00  5.911899220E+00  2.316187744E+02  2.317120495E+02  2.697398305E-06  0.00000E+00  9.000E+00
      21     1     1     2   516   514  7.968027935E+00  9.740772219E-01  1.560070316E+02  1.562134187E+02  1.907348633E-06  0.00000E+00  9.000E+00
</event>
<event>
      5  10001  2.40292E+09  8.11160E+00 -1.00000E+00  2.06822E-01
      21    -1     0     0   516   512  0.000000000E+00  0.000000000E+00  6.492168801E+00  6.492168801E+00  0.000000000E+00  0.00000E+00  9.000E+00
      -1    -1     0     0     0   515  0.000000000E+00  0.000000000E+00 -3.708835435E+01  3.708835435E+01  0.000000000E+00  0.00000E+00  9.000E+00
      -1     1     1     2     0   512  1.137369865E+01  7.967378985E+00 -7.330172530E+00  1.570606501E+01  3.300000131E-01  0.00000E+00  9.000E+00
      21     1     1     2   511   515 -6.132559565E+00 -4.161340438E-01 -8.759855558E+00  1.070123936E+01  1.192092896E-07  0.00000E+00  9.000E+00
      21     1     1     2   516   511 -5.241139085E+00 -7.551244941E+00 -1.450615746E+01  1.717321879E+01  1.685873940E-07  0.00000E+00  9.000E+00
</event>
<event>
      5  10001  2.40292E+09  3.05609E+00 -1.00000E+00  2.94311E-01
       1    -1     0     0   514     0  0.000000000E+00  0.000000000E+00  9.260872451E+02  9.260872451E+02  0.000000000E+00  0.00000E+00  9.000E+00
      21    -1     0     0   511   512  0.000000000E+00  0.000000000E+00 -4.632436432E+01  4.632436432E+01  0.000000000E+00  0.00000E+00  9.000E+00
      21     1     1     2   511   513 -5.173287766E+00  7.075686649E+00 -4.481360532E+01  4.566275801E+01  3.814697266E-06  0.00000E+00  9.000E+00
       1     1     1     2   513     0  7.899458736E+00 -8.456863657E+00  9.234024380E+02  9.234750086E+02  3.300000131E-01  0.00000E+00  9.000E+00
      21     1     1     2   514   512 -2.726170971E+00  1.381177008E+00  1.174048080E+00  3.273842846E+00  5.161913656E-08  0.00000E+00  9.000E+00
</event>
<event>
      5  10001  2.40292E+09  1.07922E+01 -1.00000E+00  1.91950E-01
      21    -1     0     0   513   515  0.000000000E+00  0.000000000E+00  1.238203642E+02  1.238203642E+02  0.000000000E+00  0.00000E+00  9.000E+00
      -2    -1     0     0     0   512  0.000000000E+00  0.000000000E+00 -1.589450593E+01  1.589450593E+01  0.000000000E+00  0.00000E+00  9.000E+00
      -2     1     1     2     0   515 -1.473607738E+01  1.738863576E+01 -4.433826841E+00  2.322249665E+01  3.300000131E-01  0.00000E+00  9.000E+00
      21     1     1     2   511   512  1.832166300E+01 -7.209612931E+00  7.969120618E+01  8.208745456E+01  1.348699152E-06  0.00000E+00  9.000E+00
      21     1     1     2   513   511 -3.585585623E+00 -1.017902283E+01  3.266847892E+01  3.440491891E+01  0.000000000E+00  0.00000E+00  9.000E+00
</event>
<event>
      5  10001  2.40292E+09  2.66484E+00 -1.00000E+00  3.13250E-01
      21    -1     0     0   514   511  0.000000000E+00  0.000000000E+00  1.024185266E+01  1.024185266E+01  0.000000000E+00  0.00000E+00  9.000E+00
      21    -1     0     0   516   514  0.000000000E+00  0.000000000E+00 -8.753523580E+01  8.753523580E+01  0.000000000E+00  0.00000E+00  9.000E+00
      21     1     1     2   516   517 -2.522727729E+00  1.092659643E+01 -8.381140546E+01  8.455830149E+01  9.536743164E-07  0.00000E+00  9.000E+00
      21     1     1     2   517   512  2.145870332E+00 -5.983895277E+00  2.474218851E+00  6.821548291E+00  2.190014490E-07  0.00000E+00  9.000E+00
      21     1     1     2   512   511  3.768573971E-01 -4.942701158E+00  4.043803470E+00  6.397238681E+00  2.230201594E-07  0.00000E+00  9.000E+00
</event>
<event>
      5  10001  2.40292E+09  8.87907E+00 -1.00000E+00  2.01859E-01
      21    -1     0     0   513   516  0.000000000E+00  0.000000000E+00  7.463466670E+01  7.463466670E+01  0.000000000E+00  0.00000E+00  9.000E+00
      21    -1     0     0   511   513  0.000000000E+00  0.000000000E+00 -2.148048598E+01  2.148048598E+01  0.000000000E+00  0.00000E+00  9.000E+00
      21     1     1     2   511   515  8.847302865E+00 -1.737128944E+01 -1.490544185E+01  2.453994013E+01  8.259061849E-07  0.00000E+00  9.000E+00
      21     1     1     2   515   514 -4.229949114E+00  5.830235872E+00  4.303171471E+01  4.363040901E+01  4.768371582E-07  0.00000E+00  9.000E+00
      21     1     1     2   514   516 -4.617353751E+00  1.154105357E+01  2.502790786E+01  2.794480355E+01  3.371747881E-07  0.00000E+00  9.000E+00
</event>
<event>
      5  10001  2.40292E+09  6.34470E+00 -1.00000E+00  2.21693E-01
      -2    -1     0     0     0   512  0.000000000E+00  0.000000000E+00  5.716306363E+01  5.716306363E+01  0.000000000E+00  0.00000E+00  9.000E+00
      21    -1     0     0   514   513  0.000000000E+00  0.000000000E+00 -1.559343776E+01  1.559343776E+01  0.000000000E+00  0.00000E+00  9.000E+00
      -2     1     1     2     0   513  5.487973902E+00 -1.623859430E+01  4.548577630E+01  4.860940802E+01  3.300000131E-01  0.00000E+00  9.000E+00
      21     1     1     2   511   512 -8.386988503E+00  1.829946018E+01 -4.253128798E+00  2.057427820E+01  6.279738994E-07  0.00000E+00  9.000E+00
      21     1     1     2   514   511  2.899014600E+00 -2.060865877E+00  3.369783617E-01  3.572815169E+00  8.768291992E-08  0.00000E+00  9.000E+00
</event>
<event>
      5  10001  2.40292E+09  1.28259E+01 -1.00000E+00  1.83988E-01
      21    -1     0     0   515   511  0.000000000E+00  0.000000000E+00  9.842710026E+00  9.842710026E+00  0.000000000E+00  0.00000E+00  9.000E+00
      21    -1     0     0   514   515  0.000000000E+00  0.000000000E+00 -2.258831514E+01  2.258831514E+01  0.000000000E+00  0.00000E+00  9.000E+00
      21     1     1     2   514   516 -3.296847081E+00  5.407436347E+00 -1.154122398E+01  1.316470355E+01  1.685873940E-07  0.00000E+00  9.000E+00
      21     1     1     2   512   511  2.737176203E+00 -2.605303358E+00  8.418724417E+00  9.227928260E+00  1.685873940E-07  0.00000E+00  9.000E+00
      21     1     1     2   516   512  5.596708775E-01 -2.802132989E+00 -9.623105557E+00  1.003839336E+01  0.000000000E+00  0.00000E+00  9.000E+00
</event>
<event>
      5  10001  2.40292E+09  2.71525E+01 -1.00000E+00  1.56074E-01
       1    -1     0     0   515     0  0.000000000E+00  0.000000000E+00  5.688946336E+02  5.688946336E+02  0.000000000E+00  0.00000E+00  9.000E+00
      21    -1     0     0   513   512  0.000000000E+00  0.000000000E+00 -9.140088497E-01  9.140088497E-01  0.000000000E+00  0.00000E+00  9.000E+00
      21     1     1     2   515   512 -1.652523428E+01  9.144616941E-01  2.894538690E+02  2.899266492E+02  5.394796609E-06  0.00000E+00  9.000E+00
       1     1     1     2   511     0  2.238290323E+00  8.127787920E+00  4.798415133E+01  4.872020689E+01  3.300000131E-01  0.00000E+00  9.000E+00
      21     1     1     2   513   511  1.428694395E+01 -9.042249614E+00  2.305426044E+02  2.311617864E+02  2.697398305E-06  0.00000E+00  9.000E+00
</event>
<event>
      5  10001  2.40292E+09  1.76744E+01 -1.00000E+00  1.70880E-01
      21    -1     0     0   514   511  0.000000000E+00  0.000000000E+00  3.281103417E+01  3.281103417E+01  0.000000000E+00  0.00000E+00  9.000E+00
      21    -1     0     0   513   514  0.000000000E+00  0.000000000E+00 -1.606761874E+02  1.606761874E+02  0.000000000E+00  0.00000E+00  9.000E+00
      21     1     1     2   513   516 -1.066674954E+01  1.485325778E+00 -1.590102034E+02  1.593744977E+02  0.000000000E+00  0.00000E+00  9.000E+00
      21     1     1     2   512   511  3.887898103E+00 -3.271258553E+00  5.334273367E+00  7.366909565E+00  2.064765462E-07  0.00000E+00  9.000E+00
      21     1     1     2   516   512  6.778851440E+00  1.785932775E+00  2.581077680E+01  2.674581428E+01  6.743495762E-07  0.00000E+00  9.000E+00
</event>
<event>
      5  10001  2.40292E+09  4.20921E+00 -1.00000E+00  2.58256E-01
      21    -1     0     0   515   511  0.000000000E+00  0.000000000E+00  4.149164628E-01  4.149164628E-01  0.000000000E+00  0.00000E+00  9.000E+00
      21    -1     0     0   517   515  0.000000000E+00  0.000000000E+00 -3.984840096E+02  3.984840096E+02  0.000000000E+00  0.00000E+00  9.000E+00
      21     1     1     2   512   511 -9.118414718E+00  6.953292830E+00 -1.144261130E+02  1.149992570E+02  1.348699152E-06  0.00000E+00  9.000E+00
      21     1     1     2   513   512  4.650135196E+00 -1.547592827E+00 -1.396908355E+02  1.397767803E+02  0.000000000E+00  0.00000E+00  9.000E+00
      21     1     1     2   517   513  4.468279522E+00 -5.405700004E+00 -1.439521447E+02  1.441228888E+02  0.000000000E+00  0.00000E+00  9.000E+00
</event>
<event>
      5  10001  2.40292E+09  6.02348E+00 -1.00000E+00  2.25130E-01
       1    -1     0     0   515     0  0.000000000E+00  0.000000000E+00  6.152500921E+01  6.152500921E+01  0.000000000E+00  0.00000E+00  9.000E+00
      21    -1     0     0   511   513  0.000000000E+00  0.000000000E+00 -3.354875958E+02  3.354875958E+02  0.000000000E+00  0.00000E+00  9.000E+00
      21     1     1     2   515   513 -1.413951796E+01  1.807398135E+01  1.196847025E+01  2.588124901E+01  0.000000000E+00  0.00000E+00  9.000E+00
       1     1     1     2   514     0  8.145906100E+00 -1.747502690E+01  4.038877153E+01  4.475593946E+01  3.300000131E-01  0.00000E+00  9.000E+00
      21     1     1     2   511   514  5.993611862E+00 -5.989544510E-01 -3.263198283E+02  3.263754165E+02  0.000000000E+00  0.00000E+00  9.000E+00
</event>
<event>
      5  10001  2.40292E+09  1.79855E+01 -1.00000E+00  1.70222E-01
      21    -1     0     0   511   514  0.000000000E+00  0.000000000E+00  6.283961383E+00  6.283961383E+00  0.000000000E+00  0.00000E+00  9.000E+00
      -1    -1     0     0     0   512  0.000000000E+00  0.000000000E+00 -1.236371546E+02  1.236371546E+02  0.000000000E+00  0.00000E+00  9.000E+00
      -1     1     1     2     0   514 -3.526676908E+00  1.877153748E+01 -9.932456657E+01  1.011448787E+02  3.300000131E-01  0.00000E+00  9.000E+00
      21     1     1     2   511   513  1.579800591E+00 -8.508463522E+00 -1.591910792E+01  1.811926374E+01  2.920019320E-07  0.00000E+00  9.000E+00
      21     1     1     2   513   512  1.946876317E+00 -1.026307396E+01 -2.109518683E+00  1.065697347E+01  1.931411236E-07  0.00000E+00  9.000E+00
</event>
<event>
      5  10001  2.40292E+09  8.81795E+00 -1.00000E+00  2.02230E-01
      21    -1     0     0   515   512  0.000000000E+00  0.000000000E+00  3.153748429E+01  3.153748429E+01  0.000000000E+00  0.00000E+00  9.000E+00
       2    -1     0     0   514     0  0.000000000E+00  0.000000000E+00 -3.165292950E+02  3.165292950E+02  0.000000000E+00  0.00000E+00  9.000E+00
      21     1     1     2   515   516 -6.775019376E+00  1.227283455E+01 -9.516726270E+01  9.619423707E+01  1.907348633E-06  0.00000E+00  9.000E+00
      21     1     1     2   514   512  7.702438308E+00 -3.503827067E+00  3.035696694E+01  3.151427934E+01  9.536743164E-07  0.00000E+00  9.000E+00
       2     1     1     2   516     0 -9.274189325E-01 -8.769007481E+00 -2.201815150E+02  2.203582629E+02  3.300000131E-01  0.00000E+00  9.000E+00
</event>
<event>
      5  10001  2.40292E+09  3.90375E+00 -1.00000E+00  2.65877E-01
      -2    -1     0     0     0   511  0.000000000E+00  0.000000000E+00  5.032347736E+01  5.032347736E+01  0.000000000E+00  0.00000E+00  9.000E+00
       1    -1     0     0   511     0  0.000000000E+00  0.000000000E+00 -3.504066058E+01  3.504066058E+01  0.000000000E+00  0.00000E+00  9.000E+00
      -2     1     1     2     0   513  7.173897478E+00  4.283085315E+00  4.404750948E+01  4.483415681E+01  3.300000131E-01  0.00000E+00  9.000E+00
       1     1     1     2   512     0 -9.003748367E+00 -8.061203625E+00 -3.264604217E+01  3.481269104E+01  3.300000131E-01  0.00000E+00  9.000E+00
      21     1     1     2   513   512  1.829850889E+00  3.778118310E+00  3.881349468E+00  5.717290087E+00  0.000000000E+00  0.00000E+00  9.000E+00
</event>
<event>
      5  10001  2.40292E+09  1.71645E+01 -1.00000E+00  1.71996E-01
      -1    -1     0     0     0   511  0.000000000E+00  0.000000000E+00  8.403806116E+00  8.403806116E+00  0.000000000E+00  0.00000E+00  9.000E+00
       4    -1     0     0   511     0  0.000000000E+00  0.000000000E+00 -3.773766772E+02  3.773766772E+02  0.000000000E+00  0.00000E+00  9.000E+00
      21     1     1     2   515   514 -4.823550009E+00  1.008197422E+01 -1.153650835E+01  1.606249868E+01  1.685873940E-07  0.00000E+00  9.000E+00
       4     1     1     2   514     0  9.999615478E+00 -1.933376355E+01 -3.584040219E+02  3.590675140E+02  1.500000000E+00  0.00000E+00  9.000E+00
      -1     1     1     2     0   515 -5.176065469E+00  9.251789326E+00  9.676591778E-01  1.065047059E+01  3.300000131E-01  0.00000E+00  9.000E+00
</event>
<event>
      5  10001  2.40292E+09  4.48288E+00 -1.00000E+00  2.52229E-01
      21    -1     0     0   512   514  0.000000000E+00  0.000000000E+00  1.266312525E+02  1.266312525E+02  0.000000000E+00  0.00000E+00  9.000E+00
      21    -1     0     0   511   516  0.000000000E+00  0.000000000E+00 -2.122622695E+00  2.122622695E+00  0.000000000E+00  0.00000E+00  9.000E+00
      21     1     1     2   512   513 -8.596796147E+00 -5.132794076E+00  5.656537478E+01  5.744468734E+01  9.536743164E-07  0.00000E+00  9.000E+00
      21     1     1     2   511   514  9.631452169E+00  9.494643145E+00  6.375673814E+01  6.517541544E+01  1.348699152E-06  0.00000E+00  9.000E+00
      21     1     1     2   513   516 -1.034656021E+00 -4.361849069E+00  4.186516857E+00  6.133772393E+00  1.460009660E-07  0.00000E+00  9.000E+00
</event>
<event>
      5  10001  2.40292E+09  2.66780E+00 -1.00000E+00  3.13087E-01
      21    -1     0     0   515   511  0.000000000E+00  0.000000000E+00  3.156067644E+00  3.156067644E+00  0.000000000E+00  0.00000E+00  9.000E+00
      -2    -1     0     0     0   517  0.000000000E+00  0.000000000E+00 -4.471850330E+02  4.471850330E+02  0.000000000E+00  0.00000E+00  9.000E+00
      21     1     1     2   515   517 -6.139721376E+00 -7.977267871E+00 -7.996817360E+00  1.285620742E+01  3.953724850E-07  0.00000E+00  9.000E+00
      21     1     1     2   513   511  3.984084663E+00  9.548909562E+00 -3.635446752E+01  3.779817341E+01  0.000000000E+00  0.00000E+00  9.000E+00
      -2     1     1     2     0   513  2.155636713E+00 -1.571641692E+00 -3.996776805E+02  3.996867198E+02  3.300000131E-01  0.00000E+00  9.000E+00
</event>
<event>
      5  10001  2.40292E+09  9.06517E+00 -1.00000E+00  2.00755E-01
      -1    -1     0     0     0   512  0.000000000E+00  0.000000000E+00  4.413695507E+01  4.413695507E+01  0.000000000E+00  0.00000E+00  9.000E+00
      21    -1     0     0   511   513  0.000000000E+00  0.000000000E+00 -2.879955547E+00  2.879955547E+00  0.000000000E+00  0.00000E+00  9.000E+00
      -1     1     1     2     0   514  5.690702321E+00  2.503238451E+00  3.427433348E+01  3.483517089E+01  3.300000131E-01  0.00000E+00  9.000E+00
      21     1     1     2   511   512 -6.897709115E+00 -9.422436246E-01  7.405174094E+00  1.016379936E+01  1.460009660E-07  0.00000E+00  9.000E+00
      21     1     1     2   514   513  1.207006794E+00 -1.560994827E+00 -4.225080521E-01  2.017940362E+00  1.255594160E-07  0.00000E+00  9.000E+00
</event>
<event>
      5  10001  2.40292E+09  5.43706E+00 -1.00000E+00  2.32245E-01
      21    -1     0     0   517   512  0.000000000E+00  0.000000000E+00  1.962317319E+02  1.962317319E+02  0.000000000E+00  0.00000E+00  9.000E+00
      21    -1     0     0   516   515  0.000000000E+00  0.000000000E+00 -2.981239824E+00  2.981239824E+00  0.000000000E+00  0.00000E+00  9.000E+00
      21     1     1     2   511   512  1.299983338E+01  5.013888662E+00  1.353695369E+02  1.360847025E+02  1.907348633E-06  0.00000E+00  9.000E+00
      21     1     1     2   516   511 -7.680989569E+00 -3.886291890E+00  4.972450658E+00  9.941133283E+00  4.172325134E-07  0.00000E+00  9.000E+00
      21     1     1     2   517   515 -5.318843813E+00 -1.127596772E+00  5.290850453E+01  5.318713591E+01  6.743495762E-07  0.00000E+00  9.000E+00
</event>
<event>
      5  10001  2.40292E+09  7.94348E+00 -1.00000E+00  2.08008E-01
      21    -1     0     0   513   515  0.000000000E+00  0.000000000E+00  2.509603640E+00  2.509603640E+00  0.000000000E+00  0.00000E+00  9.000E+00
      21    -1     0     0   512   514  0.000000000E+00  0.000000000E+00 -5.625717714E+01  5.625717714E+01  0.000000000E+00  0.00000E+00  9.000E+00
      21     1     1     2   513   514  6.126280810E+00 -8.559931392E+00 -2.428197420E+01  2.646541163E+01  5.840038640E-07  0.00000E+00  9.000E+00
      21     1     1     2   512   511 -1.809508837E+00  5.195667200E+00 -5.732826539E+00  7.945727154E+00  1.884864366E-07  0.00000E+00  9.000E+00
      21     1     1     2   511   515 -4.316771973E+00  3.364264192E+00 -2.373277276E+01  2.435564199E+01  3.371747881E-07  0.00000E+00  9.000E+00
</event>
<event>
      5  10001  2.40292E+09  1.52410E+01 -1.00000E+00  1.76687E-01
      21    -1     0     0   511   512  0.000000000E+00  0.000000000E+00  6.304964848E+01  6.304964848E+01  0.000000000E+00  0.00000E+00  9.000E+00
       4    -1     0     0   515     0  0.000000000E+00  0.000000000E+00 -6.680815259E+01  6.680815259E+01  0.000000000E+00  0.00000E+00  9.000E+00
      21     1     1     2   515   512 -7.090164975E+00  7.382005722E+00  5.862613211E+01  5.951292140E+01  6.743495762E-07  0.00000E+00  9.000E+00
      21     1     1     2   511   513  3.895475976E+00  4.460716234E+00 -5.622743942E+01  5.653846183E+01  0.000000000E+00  0.00000E+00  9.000E+00
       4     1     1     2   513     0  3.194688999E+00 -1.184272196E+01 -6.157196807E+00  1.380641784E+01  1.500000000E+00  0.00000E+00  9.000E+00
</event>
<event>
      5  10001  2.40292E+09  5.53742E+00 -1.00000E+00  2.30940E-01
      21    -1     0     0   514   515  0.000000000E+00  0.000000000E+00  1.833324560E+01  1.833324560E+01  0.000000000E+00  0.00000E+00  9.000E+00
      21    -1     0     0   511   516  0.000000000E+00  0.000000000E+00 -4.523489945E+02  4.523489945E+02  0.000000000E+00  0.00000E+00  9.000E+00
      21     1     1     2   514   516  8.124430021E+00  8.597262486E+00  1.515420574E+01  1.922418365E+01  2.920019320E-07  0.00000E+00  9.000E+00
      21     1     1     2   512   515 -4.493938074E+00 -1.277847044E+01 -3.963697965E+01  4.188764665E+01  6.743495762E-07  0.00000E+00  9.000E+00
      21     1     1     2   511   512 -3.630491947E+00  4.181207957E+00 -4.095329750E+02  4.095704098E+02  5.394796609E-06  0.00000E+00  9.000E+00
</event>
<event>
      5  10001  2.40292E+09  5.09956E+00 -1.00000E+00  2.36943E-01
      21    -1     0     0   513   512  0.000000000E+00  0.000000000E+00  5.512144354E+01  5.512144354E+01  0.000000000E+00  0.00000E+00  9.000E+00
      21    -1     0     0   511   517  0.000000000E+00  0.000000000E+00 -9.891468780E+01  9.891468780E+01  0.000000000E+00  0.00000E+00  9.000E+00
      21     1     1     2   513   517  9.587343364E+00 -3.353845686E+00 -9.759084973E+01  9.811798706E+01  1.348699152E-06  0.00000E+00  9.000E+00
      21     1     1     2   511   514 -7.269674787E+00 -1.300620064E+00  4.571390334E+01  4.630659503E+01  6.743495762E-07  0.00000E+00  9.000E+00
      21     1     1     2   514   512 -2.317668576E+00  4.654465750E+00  8.083702124E+00  9.611549255E+00  2.064765462E-07  0.00000E+00  9.000E+00
</event>
<event>
      5  10001  2.40292E+09  4.72124E+00 -1.00000E+00  2.47489E-01
       2    -1     0     0   511     0  0.000000000E+00  0.000000000E+00  1.739412294E+02  1.739412294E+02  0.000000000E+00  0.00000E+00  9.000E+00
      21    -1     0     0   513   515  0.000000000E+00  0.000000000E+00 -7.677172605E+01  7.677172605E+01  0.000000000E+00  0.00000E+00  9.000E+00
      21     1     1     2   511   515  7.725205936E+00 -3.561675356E+00  8.991346328E+00  1.237774805E+01  1.192092896E-07  0.00000E+00  9.000E+00
       2     1     1     2   514     0 -1.000275768E+01  7.697224426E+00  1.629379948E+02  1.634264406E+02  3.300000131E-01  0.00000E+00  9.000E+00
      21     1     1     2   513   514  2.277551740E+00 -4.135549070E+00 -7.475983777E+01  7.490876685E+01  9.536743164E-07  0.00000E+00  9.000E+00
</event>
<event>
      5  10001  2.40292E+09  6.11896E+00 -1.00000E+00  2.24078E-01
      21    -1     0     0   512   514  0.000000000E+00  0.000000000E+00  1.756971058E+01  1.756971058E+01  0.000000000E+00  0.00000E+00  9.000E+00
      21    -1     0     0   511   512  0.000000000E+00  0.000000000E+00 -8.808854851E+01  8.808854851E+01  0.000000000E+00  0.00000E+00  9.000E+00
      21     1     1     2   513   516 -3.704987030E-01  1.357644783E+01 -2.089359876E+01  2.491986504E+01  4.129530925E-07  0.00000E+00  9.000E+00
      21     1     1     2   516   514 -3.190728041E+00 -8.600577578E+00  1.404469605E+01  1.677510558E+01  2.384185791E-07  0.00000E+00  9.000E+00
      21     1     1     2   511   513  3.561226744E+00 -4.975870247E+00 -6.366993522E+01  6.396328847E+01  9.536743164E-07  0.00000E+00  9.000E+00
</event>
<event>
      5  10001  2.40292E+09  5.30038E+00 -1.00000E+00  2.34088E-01
      -3    -1     0     0     0   513  0.000000000E+00  0.000000000E+00  1.429858320E+02  1.429858320E+02  0.000000000E+00  0.00000E+00  9.000E+00
      21    -1     0     0   514   515  0.000000000E+00  0.000000000E+00 -3.296320667E+00  3.296320667E+00  0.000000000E+00  0.00000E+00  9.000E+00
      -3     1     1     2     0   512  1.698812870E+01 -3.365559308E+00  8.521554847E+01  8.695897428E+01  5.000000000E-01  0.00000E+00  9.000E+00
      21     1     1     2   514   513 -1.523910647E+01  8.368195104E+00  4.737444115E+01  5.046379623E+01  9.536743164E-07  0.00000E+00  9.000E+00
      21     1     1     2   512   515 -1.749022231E+00 -5.002635796E+00  7.099521696E+00  8.859382145E+00  1.460009660E-07  0.00000E+00  9.000E+00
</event>
<event>
      5  10001  2.40292E+09  5.44044E+00 -1.00000E+00  2.32201E-01
      21    -1     0     0   511   514  0.000000000E+00  0.000000000E+00  1.752889290E+02  1.752889290E+02  0.000000000E+00  0.00000E+00  9.000E+00
      21    -1     0     0   512   516  0.000000000E+00  0.000000000E+00 -3.939767128E+00  3.939767128E+00  0.000000000E+00  0.00000E+00  9.000E+00
      21     1     1     2   511   516  3.856264403E+00  1.212633770E+01  1.617219791E+02  1.622218153E+02  0.000000000E+00  0.00000E+00  9.000E+00
      21     1     1     2   513   514  1.621119053E-01 -5.090475230E+00  1.035540336E+00  5.197264870E+00  2.015791723E-07  0.00000E+00  9.000E+00
      21     1     1     2   512   513 -4.018376308E+00 -7.035862465E+00  8.591642420E+00  1.180961592E+01  2.384185791E-07  0.00000E+00  9.000E+00
</event>
<event>
      5  10001  2.40292E+09  6.16811E+00 -1.00000E+00  2.23547E-01
      21    -1     0     0   515   512  0.000000000E+00  0.000000000E+00  4.336721975E+00  4.336721975E+00  0.000000000E+00  0.00000E+00  9.000E+00
      -3    -1     0     0     0   515  0.000000000E+00  0.000000000E+00 -4.229049557E+01  4.229049557E+01  0.000000000E+00  0.00000E+00  9.000E+00
      -3     1     1     2     0   511 -4.014972067E+00 -8.869144276E+00 -3.325445358E+01  3.465386564E+01  5.000000000E-01  0.00000E+00  9.000E+00
      21     1     1     2   511   514  2.555389563E+00  1.677326760E+00  3.336294216E-01  3.074857634E+00  9.048698695E-08  0.00000E+00  9.000E+00
      21     1     1     2   514   512  1.459582504E+00  7.191817517E+00 -5.032949437E+00  8.898494272E+00  1.576990671E-07  0.00000E+00  9.000E+00
</event>
<event>
      5  10001  2.40292E+09  3.41354E+00 -1.00000E+00  2.80702E-01
      21    -1     0     0   513   511  0.000000000E+00  0.000000000E+00  3.910010977E+01  3.910010977E+01  0.000000000E+00  0.00000E+00  9.000E+00
      21    -1     0     0   515   513  0.000000000E+00  0.000000000E+00 -1.912405855E+02  1.912405855E+02  0.000000000E+00  0.00000E+00  9.000E+00
      21     1     1     2   512   516  1.738195572E+01 -7.716804376E-01 -7.463559083E+01  7.663680117E+01  0.000000000E+00  0.00000E+00  9.000E+00
      21     1     1     2   516   511 -1.595084370E+01  3.870736286E+00  3.630490798E+01  3.984292105E+01  0.000000000E+00  0.00000E+00  9.000E+00
      21     1     1     2   515   512 -1.431112021E+00 -3.099055849E+00 -1.138097929E+02  1.138609731E+02  0.000000000E+00  0.00000E+00  9.000E+00
</event>
<event>
      5  10001  2.40292E+09  6.28169E+00 -1.00000E+00  2.22345E-01
      21    -1     0     0   514   516  0.000000000E+00  0.000000000E+00  1.143867520E+01  1.143867520E+01  0.000000000E+00  0.00000E+00  9.000E+00
      21    -1     0     0   515   512  0.000000000E+00  0.000000000E+00 -2.383290256E+01  2.383290256E+01  0.000000000E+00  0.00000E+00  9.000E+00
      21     1     1     2   514   512 -1.094266869E+01  3.743727215E+00 -1.459059618E+01  1.861835085E+01  2.920019320E-07  0.00000E+00  9.000E+00
      21     1     1     2   515   511  9.333221465E+00 -8.518212596E-01  6.366097059E+00  1.132968729E+01  2.528810911E-07  0.00000E+00  9.000E+00
      21     1     1     2   511   516  1.609447224E+00 -2.891905955E+00 -4.169728243E+00  5.323539616E+00  1.032382731E-07  0.00000E+00  9.000E+00
</event>
<event>
      5  10001  2.40292E+09  2.23824E+01 -1.00000E+00  1.62395E-01
      21    -1     0     0   511   515  0.000000000E+00  0.000000000E+00  1.135882504E+03  1.135882504E+03  0.000000000E+00  0.00000E+00  9.000E+00
      -2    -1     0     0     0   512  0.000000000E+00  0.000000000E+00 -7.414914680E+00  7.414914680E+00  0.000000000E+00  0.00000E+00  9.000E+00
      -2     1     1     2     0   515 -2.601521545E+01  2.605846600E+01  4.674183649E+01  5.950414493E+01  3.300000131E-01  0.00000E+00  9.000E+00
      21     1     1     2   511   513  6.575250455E+00 -1.496542604E+01  9.527233743E+02  9.528635925E+02  1.525878906E-05  0.00000E+00  9.000E+00
      21     1     1     2   513   512  1.943996500E+01 -1.109303996E+01  1.290023780E+02  1.309296808E+02  0.000000000E+00  0.00000E+00  9.000E+00
</event>
<event>
      5  10001  2.40292E+09  1.22026E+01 -1.00000E+00  1.86214E-01
      21    -1     0     0   514   512  0.000000000E+00  0.000000000E+00  6.476778104E+01  6.476778104E+01  0.000000000E+00  0.00000E+00  9.000E+00
      21    -1     0     0   515   516  0.000000000E+00  0.000000000E+00 -5.058008367E+00  5.058008367E+00  0.000000000E+00  0.00000E+00  9.000E+00
      21     1     1     2   514   516  9.727255536E+00 -5.482105653E+00  3.802131499E+01  3.962692741E+01  4.768371582E-07  0.00000E+00  9.000E+00
      21     1     1     2   511   512 -1.176312249E+01  9.480396357E+00  2.066190398E+01  2.559615678E+01  0.000000000E+00  0.00000E+00  9.000E+00
      21     1     1     2   515   511  2.035866949E+00 -3.998290704E+00  1.026553700E+00  4.602705214E+00  1.053671213E-07  0.00000E+00  9.000E+00
</event>
<event>
      5  10001  2.40292E+09  4.86114E+00 -1.00000E+00  2.44899E-01
      21    -1     0     0   511   514  0.000000000E+00  0.000000000E+00  5.266605346E+01  5.266605346E+01  0.000000000E+00  0.00000E+00  9.000E+00
       2    -1     0     0   512     0  0.000000000E+00  0.000000000E+00 -6.581945718E+01  6.581945718E+01  0.000000000E+00  0.00000E+00  9.000E+00
      21     1     1     2   511   513 -2.252339260E+00  1.250719511E+01  1.647504322E+00  1.281472716E+01  2.149076030E-07  0.00000E+00  9.000E+00
       2     1     1     2   513     0  3.382169276E-01 -8.038811550E+00 -5.983532793E+01  6.037476501E+01  3.300000131E-01  0.00000E+00  9.000E+00
      21     1     1     2   512   514  1.914122332E+00 -4.468383559E+00  4.503441988E+01  4.529601848E+01  8.259061849E-07  0.00000E+00  9.000E+00
</event>
<event>
      5  10001  2.40292E+09  1.66580E+01 -1.00000E+00  1.73154E-01
      21    -1     0     0   515   513  0.000000000E+00  0.000000000E+00  2.800727766E+00  2.800727766E+00  0.000000000E+00  0.00000E+00  9.000E+00
      21    -1     0     0   512   514  0.000000000E+00  0.000000000E+00 -4.794859905E+01  4.794859905E+01  0.000000000E+00  0.00000E+00  9.000E+00
      21     1     1     2   515   514  6.148297630E+00  4.465302189E+00 -1.258400262E+01  1.470025882E+01  0.000000000E+00  0.00000E+00  9.000E+00
      21     1     1     2   512   511  3.197605919E+00 -5.155841073E+00 -1.381982552E+01  1.509287773E+01  0.000000000E+00  0.00000E+00  9.000E+00
      21     1     1     2   511   513 -9.345903548E+00  6.905388843E-01 -1.874404314E+01  2.095619026E+01  0.000000000E+00  0.00000E+00  9.000E+00
</event>
<event>
      5  10001  2.40292E+09  4.56661E+00 -1.00000E+00  2.50514E-01
       2    -1     0     0   512     0  0.000000000E+00  0.000000000E+00  1.068912120E+02  1.068912120E+02  0.000000000E+00  0.00000E+00  9.000E+00
      21    -1     0     0   511   516  0.000000000E+00  0.000000000E+00 -1.737538167E+02  1.737538167E+02  0.000000000E+00  0.00000E+00  9.000E+00
      21     1     1     2   514   516  1.644525212E+01  1.864713297E+00 -1.682611936E+02  1.690732171E+02  5.722045898E-06  0.00000E+00  9.000E+00
       2     1     1     2   511     0 -1.487089319E+01  1.586466558E+00  1.051665784E+02  1.062251310E+02  3.300000131E-01  0.00000E+00  9.000E+00
      21     1     1     2   512   514 -1.574358931E+00 -3.451179855E+00 -3.767989575E+00  5.346680641E+00  1.192092896E-07  0.00000E+00  9.000E+00
</event>
<event>
      5  10001  2.40292E+09  2.41979E+01 -1.00000E+00  1.59781E-01
      21    -1     0     0   513   511  0.000000000E+00  0.000000000E+00  1.518347104E+01  1.518347104E+01  0.000000000E+00  0.00000E+00  9.000E+00
       2    -1     0     0   512     0  0.000000000E+00  0.000000000E+00 -1.250466534E+02  1.250466534E+02  0.000000000E+00  0.00000E+00  9.000E+00
      21     1     1     2   515   511 -6.041537164E+00 -4.598592097E+00  1.104558633E+01  1.340343978E+01  7.251217997E-07  0.00000E+00  9.000E+00
       2     1     1     2   513     0 -7.890571585E-01 -9.518651981E+00 -1.011498657E+02  1.016003522E+02  3.300000131E-01  0.00000E+00  9.000E+00
      21     1     1     2   512   515  6.830594323E+00  1.411724408E+01 -1.975890297E+01  2.522633239E+01  4.129530925E-07  0.00000E+00  9.000E+00
</event>
<event>
      5  10001  2.40292E+09  4.07250E+00 -1.00000E+00  2.61539E-01
      21    -1     0     0   514   512  0.000000000E+00  0.000000000E+00  8.285491840E+00  8.285491840E+00  0.000000000E+00  0.00000E+00  9.000E+00
      21    -1     0     0   511   515  0.000000000E+00  0.000000000E+00 -4.451838911E+01  4.451838911E+01  0.000000000E+00  0.00000E+00  9.000E+00
      21     1     1     2   514   515  5.450587414E+00 -8.759327798E+00 -3.922857048E+01  4.056248845E+01  4.768371582E-07  0.00000E+00  9.000E+00
      21     1     1     2   511   513 -1.970666656E+00  8.054739456E+00  1.721240581E+00  8.469062753E+00  2.665600750E-07  0.00000E+00  9.000E+00
      21     1     1     2   513   512 -3.479920757E+00  7.045883416E-01  1.274432635E+00  3.772329751E+00  3.332000937E-08  0.00000E+00  9.000E+00
</event>
<event>
      5  10001  2.40292E+09  6.15622E+00 -1.00000E+00  2.23675E-01
      21    -1     0     0   516   514  0.000000000E+00  0.000000000E+00  1.314934012E+02  1.314934012E+02  0.000000000E+00  0.00000E+00  9.000E+00
      21    -1     0     0   517   512  0.000000000E+00  0.000000000E+00 -1.178687600E+02  1.178687600E+02  0.000000000E+00  0.00000E+00  9.000E+00
      21     1     1     2   516   512  2.469365438E+00  1.849414275E+01 -7.970887538E+01  8.186351993E+01  0.000000000E+00  0.00000E+00  9.000E+00
      21     1     1     2   517   511 -3.119489509E+00 -1.237234755E+01 -3.590952862E+01  3.810905987E+01  0.000000000E+00  0.00000E+00  9.000E+00
      21     1     1     2   511   514  6.501240704E-01 -6.121795195E+00  1.292430452E+02  1.293895813E+02  1.907348633E-06  0.00000E+00  9.000E+00
</event>
<event>
      5  10001  2.40292E+09  3.42598E+01 -1.00000E+00  1.49106E-01
      21    -1     0     0   513   512  0.000000000E+00  0.000000000E+00  1.826322188E+01  1.826322188E+01  0.000000000E+00  0.00000E+00  9.000E+00
       2    -1     0     0   514     0  0.000000000E+00  0.000000000E+00 -8.433163248E+02  8.433163248E+02  0.000000000E+00  0.00000E+00  9.000E+00
      21     1     1     2   513   511 -2.350076550E+01  7.014499336E+00 -1.086033480E+02  1.113381174E+02  2.697398305E-06  0.00000E+00  9.000E+00
       2     1     1     2   511     0  2.054369434E+01  2.711739052E+01 -7.151481479E+02  7.159569670E+02  3.300000131E-01  0.00000E+00  9.000E+00
      21     1     1     2   514   512  2.957071164E+00 -3.413188986E+01 -1.301607002E+00  3.428446231E+01  3.257872330E-07  0.00000E+00  9.000E+00
</event>
<event>
      5  10001  2.40292E+09  1.13621E+01 -1.00000E+00  1.89503E-01
      21    -1     0     0   515   516  0.000000000E+00  0.000000000E+00  4.616119615E+01  4.616119615E+01  0.000000000E+00  0.00000E+00  9.000E+00
      21    -1     0     0   511   515  0.000000000E+00  0.000000000E+00 -8.738509753E+01  8.738509753E+01  0.000000000E+00  0.00000E+00  9.000E+00
      21     1     1     2   514   516  1.127110256E+01 -8.619448718E+00  4.212966700E+01  4.445493775E+01  9.536743164E-07  0.00000E+00  9.000E+00
      21     1     1     2   512   514 -1.692014560E+01 -1.238860139E+00 -2.930673235E+01  3.386311655E+01  3.371747881E-07  0.00000E+00  9.000E+00
      21     1     1     2   511   512  5.649043039E+00  9.858308857E+00 -5.404683603E+01  5.522823939E+01  0.000000000E+00  0.00000E+00  9.000E+00
</event>
<event>
      5  10001  2.40292E+09  5.56886E+00 -1.00000E+00  2.30540E-01
      21    -1     0     0   511   514  0.000000000E+00  0.000000000E+00  3.283652552E+01  3.283652552E+01  0.000000000E+00  0.00000E+00  9.000E+00
       1    -1     0     0   513     0  0.000000000E+00  0.000000000E+00 -5.588047220E+01  5.588047220E+01  0.000000000E+00  0.00000E+00  9.000E+00
      21     1     1     2   513   512 -1.370277819E+01  9.222184019E+00  2.481651839E+01  2.981064228E+01  8.259061849E-07  0.00000E+00  9.000E+00
       1     1     1     2   511     0  1.043077256E+01 -1.372831751E+01 -5.003862944E+01  5.292675178E+01  3.300000131E-01  0.00000E+00  9.000E+00
      21     1     1     2   512   514  3.272005631E+00  4.506133487E+00  2.178164381E+00  5.979603659E+00  8.429369702E-08  0.00000E+00  9.000E+00
</event>
<event>
      5  10001  2.40292E+09  2.36051E+01 -1.00000E+00  1.60603E-01
      -1    -1     0     0     0   514  0.000000000E+00  0.000000000E+00  7.510180758E+01  7.510180758E+01  0.000000000E+00  0.00000E+00  9.000E+00
      21    -1     0     0   515   511  0.000000000E+00  0.000000000E+00 -7.495681861E+00  7.495681861E+00  0.000000000E+00  0.00000E+00  9.000E+00
      -1     1     1     2     0   511 -8.516570568E+00 -5.710453632E+00 -1.034845155E+00  1.031121038E+01  3.300000131E-01  0.00000E+00  9.000E+00
      21     1     1     2   513   514  8.839215213E+00  7.892283656E+00  1.771715810E+01  2.131472632E+01  3.371747881E-07  0.00000E+00  9.000E+00
      21     1     1     2   515   513 -3.226446451E-01 -2.181830024E+00  5.092381278E+01  5.097155275E+01  9.536743164E-07  0.00000E+00  9.000E+00
</event>
<event>
      5  10001  2.40292E+09  1.43387E+01 -1.00000E+00  1.79200E-01
      21    -1     0     0   515   513  0.000000000E+00  0.000000000E+00  8.646776518E+02  8.646776518E+02  0.000000000E+00  0.00000E+00  9.000E+00
      -4    -1     0     0     0   511  0.000000000E+00  0.000000000E+00 -2.450344181E+00  2.450344181E+00  0.000000000E+00  0.00000E+00  9.000E+00
      -4     1     1     2     0   513  1.422626081E+01  1.364969010E-01  2.480669605E+01  2.863611875E+01  1.500000000E+00  0.00000E+00  9.000E+00
      21     1     1     2   515   512 -9.790095451E+00  1.349377996E+01  7.209240539E+02  7.211167864E+02  1.321449896E-05  0.00000E+00  9.000E+00
      21     1     1     2   512   511 -4.436165359E+00 -1.363027687E+01  1.164965577E+02  1.173750909E+02  2.336015456E-06  0.00000E+00  9.000E+00
</event>
<event>
      5  10001  2.40292E+09  5.74122E+00 -1.00000E+00  2.28406E-01
       1    -1     0     0   514     0  0.000000000E+00  0.000000000E+00  1.753269484E+02  1.753269484E+02  0.000000000E+00  0.00000E+00  9.000E+00
      21    -1     0     0   516   514  0.000000000E+00  0.000000000E+00 -2.387181457E+02  2.387181457E+02  0.000000000E+00  0.00000E+00  9.000E+00
      21     1     1     2   511   512 -8.642774708E+00 -5.691843847E+00 -9.435009355E+01  9.491593541E+01  1.907348633E-06  0.00000E+00  9.000E+00
      21     1     1     2   516   511  1.437718076E+01  5.412345675E+00 -1.436281796E+02  1.444473980E+02  1.907348633E-06  0.00000E+00  9.000E+00
       1     1     1     2   512     0 -5.734406050E+00  2.794981716E-01  1.745870759E+02  1.746817607E+02  3.300000131E-01  0.00000E+00  9.000E+00
</event>
<event>
      5  10001  2.40292E+09  4.63069E+00 -1.00000E+00  2.49239E-01
      21    -1     0     0   513   511  0.000000000E+00  0.000000000E+00  2.503957217E+02  2.503957217E+02  0.000000000E+00  0.00000E+00  9.000E+00
      21    -1     0     0   515   513  0.000000000E+00  0.000000000E+00 -2.192995828E+01  2.192995828E+01  0.000000000E+00  0.00000E+00  9.000E+00
      21     1     1     2   515   517 -1.749087065E+00 -9.540967707E+00 -2.026506218E+01  2.246691157E+01  6.743495762E-07  0.00000E+00  9.000E+00
      21     1     1     2   517   512  4.509472369E+00  1.325896811E+01  9.202736311E+01  9.308690100E+01  1.348699152E-06  0.00000E+00  9.000E+00
      21     1     1     2   512   511 -2.760385303E+00 -3.718000398E+00  1.567034625E+02  1.567718674E+02  1.907348633E-06  0.00000E+00  9.000E+00
</event>
<event>
      5  10001  2.40292E+09  5.55084E+00 -1.00000E+00  2.30769E-01
      21    -1     0     0   514   516  0.000000000E+00  0.000000000E+00  1.567762978E+00  1.567762978E+00  0.000000000E+00  0.00000E+00  9.000E+00
      21    -1     0     0   515   511  0.000000000E+00  0.000000000E+00 -3.320518835E+02  3.320518835E+02  0.000000000E+00  0.00000E+00  9.000E+00
      21     1     1     2   514   511  9.488003642E+00 -2.481542461E+00 -2.949722604E+02  2.951352481E+02  3.814697266E-06  0.00000E+00  9.000E+00
      21     1     1     2   513   516 -4.840106367E+00  1.274903123E+00 -3.483582232E+00  6.098143388E+00  7.001960352E-07  0.00000E+00  9.000E+00
      21     1     1     2   515   513 -4.647897275E+00  1.206639338E+00 -3.202827792E+01  3.238625502E+01  0.000000000E+00  0.00000E+00  9.000E+00
</event>
<event>
      5  10001  2.40292E+09  8.11923E+00 -1.00000E+00  2.06769E-01
      21    -1     0     0   512   516  0.000000000E+00  0.000000000E+00  1.335117813E+02  1.335117813E+02  0.000000000E+00  0.00000E+00  9.000E+00
      21    -1     0     0   511   512  0.000000000E+00  0.000000000E+00 -5.440511397E+00  5.440511397E+00  0.000000000E+00  0.00000E+00  9.000E+00
      21     1     1     2   513   516 -5.430697429E+00 -4.000968692E+00  1.071946483E+02  1.074066704E+02  0.000000000E+00  0.00000E+00  9.000E+00
      21     1     1     2   515   513  8.420785025E+00  1.154955741E+01  8.161705361E+00  1.645950580E+01  3.371747881E-07  0.00000E+00  9.000E+00
      21     1     1     2   511   515 -2.990087597E+00 -7.548588714E+00  1.271491621E+01  1.508611645E+01  1.685873940E-07  0.00000E+00  9.000E+00
</event>
<event>
      5  10001  2.40292E+09  1.25539E+01 -1.00000E+00  1.84939E-01
      21    -1     0     0   514   515  0.000000000E+00  0.000000000E+00  3.743902777E+01  3.743902777E+01  0.000000000E+00  0.00000E+00  9.000E+00
      21    -1     0     0   511   514  0.000000000E+00  0.000000000E+00 -2.970729571E+01  2.970729571E+01  0.000000000E+00  0.00000E+00  9.000E+00
      21     1     1     2   511   517 -1.060806228E+01 -9.764354563E+00 -2.398461126E+01  2.798455257E+01  0.000000000E+00  0.00000E+00  9.000E+00
      21     1     1     2   512   515  3.427739346E-03  7.457521325E+00  2.568511156E+01  2.674583317E+01  4.768371582E-07  0.00000E+00  9.000E+00
      21     1     1     2   517   512  1.060463454E+01  2.306833239E+00  6.031231758E+00  1.241593774E+01  1.460009660E-07  0.00000E+00  9.000E+00
</event>
<event>
      5  10001  2.40292E+09  1.13805E+01 -1.00000E+00  1.89427E-01
       3    -1     0     0   513     0  0.000000000E+00  0.000000000E+00  2.150310333E+02  2.150310333E+02  0.000000000E+00  0.00000E+00  9.000E+00
      21    -1     0     0   516   513  0.000000000E+00  0.000000000E+00 -6.683624581E+01  6.683624581E+01  0.000000000E+00  0.00000E+00  9.000E+00
      21     1     1     2   516   511 -2.505139438E+00  7.441379442E+00 -6.403447833E+01  6.451406255E+01  0.000000000E+00  0.00000E+00  9.000E+00
      21     1     1     2   511   512  1.039327834E+01 -1.564450270E+01  3.468498585E+01  3.944387079E+01  0.000000000E+00  0.00000E+00  9.000E+00
       3     1     1     2   512     0 -7.888138903E+00  8.203123256E+00  1.775442800E+02  1.779093458E+02  5.000000000E-01  0.00000E+00  9.000E+00
</event>
<event>
      5  10001  2.40292E+09  8.37176E+00 -1.00000E+00  2.05060E-01
      21    -1     0     0   511   515  0.000000000E+00  0.000000000E+00  8.018204889E+00  8.018204889E+00  0.000000000E+00  0.00000E+00  9.000E+00
      -2    -1     0     0     0   514  0.000000000E+00  0.000000000E+00 -1.941581647E+02  1.941581647E+02  0.000000000E+00  0.00000E+00  9.000E+00
      -2     1     1     2     0   512 -1.372114721E+01 -6.784201962E+00 -1.440496030E+02  1.448609412E+02  3.300000131E-01  0.00000E+00  9.000E+00
      21     1     1     2   512   515  8.849295413E+00 -2.375890840E-02 -4.685471492E+01  4.768306726E+01  1.507891493E-06  0.00000E+00  9.000E+00
      21     1     1     2   511   514  4.871851799E+00  6.807960870E+00  4.764358120E+00  9.632361053E+00  5.430241572E-07  0.00000E+00  9.000E+00
</event>
<event>
      5  10001  2.40292E+09  8.52380E+00 -1.00000E+00  2.04070E-01
       2    -1     0     0   513     0  0.000000000E+00  0.000000000E+00  4.004628116E+02  4.004628116E+02  0.000000000E+00  0.00000E+00  9.000E+00
      21    -1     0     0   512   513  0.000000000E+00  0.000000000E+00 -5.086234143E-01  5.086234143E-01  0.000000000E+00  0.00000E+00  9.000E+00
      21     1     1     2   512   511 -5.741867850E+00  9.012912946E+00  8.468336903E+01  8.535499186E+01  9.536743164E-07  0.00000E+00  9.000E+00
       2     1     1     2   515     0  3.988617548E+00 -2.851502203E+00  2.462386860E+02  2.462877169E+02  3.300000131E-01  0.00000E+00  9.000E+00
      21     1     1     2   511   515  1.753250301E+00 -6.161410743E+00  6.903213313E+01  6.932872618E+01  9.536743164E-07  0.00000E+00  9.000E+00
</event>
<event>
      5  10001  2.40292E+09  4.25187E+00 -1.00000E+00  2.57271E-01
      21    -1     0     0   514   512  0.000000000E+00  0.000000000E+00  1.240654758E+03  1.240654758E+03  0.000000000E+00  0.00000E+00  9.000E+00
      21    -1     0     0   511   516  0.000000000E+00  0.000000000E+00 -1.406158121E-01  1.406158121E-01  0.000000000E+00  0.00000E+00  9.000E+00
      21     1     1     2   514   516 -4.496544801E+00  1.163719496E+01  6.109739715E+02  6.111013313E+02  0.000000000E+00  0.00000E+00  9.000E+00
      21     1     1     2   511   513  5.371059082E+00 -7.505602535E+00  3.487014049E+02  3.488235258E+02  6.607249480E-06  0.00000E+00  9.000E+00
      21     1     1     2   513   512 -8.745142810E-01 -4.131592427E+00  2.808387660E+02  2.808705170E+02  0.000000000E+00  0.00000E+00  9.000E+00
</event>
<event>
      5  10001  2.40292E+09  2.83620E+00 -1.00000E+00  3.04322E-01
      21    -1     0     0   515   511  0.000000000E+00  0.000000000E+00  7.216700930E+00  7.216700930E+00  0.000000000E+00  0.00000E+00  9.000E+00
      21    -1     0     0   517   512  0.000000000E+00  0.000000000E+00 -2.725799295E+01  2.725799295E+01  0.000000000E+00  0.00000E+00  9.000E+00
      21     1     1     2   515   512  1.260242559E+01  5.104400069E-01 -2.848835684E+00  1.293048895E+01  1.519626234E-07  0.00000E+00  9.000E+00
      21     1     1     2   517   514 -6.225077791E+00 -5.402803222E-02 -1.102244024E+01  1.265893761E+01  0.000000000E+00  0.00000E+00  9.000E+00
      21     1     1     2   514   511 -6.377347796E+00 -4.564119747E-01 -6.170016096E+00  8.885267324E+00  0.000000000E+00  0.00000E+00  9.000E+00
</event>
<event>
      5  10001  2.40292E+09  9.50506E+00 -1.00000E+00  1.98281E-01
      21    -1     0     0   513   512  0.000000000E+00  0.000000000E+00  1.434337115E+02  1.434337115E+02  0.000000000E+00  0.00000E+00  9.000E+00
      21    -1     0     0   516   511  0.000000000E+00  0.000000000E+00 -2.023038543E+00  2.023038543E+00  0.000000000E+00  0.00000E+00  9.000E+00
      21     1     1     2   513   511 -3.964899063E+00 -7.389941689E+00  9.753855753E+01  9.789842628E+01  1.907348633E-06  0.00000E+00  9.000E+00
      21     1     1     2   516   515  3.857739357E-02  7.667333725E+00  6.711657935E+00  1.018998758E+01  3.371747881E-07  0.00000E+00  9.000E+00
      21     1     1     2   515   512  3.926321669E+00 -2.773920356E-01  3.716045752E+01  3.736833621E+01  8.259061849E-07  0.00000E+00  9.000E+00
</event>
<event>
      5  10001  2.40292E+09  5.67611E+00 -1.00000E+00  2.29200E-01
      21    -1     0     0   514   512  0.000000000E+00  0.000000000E+00  7.423961129E+00  7.423961129E+00  0.000000000E+00  0.00000E+00  9.000E+00
      -2    -1     0     0     0   511  0.000000000E+00  0.000000000E+00 -1.502899791E+02  1.502899791E+02  0.000000000E+00  0.00000E+00  9.000E+00
      -2     1     1     2     0   513  1.372220973E+01  9.792520583E+00 -1.113996530E+02  1.126684698E+02  3.300000131E-01  0.00000E+00  9.000E+00
      21     1     1     2   513   512 -1.558774215E+01 -4.431909607E+00 -3.591692956E+00  1.659878870E+01  1.032382731E-07  0.00000E+00  9.000E+00
      21     1     1     2   514   511  1.865532422E+00 -5.360610976E+00 -2.787467203E+01  2.844668174E+01  4.768371582E-07  0.00000E+00  9.000E+00
</event>
<event>
      5  10001  2.40292E+09  6.08631E+00 -1.00000E+00  2.24435E-01
      21    -1     0     0   513   515  0.000000000E+00  0.000000000E+00  9.677686463E+01  9.677686463E+01  0.000000000E+00  0.00000E+00  9.000E+00
      21    -1     0     0   512   511  0.000000000E+00  0.000000000E+00 -1.821985957E+02  1.821985957E+02  0.000000000E+00  0.00000E+00  9.000E+00
      -5     1     1     2     0   511 -1.169966780E+01 -2.050354629E+01 -5.105474287E+00  2.462485546E+01  4.800000191E+00  0.00000E+00  9.000E+00
      21     1     1     2   512   515  6.495439856E+00  1.737332575E+01 -1.666457393E+02  1.676747614E+02  2.697398305E-06  0.00000E+00  9.000E+00
       5     1     1     2   513     0  5.204227944E+00  3.130220537E+00  8.632948257E+01  8.667584342E+01  4.800000191E+00  0.00000E+00  9.000E+00
</event>
<event>
      5  10001  2.40292E+09  7.86621E+00 -1.00000E+00  2.08566E-01
       2    -1     0     0   511     0  0.000000000E+00  0.000000000E+00  8.562248197E+02  8.562248197E+02  0.000000000E+00  0.00000E+00  9.000E+00
      21    -1     0     0   513   514  0.000000000E+00  0.000000000E+00 -2.485425594E-01  2.485425594E-01  0.000000000E+00  0.00000E+00  9.000E+00
       1     1     1     2   511     0  1.744668286E+00 -6.926686545E+00  1.957355680E+02  1.958661388E+02  3.300000131E-01  0.00000E+00  9.000E+00
       2     1     1     2   513     0  2.707326296E+00  1.251746946E+01  5.412686287E+02  5.414202194E+02  3.300000131E-01  0.00000E+00  9.000E+00
      -1     1     1     2     0   514 -4.451994582E+00 -5.590782918E+00  1.189720804E+02  1.191870040E+02  3.300000131E-01  0.00000E+00  9.000E+00
</event>
<event>
      5  10001  2.40292E+09  9.12828E+00 -1.00000E+00  2.00389E-01
       2    -1     0     0   512     0  0.000000000E+00  0.000000000E+00  2.089012780E+01  2.089012780E+01  0.000000000E+00  0.00000E+00  9.000E+00
      21    -1     0     0   516   515  0.000000000E+00  0.000000000E+00 -1.815588847E+02  1.815588847E+02  0.000000000E+00  0.00000E+00  9.000E+00
      21     1     1     2   512   515  8.543548369E+00  1.181627341E+01 -4.146506318E+01  4.395415794E+01  4.768371582E-07  0.00000E+00  9.000E+00
      21     1     1     2   516   513 -7.549646693E+00 -2.742335600E+00 -1.376641158E+02  1.378982463E+02  3.303624740E-06  0.00000E+00  9.000E+00
       2     1     1     2   513     0 -9.939016757E-01 -9.073937812E+00  1.846042206E+01  2.059660823E+01  3.300000131E-01  0.00000E+00  9.000E+00
</event>
<event>
      5  10001  2.40292E+09  1.39568E+01 -1.00000E+00  1.80335E-01
      21    -1     0     0   511   514  0.000000000E+00  0.000000000E+00  2.550812451E+02  2.550812451E+02  0.000000000E+00  0.00000E+00  9.000E+00
      -3    -1     0     0     0   511  0.000000000E+00  0.000000000E+00 -2.725431734E+01  2.725431734E+01  0.000000000E+00  0.00000E+00  9.000E+00
      -3     1     1     2     0   515  4.291404118E+00  3.307743591E+00 -2.613516563E+01  2.669558389E+01  5.000000000E-01  0.00000E+00  9.000E+00
      21     1     1     2   512   514 -1.131078924E+01 -4.669553146E+00  2.358551189E+02  2.361723434E+02  0.000000000E+00  0.00000E+00  9.000E+00
      21     1     1     2   515   512  7.019385120E+00  1.361809555E+00  1.810697449E+01  1.946763514E+01  3.371747881E-07  0.00000E+00  9.000E+00
</event>
<event>
      5  10001  2.40292E+09  3.37540E+00 -1.00000E+00  2.82023E-01
      21    -1     0     0   513   512  0.000000000E+00  0.000000000E+00  5.004545015E+00  5.004545015E+00  0.000000000E+00  0.00000E+00  9.000E+00
      21    -1     0     0   514   511  0.000000000E+00  0.000000000E+00 -8.801346661E+01  8.801346661E+01  0.000000000E+00  0.00000E+00  9.000E+00
      -3     1     1     2     0   511 -3.896580349E+00  1.369383869E+01 -2.464259106E+01  2.846422053E+01  5.000000000E-01  0.00000E+00  9.000E+00
       3     1     1     2   513     0  2.913189801E+00 -1.046629999E+01 -6.692391858E+00  1.276981672E+01  5.000000000E-01  0.00000E+00  9.000E+00
      21     1     1     2   514   512  9.833905477E-01 -3.227538700E+00 -5.167393868E+01  5.178397437E+01  0.000000000E+00  0.00000E+00  9.000E+00
</event>
<event>
      5  10001  2.40292E+09  4.20974E+00 -1.00000E+00  2.58244E-01
      21    -1     0     0   515   511  0.000000000E+00  0.000000000E+00  2.768789168E+01  2.768789168E+01  0.000000000E+00  0.00000E+00  9.000E+00
      21    -1     0     0   514   512  0.000000000E+00  0.000000000E+00 -7.582695469E+00  7.582695469E+00  0.000000000E+00  0.00000E+00  9.000E+00
      21     1     1     2   515   512  1.949259854E+00 -1.363907398E+01  1.410845471E+01  1.971984907E+01  1.685873940E-07  0.00000E+00  9.000E+00
      21     1     1     2   513   511  7.194278967E-01  6.950633119E+00  4.108562440E+00  8.106118836E+00  1.192092896E-07  0.00000E+00  9.000E+00
      21     1     1     2   514   513 -2.668687750E+00  6.688440862E+00  1.888179055E+00  7.444619239E+00  2.210199382E-07  0.00000E+00  9.000E+00
</event>
<event>
      5  10001  2.40292E+09  1.81045E+00 -1.00000E+00  3.84290E-01
      21    -1     0     0   516   512  0.000000000E+00  0.000000000E+00  2.751699198E+01  2.751699198E+01  0.000000000E+00  0.00000E+00  9.000E+00
      21    -1     0     0   514   517  0.000000000E+00  0.000000000E+00 -1.959309016E+01  1.959309016E+01  0.000000000E+00  0.00000E+00  9.000E+00
      21     1     1     2   516   517  1.449717331E+01 -8.814290496E+00 -1.176190072E+01  2.064466177E+01  3.371747881E-07  0.00000E+00  9.000E+00
      21     1     1     2   514   511 -1.223763924E+01  7.345247951E+00  1.884954540E+01  2.364355818E+01  6.307962682E-07  0.00000E+00  9.000E+00
      21     1     1     2   511   512 -2.259534069E+00  1.469042546E+00  8.362571437E-01  2.821862191E+00  3.799065585E-08  0.00000E+00  9.000E+00
</event>
<event>
      5  10001  2.40292E+09  2.61269E+00 -1.00000E+00  3.16200E-01
      21    -1     0     0   513   514  0.000000000E+00  0.000000000E+00  6.829471567E-01  6.829471567E-01  0.000000000E+00  0.00000E+00  9.000E+00
      21    -1     0     0   515   512  0.000000000E+00  0.000000000E+00 -3.295116855E+02  3.295116855E+02  0.000000000E+00  0.00000E+00  9.000E+00
      21     1     1     2   513   512  3.385967657E+00  1.144208758E+01 -2.436838649E+02  2.439758434E+02  3.814697266E-06  0.00000E+00  9.000E+00
      21     1     1     2   516   514 -5.079013800E+00 -1.018178893E+01 -6.814511862E+01  6.908851133E+01  1.348699152E-06  0.00000E+00  9.000E+00
      21     1     1     2   515   516  1.693046143E+00 -1.260298650E+00 -1.699975485E+01  1.713027796E+01  3.371747881E-07  0.00000E+00  9.000E+00
</event>
<event>
      5  10001  2.40292E+09  7.09970E+00 -1.00000E+00  2.14618E-01
      21    -1     0     0   511   512  0.000000000E+00  0.000000000E+00  4.340368451E+01  4.340368451E+01  0.000000000E+00  0.00000E+00  9.000E+00
      21    -1     0     0   515   517  0.000000000E+00  0.000000000E+00 -4.500913024E+00  4.500913024E+00  0.000000000E+00  0.00000E+00  9.000E+00
      21     1     1     2   511   517  2.065811122E+00 -9.644808795E+00  2.894044983E+01  3.057514593E+01  4.768371582E-07  0.00000E+00  9.000E+00
      21     1     1     2   513   512 -6.022784463E+00  6.504751367E+00  4.695147390E+00  1.003145712E+01  3.674277069E-07  0.00000E+00  9.000E+00
      21     1     1     2   515   513  3.956973341E+00  3.140057428E+00  5.267174265E+00  7.297994479E+00  1.460009660E-07  0.00000E+00  9.000E+00
</event>
<event>
      5  10001  2.40292E+09  1.45576E+01 -1.00000E+00  1.78569E-01
      21    -1     0     0   514   513  0.000000000E+00  0.000000000E+00  1.865943437E+01  1.865943437E+01  0.000000000E+00  0.00000E+00  9.000E+00
      21    -1     0     0   515   514  0.000000000E+00  0.000000000E+00 -1.830559142E+02  1.830559142E+02  0.000000000E+00  0.00000E+00  9.000E+00
      21     1     1     2   515   516 -1.425671510E+00  1.346354793E+01 -1.683627129E+02  1.689061952E+02  0.000000000E+00  0.00000E+00  9.000E+00
      21     1     1     2   511   513  6.066123629E+00 -2.799028394E+00  1.522231430E+01  1.662381630E+01  1.914784718E-06  0.00000E+00  9.000E+00
      21     1     1     2   516   511 -4.640452119E+00 -1.066451954E+01 -1.125608119E+01  1.618533708E+01  2.665600750E-07  0.00000E+00  9.000E+00
</event>
<event>
      5  10001  2.40292E+09  1.08639E+01 -1.00000E+00  1.91632E-01
      21    -1     0     0   514   511  0.000000000E+00  0.000000000E+00  1.155687761E+02  1.155687761E+02  0.000000000E+00  0.00000E+00  9.000E+00
       2    -1     0     0   513     0  0.000000000E+00  0.000000000E+00 -8.923527893E+01  8.923527893E+01  0.000000000E+00  0.00000E+00  9.000E+00
      21     1     1     2   513   511  1.495429781E+01  1.312378817E+00  2.900095657E+01  3.265591590E+01  1.617033478E-06  0.00000E+00  9.000E+00
       2     1     1     2   512     0 -2.423611884E+01  4.333016790E+00 -8.531118777E+01  8.879342402E+01  3.300000131E-01  0.00000E+00  9.000E+00
      21     1     1     2   514   512  9.281821026E+00 -5.645395607E+00  8.264372835E+01  8.335471510E+01  0.000000000E+00  0.00000E+00  9.000E+00
</event>
<event>
      5  10001  2.40292E+09  1.68221E+01 -1.00000E+00  1.72773E-01
      21    -1     0     0   515   512  0.000000000E+00  0.000000000E+00  6.955623605E+00  6.955623605E+00  0.000000000E+00  0.00000E+00  9.000E+00
      21    -1     0     0   511   516  0.000000000E+00  0.000000000E+00 -1.748294967E+01  1.748294967E+01  0.000000000E+00  0.00000E+00  9.000E+00
      21     1     1     2   515   516  4.553499614E+00  6.812612093E+00 -1.615522417E+00  8.352003050E+00  1.896608183E-07  0.00000E+00  9.000E+00
      21     1     1     2   511   513 -2.952611860E+00  2.468027054E+00 -1.617406830E+00  4.174335778E+00  7.598131170E-08  0.00000E+00  9.000E+00
      21     1     1     2   513   512 -1.600887755E+00 -9.280639147E+00 -7.294396814E+00  1.191223444E+01  1.884864366E-07  0.00000E+00  9.000E+00
</event>
<event>
      5  10001  2.40292E+09  2.80701E+00 -1.00000E+00  3.05766E-01
      -2    -1     0     0     0   512  0.000000000E+00  0.000000000E+00  2.327412129E+01  2.327412129E+01  0.000000000E+00  0.00000E+00  9.000E+00
      -2    -1     0     0     0   514  0.000000000E+00  0.000000000E+00 -4.539062985E+01  4.539062985E+01  0.000000000E+00  0.00000E+00  9.000E+00
      -2     1     1     2     0   512 -1.146788434E+01 -1.051606786E+01 -4.097745715E+01  4.383333149E+01  3.300000131E-01  0.00000E+00  9.000E+00
      21     1     1     2   511   514  7.569612318E+00  9.236434825E+00  1.280878593E+01  1.751216023E+01  4.460403188E-07  0.00000E+00  9.000E+00
      -2     1     1     2     0   511  3.898272026E+00  1.279633039E+00  6.052162662E+00  7.319259416E+00  3.300000131E-01  0.00000E+00  9.000E+00
</event>
<event>
      5  10001  2.40292E+09  3.25648E+00 -1.00000E+00  2.86330E-01
      21    -1     0     0   513   511  0.000000000E+00  0.000000000E+00  6.273574382E-01  6.273574382E-01  0.000000000E+00  0.00000E+00  9.000E+00
       2    -1     0     0   512     0  0.000000000E+00  0.000000000E+00 -6.534203591E+02  6.534203591E+02  0.000000000E+00  0.00000E+00  9.000E+00
      21     1     1     2   514   511 -8.288706262E+00 -9.013696440E-01 -3.511810111E+01  3.609426747E+01  0.000000000E+00  0.00000E+00  9.000E+00
       2     1     1     2   513     0  9.694747972E+00 -1.921149213E+00 -5.924092891E+02  5.924918174E+02  3.300000131E-01  0.00000E+00  9.000E+00
      21     1     1     2   512   514 -1.406041710E+00  2.822518857E+00 -2.526561140E+01  2.546163163E+01  5.840038640E-07  0.00000E+00  9.000E+00
</event>
<event>
      5  10001  2.40292E+09  1.99862E+01 -1.00000E+00  1.66352E-01
       4    -1     0     0   512     0  0.000000000E+00  0.000000000E+00  8.245720817E+01  8.245720817E+01  0.000000000E+00  0.00000E+00  9.000E+00
      21    -1     0     0   515   513  0.000000000E+00  0.000000000E+00 -7.465994604E+00  7.465994604E+00  0.000000000E+00  0.00000E+00  9.000E+00
      21     1     1     2   512   511  4.942645881E-01  1.163351514E+01  6.647562428E+00  1.340794757E+01  8.429369702E-08  0.00000E+00  9.000E+00
       4     1     1     2   515     0 -3.696603677E+00 -2.028557245E+01  2.620473301E+01  3.337824681E+01  1.500000000E+00  0.00000E+00  9.000E+00
      21     1     1     2   511   513  3.202339089E+00  8.652057310E+00  4.213891813E+01  4.313700839E+01  0.000000000E+00  0.00000E+00  9.000E+00
</event>
<event>
      5  10001  2.40292E+09  1.20006E+01 -1.00000E+00  1.86973E-01
      21    -1     0     0   514   512  0.000000000E+00  0.000000000E+00  2.805773182E+01  2.805773182E+01  0.000000000E+00  0.00000E+00  9.000E+00
      -2    -1     0     0     0   513  0.000000000E+00  0.000000000E+00 -1.055463766E+02  1.055463766E+02  0.000000000E+00  0.00000E+00  9.000E+00
      -2     1     1     2     0   515 -2.287843874E+01 -7.298320373E+00 -8.210154292E+01  8.554215738E+01  3.300000131E-01  0.00000E+00  9.000E+00
      21     1     1     2   514   513  1.190441093E+01  1.215444240E+01 -1.654899534E+01  2.373425197E+01  4.129530925E-07  0.00000E+00  9.000E+00
      21     1     1     2   515   512  1.097402781E+01 -4.856122031E+00  2.116189347E+01  2.432769908E+01  5.331201500E-07  0.00000E+00  9.000E+00
</event>
<event>
      5  10001  2.40292E+09  1.75781E+01 -1.00000E+00  1.71087E-01
      21    -1     0     0   511   516  0.000000000E+00  0.000000000E+00  3.061928470E+01  3.061928470E+01  0.000000000E+00  0.00000E+00  9.000E+00
      21    -1     0     0   515   512  0.000000000E+00  0.000000000E+00 -5.318810833E+00  5.318810833E+00  0.000000000E+00  0.00000E+00  9.000E+00
      21     1     1     2   511   512 -2.975454761E+00  2.960682032E+00  1.439794666E+00  4.437564400E+00  5.575503985E-08  0.00000E+00  9.000E+00
      21     1     1     2   515   513  1.995375650E+00 -2.656639458E+00  2.750988100E+01  2.770979628E+01  0.000000000E+00  0.00000E+00  9.000E+00
      21     1     1     2   513   516  9.800791106E-01 -3.040425738E-01 -3.649201800E+00  3.790734853E+00  1.115100797E-07  0.00000E+00  9.000E+00
</event>
<event>
      5  10001  2.40292E+09  8.24343E+00 -1.00000E+00  2.05918E-01
      21    -1     0     0   513   515  0.000000000E+00  0.000000000E+00  4.512813157E+01  4.512813157E+01  0.000000000E+00  0.00000E+00  9.000E+00
      -4    -1     0     0     0   514  0.000000000E+00  0.000000000E+00 -1.089102958E+02  1.089102958E+02  0.000000000E+00  0.00000E+00  9.000E+00
      -4     1     1     2     0   511 -1.215136643E+01  7.590436687E+00 -9.700156885E+01  9.806541080E+01  1.500000000E+00  0.00000E+00  9.000E+00
      21     1     1     2   513   514  8.341721191E+00 -1.357119396E+01  4.186387034E+01  4.479224551E+01  8.259061849E-07  0.00000E+00  9.000E+00
      21     1     1     2   511   515  3.809645237E+00  5.980757270E+00 -8.644465756E+00  1.118077111E+01  1.192092896E-07  0.00000E+00  9.000E+00
</event>
<event>
      5  10001  2.40292E+09  6.87883E+00 -1.00000E+00  2.16559E-01
      21    -1     0     0   512   516  0.000000000E+00  0.000000000E+00  3.834807759E+01  3.834807759E+01  0.000000000E+00  0.00000E+00  9.000E+00
      21    -1     0     0   511   515  0.000000000E+00  0.000000000E+00 -9.683489379E+02  9.683489379E+02  0.000000000E+00  0.00000E+00  9.000E+00
      21     1     1     2   512   515  6.909775604E+00  8.933775221E+00 -9.634782731E+02  9.635444671E+02  0.000000000E+00  0.00000E+00  9.000E+00
      21     1     1     2   511   513 -2.857154838E+00 -1.344588474E+01  3.437503871E+01  3.702159419E+01  1.651812370E-06  0.00000E+00  9.000E+00
      21     1     1     2   513   516 -4.052620766E+00  4.512109519E+00 -8.976259464E-01  6.130954226E+00  2.969035334E-07  0.00000E+00  9.000E+00
</event>
<event>
      5  10001  2.40292E+09  6.89720E+00 -1.00000E+00  2.16394E-01
      21    -1     0     0   514   511  0.000000000E+00  0.000000000E+00  5.280987969E+00  5.280987969E+00  0.000000000E+00  0.00000E+00  9.000E+00
      21    -1     0     0   516   514  0.000000000E+00  0.000000000E+00 -3.571759738E+02  3.571759738E+02  0.000000000E+00  0.00000E+00  9.000E+00
      21     1     1     2   516   517  1.053695433E+01 -3.302722042E+00 -3.501082122E+02  3.502823085E+02  0.000000000E+00  0.00000E+00  9.000E+00
      21     1     1     2   512   511 -4.756705533E+00 -7.307063724E-01 -1.765803437E+00  5.126230692E+00  2.457562462E-07  0.00000E+00  9.000E+00
      21     1     1     2   517   512 -5.780248801E+00  4.033428415E+00 -2.097016079E-02  7.048422570E+00  6.251782433E-07  0.00000E+00  9.000E+00
</event>
<event>
      5  10001  2.40292E+09  6.30527E+00 -1.00000E+00  2.22100E-01
      21    -1     0     0   512   511  0.000000000E+00  0.000000000E+00  4.799047307E+01  4.799047307E+01  0.000000000E+00  0.00000E+00  9.000E+00
       1    -1     0     0   511     0  0.000000000E+00  0.000000000E+00 -1.122805511E+01  1.122805511E+01  0.000000000E+00  0.00000E+00  9.000E+00
      21     1     1     2   512   514 -1.282901104E+01 -2.393404839E-01  4.001003765E+01  4.201718602E+01  0.000000000E+00  0.00000E+00  9.000E+00
       1     1     1     2   513     0  9.661102461E+00 -1.763895442E+00 -6.869280322E+00  1.198933443E+01  3.300000131E-01  0.00000E+00  9.000E+00
      21     1     1     2   514   513  3.167908581E+00  2.003235926E+00  3.621660624E+00  5.212007734E+00  5.960464478E-08  0.00000E+00  9.000E+00
</event>
<event>
      5  10001  2.40292E+09  2.53832E+00 -1.00000E+00  3.20617E-01
      21    -1     0     0   512   513  0.000000000E+00  0.000000000E+00  2.594784281E+02  2.594784281E+02  0.000000000E+00  0.00000E+00  9.000E+00
      21    -1     0     0   511   516  0.000000000E+00  0.000000000E+00 -9.815194029E+00  9.815194029E+00  0.000000000E+00  0.00000E+00  9.000E+00
      21     1     1     2   515   516  1.135170819E+01 -3.160042490E+00  1.064536075E+02  1.071037707E+02  1.348699152E-06  0.00000E+00  9.000E+00
      21     1     1     2   511   513 -1.239436619E+01  8.457494337E-01 -5.408931818E+00  1.354961803E+01  7.027283980E-07  0.00000E+00  9.000E+00
      21     1     1     2   512   515  1.042658004E+00  2.314293057E+00  1.486185584E+02  1.486402334E+02  3.303624740E-06  0.00000E+00  9.000E+00
</event>
<event>
      5  10001  2.40292E+09  9.34170E+00 -1.00000E+00  1.99179E-01
      21    -1     0     0   514   511  0.000000000E+00  0.000000000E+00  9.499745218E+01  9.499745218E+01  0.000000000E+00  0.00000E+00  9.000E+00
      21    -1     0     0   517   515  0.000000000E+00  0.000000000E+00 -2.903269302E+00  2.903269302E+00  0.000000000E+00  0.00000E+00  9.000E+00
      21     1     1     2   514   515  2.979975753E+00  1.223563949E+01  6.258515837E+01  6.383958942E+01  6.743495762E-07  0.00000E+00  9.000E+00
      21     1     1     2   513   511 -3.430134908E+00 -5.051056296E+00  3.422258127E+00  6.999346104E+00  1.032382731E-07  0.00000E+00  9.000E+00
      21     1     1     2   517   513  4.501591546E-01 -7.184583195E+00  2.608676637E+01  2.706178595E+01  0.000000000E+00  0.00000E+00  9.000E+00
</event>
<event>
      5  10001  2.40292E+09  2.78976E+01 -1.00000E+00  1.55228E-01
      21    -1     0     0   512   511  0.000000000E+00  0.000000000E+00  1.044593143E+02  1.044593143E+02  0.000000000E+00  0.00000E+00  9.000E+00
      21    -1     0     0   511   513  0.000000000E+00  0.000000000E+00 -2.043563505E+01  2.043563505E+01  0.000000000E+00  0.00000E+00  9.000E+00
      -5     1     1     2     0   514  1.066878930E+01  1.944715289E+01 -2.632625257E+00  2.284700282E+01  4.800000191E+00  0.00000E+00  9.000E+00
       5     1     1     2   512     0  5.722266043E+00 -1.601367259E+01  8.306084331E+01  8.491952503E+01  4.800000191E+00  0.00000E+00  9.000E+00
      21     1     1     2   514   513 -1.639105534E+01 -3.433480297E+00  3.595461216E+00  1.712842151E+01  6.809031760E-07  0.00000E+00  9.000E+00
</event>
<event>
      5  10001  2.40292E+09  1.60109E+00 -1.00000E+00  4.14844E-01
      21    -1     0     0   515   511  0.000000000E+00  0.000000000E+00  8.025850924E-01  8.025850924E-01  0.000000000E+00  0.00000E+00  9.000E+00
       1    -1     0     0   512     0  0.000000000E+00  0.000000000E+00 -2.045622133E+02  2.045622133E+02  0.000000000E+00  0.00000E+00  9.000E+00
      21     1     1     2   516   511 -7.702270276E-01 -7.059253626E+00 -1.226100518E+02  1.228155166E+02  1.907348633E-06  0.00000E+00  9.000E+00
       1     1     1     2   515     0  1.454401677E+00  1.047860115E+01 -4.482173674E+01  4.605446070E+01  3.300000131E-01  0.00000E+00  9.000E+00
      21     1     1     2   512   516 -6.841746497E-01 -3.419347528E+00 -3.632783968E+01  3.649482112E+01  0.000000000E+00  0.00000E+00  9.000E+00
</event>
<event>
      5  10001  2.40292E+09  1.17626E+01 -1.00000E+00  1.87892E-01
      21    -1     0     0   513   514  0.000000000E+00  0.000000000E+00  7.622117150E+01  7.622117150E+01  0.000000000E+00  0.00000E+00  9.000E+00
      21    -1     0     0   514   511  0.000000000E+00  0.000000000E+00 -2.596127366E+01  2.596127366E+01  0.000000000E+00  0.00000E+00  9.000E+00
      -4     1     1     2     0   515 -1.632096881E+00  1.697981281E+01  3.121694194E+00  1.740611266E+01  1.500000000E+00  0.00000E+00  9.000E+00
       4     1     1     2   513     0 -9.869240329E+00 -1.457223153E+01  6.277713589E+01  6.521480374E+01  1.500000000E+00  0.00000E+00  9.000E+00
      21     1     1     2   515   511  1.150133721E+01 -2.407581279E+00 -1.563893225E+01  1.956152875E+01  3.769728732E-07  0.00000E+00  9.000E+00
</event>
<event>
      5  10001  2.40292E+09  5.33027E+00 -1.00000E+00  2.33678E-01
      21    -1     0     0   512   511  0.000000000E+00  0.000000000E+00  5.488398068E+02  5.488398068E+02  0.000000000E+00  0.00000E+00  9.000E+00
      21    -1     0     0   514   516  0.000000000E+00  0.000000000E+00 -1.022015945E+00  1.022015945E+00  0.000000000E+00  0.00000E+00  9.000E+00
      21     1     1     2   512   516 -2.172130599E+01 -8.341626427E+00  3.107324755E+02  3.116024216E+02  3.814697266E-06  0.00000E+00  9.000E+00
      21     1     1     2   513   511  8.708199959E+00  1.339689572E+00  9.501972829E+01  9.542733507E+01  1.348699152E-06  0.00000E+00  9.000E+00
      21     1     1     2   514   513  1.301310603E+01  7.001936855E+00  1.420655871E+02  1.428320661E+02  1.907348633E-06  0.00000E+00  9.000E+00
</event>
<event>
      5  10001  2.40292E+09  4.55842E+00 -1.00000E+00  2.50679E-01
      21    -1     0     0   515   513  0.000000000E+00  0.000000000E+00  2.530432382E+00  2.530432382E+00  0.000000000E+00  0.00000E+00  9.000E+00
      21    -1     0     0   511   517  0.000000000E+00  0.000000000E+00 -1.194069597E+02  1.194069597E+02  0.000000000E+00  0.00000E+00  9.000E+00
      21     1     1     2   515   517 -9.807110746E+00  6.830101223E+00 -1.734732840E+01  2.106560007E+01  7.152557373E-07  0.00000E+00  9.000E+00
      21     1     1     2   514   513  1.154075661E+01 -2.614223205E+00 -7.013487948E+01  7.112611719E+01  0.000000000E+00  0.00000E+00  9.000E+00
      21     1     1     2   511   514 -1.733645860E+00 -4.215878018E+00 -2.939431940E+01  2.974567479E+01  0.000000000E+00  0.00000E+00  9.000E+00
</event>
<event>
      5  10001  2.40292E+09  5.72839E+00 -1.00000E+00  2.28562E-01
      21    -1     0     0   512   513  0.000000000E+00  0.000000000E+00  8.888839756E+00  8.888839756E+00  0.000000000E+00  0.00000E+00  9.000E+00
      21    -1     0     0   511   512  0.000000000E+00  0.000000000E+00 -3.177479487E+01  3.177479487E+01  0.000000000E+00  0.00000E+00  9.000E+00
      21     1     1     2   514   513 -5.806601966E+00  1.033403492E+01  2.364160283E+00  1.208710710E+01  1.154238983E-07  0.00000E+00  9.000E+00
      21     1     1     2   511   515  2.196790334E+00 -3.766452832E+00 -1.644834305E+01  1.701646390E+01  2.384185791E-07  0.00000E+00  9.000E+00
      21     1     1     2   515   514  3.609811632E+00 -6.567582091E+00 -8.801772347E+00  1.156006362E+01  2.384185791E-07  0.00000E+00  9.000E+00
</event>
<event>
      5  10001  2.40292E+09  8.49422E+00 -1.00000E+00  2.04260E-01
      21    -1     0     0   515   512  0.000000000E+00  0.000000000E+00  2.604597806E+00  2.604597806E+00  0.000000000E+00  0.00000E+00  9.000E+00
       2    -1     0     0   513     0  0.000000000E+00  0.000000000E+00 -5.053283424E+02  5.053283424E+02  0.000000000E+00  0.00000E+00  9.000E+00
      21     1     1     2   513   511  4.472515417E+00 -7.087630626E+00 -7.557251036E+00  1.128494330E+01  8.259061849E-07  0.00000E+00  9.000E+00
       2     1     1     2   515     0 -1.242028955E+01  4.090698528E+00 -4.680396245E+02  4.682223792E+02  3.300000131E-01  0.00000E+00  9.000E+00
      21     1     1     2   511   512  7.947774129E+00  2.996932098E+00 -2.712686909E+01  2.842561771E+01  7.539457465E-07  0.00000E+00  9.000E+00
</event>
<event>
      5  10001  2.40292E+09  6.54446E+00 -1.00000E+00  2.19694E-01
      21    -1     0     0   514   511  0.000000000E+00  0.000000000E+00  1.554733386E+02  1.554733386E+02  0.000000000E+00  0.00000E+00  9.000E+00
      21    -1     0     0   515   514  0.000000000E+00  0.000000000E+00 -5.945296794E+00  5.945296794E+00  0.000000000E+00  0.00000E+00  9.000E+00
      21     1     1     2   512   513 -1.331198022E+01  5.967348629E+00  6.886436040E+01  7.039260047E+01  1.348699152E-06  0.00000E+00  9.000E+00
      21     1     1     2   513   511  6.897140816E+00 -4.671296066E+00  8.348484046E+01  8.389940491E+01  1.651812370E-06  0.00000E+00  9.000E+00
      21     1     1     2   515   512  6.414839404E+00 -1.296052563E+00 -2.821159060E+00  7.126630007E+00  3.828177625E-07  0.00000E+00  9.000E+00
</event>
<event>
      5  10001  2.40292E+09  5.71003E+00 -1.00000E+00  2.28785E-01
      21    -1     0     0   516   513  0.000000000E+00  0.000000000E+00  1.567651133E+02  1.567651133E+02  0.000000000E+00  0.00000E+00  9.000E+00
      21    -1     0     0   515   511  0.000000000E+00  0.000000000E+00 -1.851781570E+01  1.851781570E+01  0.000000000E+00  0.00000E+00  9.000E+00
      21     1     1     2   516   512  1.290475891E+01 -2.380608418E+00  1.241075780E+02  1.247994031E+02  1.348699152E-06  0.00000E+00  9.000E+00
      21     1     1     2   515   513 -7.611653125E+00  2.387731245E-01  3.139635053E+01  3.230673463E+01  1.390207266E-06  0.00000E+00  9.000E+00
      21     1     1     2   512   511 -5.293105783E+00  2.141835294E+00 -1.725663097E+01  1.817679123E+01  2.384185791E-07  0.00000E+00  9.000E+00
</event>
<event>
      5  10001  2.40292E+09  2.84221E+00 -1.00000E+00  3.04028E-01
      -2    -1     0     0     0   514  0.000000000E+00  0.000000000E+00  9.136916507E+00  9.136916507E+00  0.000000000E+00  0.00000E+00  9.000E+00
       1    -1     0     0   513     0  0.000000000E+00  0.000000000E+00 -3.632717014E+01  3.632717014E+01  0.000000000E+00  0.00000E+00  9.000E+00
      -2     1     1     2     0   511  9.554914372E+00  7.565445984E+00 -2.360124554E+00  1.241819027E+01  3.300000131E-01  0.00000E+00  9.000E+00
      21     1     1     2   513   514 -7.001516037E+00 -8.812172844E+00 -3.885523337E+00  1.190684293E+01  2.269677253E-07  0.00000E+00  9.000E+00
       1     1     1     2   511     0 -2.553398335E+00  1.246726860E+00 -2.094460575E+01  2.113905345E+01  3.300000131E-01  0.00000E+00  9.000E+00
</event>
<event>
      5  10001  2.40292E+09  6.85036E+00 -1.00000E+00  2.16816E-01
      -1    -1     0     0     0   512  0.000000000E+00  0.000000000E+00  8.761936387E-01  8.761936387E-01  0.000000000E+00  0.00000E+00  9.000E+00
      21    -1     0     0   514   515  0.000000000E+00  0.000000000E+00 -7.106102401E+02  7.106102401E+02  0.000000000E+00  0.00000E+00  9.000E+00
      -1     1     1     2     0   515  5.466628924E+00  1.651451067E+01 -1.102187402E+02  1.115835682E+02  3.300000131E-01  0.00000E+00  9.000E+00
      21     1     1     2   514   513 -7.491357521E+00 -1.091262020E+01 -5.184798154E+02  5.186487488E+02  7.629394531E-06  0.00000E+00  9.000E+00
      21     1     1     2   513   512  2.024728596E+00 -5.601890473E+00 -8.103549086E+01  8.125411671E+01  0.000000000E+00  0.00000E+00  9.000E+00
</event>
<event>
      5  10001  2.40292E+09  2.61415E+01 -1.00000E+00  1.57275E-01
      21    -1     0     0   511   514  0.000000000E+00  0.000000000E+00  5.524135486E+01  5.524135486E+01  0.000000000E+00  0.00000E+00  9.000E+00
      21    -1     0     0   512   511  0.000000000E+00  0.000000000E+00 -1.622020109E+01  1.622020109E+01  0.000000000E+00  0.00000E+00  9.000E+00
      21     1     1     2   512   516  1.378715254E+01  6.844468956E+00 -2.728681533E+00  1.563259523E+01  1.999200562E-07  0.00000E+00  9.000E+00
      21     1     1     2   516   515 -2.884348041E+00 -1.489750128E+01  3.920312092E+01  4.203736074E+01  0.000000000E+00  0.00000E+00  9.000E+00
      21     1     1     2   515   514 -1.090280450E+01  8.053032326E+00  2.546714380E+00  1.379159997E+01  2.950279396E-07  0.00000E+00  9.000E+00
</event>
<event>
      5  10001  2.40292E+09  5.29551E+00 -1.00000E+00  2.34155E-01
      21    -1     0     0   513   516  0.000000000E+00  0.000000000E+00  1.032854870E+02  1.032854870E+02  0.000000000E+00  0.00000E+00  9.000E+00
      21    -1     0     0   514   511  0.000000000E+00  0.000000000E+00 -7.180933408E+00  7.180933408E+00  0.000000000E+00  0.00000E+00  9.000E+00
      21     1     1     2   514   512 -1.007212769E+01  3.707252085E+00  4.545025677E+01  4.670029245E+01  1.651812370E-06  0.00000E+00  9.000E+00
      21     1     1     2   512   516  1.209289044E+01  1.187533033E+00  5.536248276E+01  5.668026757E+01  6.743495762E-07  0.00000E+00  9.000E+00
      21     1     1     2   513   511 -2.020762748E+00 -4.894785118E+00 -4.708185908E+00  7.085860426E+00  2.308477966E-07  0.00000E+00  9.000E+00
</event>
<event>
      5  10001  2.40292E+09  1.42172E+01 -1.00000E+00  1.79556E-01
      21    -1     0     0   515   514  0.000000000E+00  0.000000000E+00  1.969111049E+02  1.969111049E+02  0.000000000E+00  0.00000E+00  9.000E+00
      21    -1     0     0   517   512  0.000000000E+00  0.000000000E+00 -3.837866645E+01  3.837866645E+01  0.000000000E+00  0.00000E+00  9.000E+00
      21     1     1     2   511   514 -8.437185897E+00 -2.298521422E+00  1.725114440E+02  1.727329373E+02  1.907348633E-06  0.00000E+00  9.000E+00
      21     1     1     2   517   511  1.729291582E+01 -8.823713487E+00  1.867749096E+01  2.693977590E+01  2.384185791E-07  0.00000E+00  9.000E+00
      21     1     1     2   515   512 -8.855729918E+00  1.112223491E+01 -3.265649656E+01  3.561705812E+01  8.259061849E-07  0.00000E+00  9.000E+00
</event>
<event>
      5  10001  2.40292E+09  2.65701E+01 -1.00000E+00  1.56758E-01
       1    -1     0     0   513     0  0.000000000E+00  0.000000000E+00  1.106895520E+03  1.106895520E+03  0.000000000E+00  0.00000E+00  9.000E+00
      21    -1     0     0   516   513  0.000000000E+00  0.000000000E+00 -1.150029062E+01  1.150029062E+01  0.000000000E+00  0.00000E+00  9.000E+00
      21     1     1     2   512   511  1.884965180E+01  3.944312326E+01  1.876236696E+02  1.926491909E+02  2.697398305E-06  0.00000E+00  9.000E+00
      21     1     1     2   516   512 -8.840437888E+00 -1.483046038E+01 -3.179909393E-01  1.726838195E+01  1.354382558E-06  0.00000E+00  9.000E+00
       1     1     1     2   511     0 -1.000921391E+01 -2.461266288E+01  9.080895507E+02  9.084782378E+02  3.300000131E-01  0.00000E+00  9.000E+00
</event>
<event>
      5  10001  2.40292E+09  6.94130E+00 -1.00000E+00  2.16000E-01
      21    -1     0     0   514   516  0.000000000E+00  0.000000000E+00  1.632031743E+02  1.632031743E+02  0.000000000E+00  0.00000E+00  9.000E+00
      21    -1     0     0   511   515  0.000000000E+00  0.000000000E+00 -1.316703492E+00  1.316703492E+00  0.000000000E+00  0.00000E+00  9.000E+00
      21     1     1     2   514   515  9.401816560E+00  4.320213847E+00  1.126298309E+02  1.131040990E+02  1.907348633E-06  0.00000E+00  9.000E+00
      21     1     1     2   511   512 -5.929152058E+00 -1.470805604E+00  8.811629434E+00  1.072207660E+01  3.153981341E-07  0.00000E+00  9.000E+00
      21     1     1     2   512   516 -3.472664503E+00 -2.849408243E+00  4.044501047E+01  4.069370219E+01  4.768371582E-07  0.00000E+00  9.000E+00
</event>
<event>
      5  10001  2.40292E+09  6.26781E+00 -1.00000E+00  2.22490E-01
      21    -1     0     0   511   516  0.000000000E+00  0.000000000E+00  1.571447404E+01  1.571447404E+01  0.000000000E+00  0.00000E+00  9.000E+00
      -4    -1     0     0     0   513  0.000000000E+00  0.000000000E+00 -3.263982335E+02  3.263982335E+02  0.000000000E+00  0.00000E+00  9.000E+00
      -4     1     1     2     0   512 -9.590882623E-01  1.525873733E+01 -3.105713283E+02  3.109510394E+02  1.500000000E+00  0.00000E+00  9.000E+00
      21     1     1     2   512   516  7.202549149E+00 -1.471499819E+01  1.005154630E+01  1.922086025E+01  7.052516679E-07  0.00000E+00  9.000E+00
      21     1     1     2   511   513 -6.243460887E+00 -5.437391474E-01 -1.016397741E+01  1.194080788E+01  1.192092896E-07  0.00000E+00  9.000E+00
</event>
<event>
      5  10001  2.40292E+09  5.31216E+00 -1.00000E+00  2.33926E-01
       2    -1     0     0   512     0  0.000000000E+00  0.000000000E+00  7.706815896E+02  7.706815896E+02  0.000000000E+00  0.00000E+00  9.000E+00
      21    -1     0     0   511   514  0.000000000E+00  0.000000000E+00 -6.822854037E+01  6.822854037E+01  0.000000000E+00  0.00000E+00  9.000E+00
      21     1     1     2   512   513  1.237988966E+01  9.002896765E-01 -5.559890327E+01  5.696762445E+01  6.743495762E-07  0.00000E+00  9.000E+00
       2     1     1     2   511     0 -1.209741672E+01 -6.204933606E+00  7.693435551E+02  7.694637505E+02  3.300000131E-01  0.00000E+00  9.000E+00
      21     1     1     2   513   514 -2.824729449E-01  5.304643929E+00 -1.129160258E+01  1.247875502E+01  3.371747881E-07  0.00000E+00  9.000E+00
</event>
<event>
      5  10001  2.40292E+09  1.97153E+01 -1.00000E+00  1.66843E-01
      21    -1     0     0   515   511  0.000000000E+00  0.000000000E+00  1.322088828E+01  1.322088828E+01  0.000000000E+00  0.00000E+00  9.000E+00
      21    -1     0     0   513   516  0.000000000E+00  0.000000000E+00 -1.921281186E+02  1.921281186E+02  0.000000000E+00  0.00000E+00  9.000E+00
      21     1     1     2   515   516  2.142966638E+01 -6.518080328E+00  2.228965803E+00  2.250964818E+01  5.347835554E-07  0.00000E+00  9.000E+00
      21     1     1     2   512   511 -4.732137335E+00 -3.068739186E+00 -4.242179525E+01  4.279508145E+01  4.768371582E-07  0.00000E+00  9.000E+00
      21     1     1     2   513   512 -1.669752905E+01  9.586819514E+00 -1.387144009E+02  1.400442772E+02  1.907348633E-06  0.00000E+00  9.000E+00
</event>
<event>
      5  10001  2.40292E+09  8.25279E+00 -1.00000E+00  2.05855E-01
      21    -1     0     0   513   511  0.000000000E+00  0.000000000E+00  1.916746936E+00  1.916746936E+00  0.000000000E+00  0.00000E+00  9.000E+00
       1    -1     0     0   512     0  0.000000000E+00  0.000000000E+00 -2.440939419E+02  2.440939419E+02  0.000000000E+00  0.00000E+00  9.000E+00
      21     1     1     2   512   514 -8.797559151E+00  1.348769120E+00 -1.339254705E+01  1.608031535E+01  0.000000000E+00  0.00000E+00  9.000E+00
       1     1     1     2   513     0  6.894917585E+00 -7.295023231E+00 -2.076535621E+02  2.078962915E+02  3.300000131E-01  0.00000E+00  9.000E+00
      21     1     1     2   514   511  1.902641567E+00  5.946254111E+00 -2.113108577E+01  2.203408198E+01  2.384185791E-07  0.00000E+00  9.000E+00
</event>
<event>
      5  10001  2.40292E+09  6.13650E+00 -1.00000E+00  2.23888E-01
       2    -1     0     0   514     0  0.000000000E+00  0.000000000E+00  5.493138278E+02  5.493138278E+02  0.000000000E+00  0.00000E+00  9.000E+00
      21    -1     0     0   515   512  0.000000000E+00  0.000000000E+00 -1.346829497E+02  1.346829497E+02  0.000000000E+00  0.00000E+00  9.000E+00
      21     1     1     2   514   513  2.965489025E+00  1.210926523E+01  1.271434874E+01  1.780682716E+01  1.608221240E-06  0.00000E+00  9.000E+00
       2     1     1     2   515     0 -6.281842983E+00 -6.946089776E+00  5.339408572E+02  5.340230872E+02  3.300000131E-01  0.00000E+00  9.000E+00
      21     1     1     2   513   512  3.316353958E+00 -5.163175455E+00 -1.320243278E+02  1.321668632E+02  2.697398305E-06  0.00000E+00  9.000E+00
</event>
<event>
      5  10001  2.40292E+09  3.93340E+00 -1.00000E+00  2.65090E-01
      21    -1     0     0   511   513  0.000000000E+00  0.000000000E+00  4.945865609E+01  4.945865609E+01  0.000000000E+00  0.00000E+00  9.000E+00
      21    -1     0     0   516   511  0.000000000E+00  0.000000000E+00 -3.304936044E+00  3.304936044E+00  0.000000000E+00  0.00000E+00  9.000E+00
      21     1     1     2   516   512 -9.369094128E+00 -2.977404976E+00  6.705983420E+00  1.190021339E+01  2.665600750E-07  0.00000E+00  9.000E+00
       1     1     1     2   512     0  3.552645759E+00  1.754357390E+00  2.363868974E+01  2.397072411E+01  3.300000131E-01  0.00000E+00  9.000E+00
      -1     1     1     2     0   513  5.816448369E+00  1.223047586E+00  1.580904689E+01  1.689265463E+01  3.300000131E-01  0.00000E+00  9.000E+00
</event>
<event>
      5  10001  2.40292E+09  2.50237E+01 -1.00000E+00  1.58682E-01
      21    -1     0     0   514   512  0.000000000E+00  0.000000000E+00  3.107102450E+02  3.107102450E+02  0.000000000E+00  0.00000E+00  9.000E+00
      21    -1     0     0   515   511  0.000000000E+00  0.000000000E+00 -1.836365097E+02  1.836365097E+02  0.000000000E+00  0.00000E+00  9.000E+00
      21     1     1     2   514   513 -2.691169966E+01 -1.764887444E+01 -1.659060197E+02  1.689986086E+02  2.697398305E-06  0.00000E+00  9.000E+00
      21     1     1     2   515   512  2.096475557E+01 -6.657879968E+00  2.988391652E+02  2.996476180E+02  3.814697266E-06  0.00000E+00  9.000E+00
      21     1     1     2   513   511  5.946944097E+00  2.430675441E+01 -5.859410283E+00  2.570052807E+01  5.840038640E-07  0.00000E+00  9.000E+00
</event>
<event>
      5  10001  2.40292E+09  2.13265E+01 -1.00000E+00  1.64060E-01
      21    -1     0     0   516   512  0.000000000E+00  0.000000000E+00  7.944843809E+00  7.944843809E+00  0.000000000E+00  0.00000E+00  9.000E+00
      21    -1     0     0   512   511  0.000000000E+00  0.000000000E+00 -2.036701507E+01  2.036701507E+01  0.000000000E+00  0.00000E+00  9.000E+00
      -1     1     1     2     0   511 -1.346835963E+00  3.233829905E+00 -5.003856284E+00  6.117115389E+00  3.300000131E-01  0.00000E+00  9.000E+00
      21     1     1     2   516   514  1.100957844E+00 -6.438323287E+00 -1.367403790E+01  1.515399048E+01  2.384185791E-07  0.00000E+00  9.000E+00
       1     1     1     2   514     0  2.458781190E-01  3.204493382E+00  6.255722915E+00  7.040753020E+00  3.300000131E-01  0.00000E+00  9.000E+00
</event>
<event>
      5  10001  2.40292E+09  1.19620E+01 -1.00000E+00  1.87120E-01
      21    -1     0     0   513   514  0.000000000E+00  0.000000000E+00  2.839347195E+01  2.839347195E+01  0.000000000E+00  0.00000E+00  9.000E+00
      21    -1     0     0   512   513  0.000000000E+00  0.000000000E+00 -3.489237803E+01  3.489237803E+01  0.000000000E+00  0.00000E+00  9.000E+00
      21     1     1     2   515   514 -5.325543834E+00  1.020286137E+01  2.262455287E+01  2.538365990E+01  0.000000000E+00  0.00000E+00  9.000E+00
      21     1     1     2   511   515  6.123891143E+00 -1.876802313E+00 -2.882987022E+01  2.953279273E+01  3.371747881E-07  0.00000E+00  9.000E+00
      21     1     1     2   512   511 -7.983473084E-01 -8.326059057E+00 -2.935887322E-01  8.369397361E+00  1.672236300E-07  0.00000E+00  9.000E+00
</event>
<event>
      5  10001  2.40292E+09  8.33189E+00 -1.00000E+00  2.05324E-01
      21    -1     0     0   516   511  0.000000000E+00  0.000000000E+00  1.727419959E+01  1.727419959E+01  0.000000000E+00  0.00000E+00  9.000E+00
      21    -1     0     0   512   517  0.000000000E+00  0.000000000E+00 -1.341832173E+02  1.341832173E+02  0.000000000E+00  0.00000E+00  9.000E+00
      21     1     1     2   516   517 -1.043783915E+01  2.634386455E+00  1.482354774E+01  1.832009950E+01  6.307962682E-07  0.00000E+00  9.000E+00
      21     1     1     2   512   513  5.320143687E+00 -7.621529564E+00 -1.067212028E+02  1.071251921E+02  2.336015456E-06  0.00000E+00  9.000E+00
      21     1     1     2   513   511  5.117695458E+00  4.987143110E+00 -2.501136258E+01  2.601212528E+01  0.000000000E+00  0.00000E+00  9.000E+00
</event>
<event>
      5  10001  2.40292E+09  2.35974E+00 -1.00000E+00  3.32389E-01
       2    -1     0     0   512     0  0.000000000E+00  0.000000000E+00  8.685727564E+01  8.685727564E+01  0.000000000E+00  0.00000E+00  9.000E+00
      21    -1     0     0   513   514  0.000000000E+00  0.000000000E+00 -2.209964983E+00  2.209964983E+00  0.000000000E+00  0.00000E+00  9.000E+00
      -5     1     1     2     0   514  3.752941356E+00  5.960663490E+00  2.373018479E+01  2.521459399E+01  4.800000191E+00  0.00000E+00  9.000E+00
       2     1     1     2   513     0 -4.724204814E+00 -1.087462723E+01  4.393967910E+01  4.551241510E+01  3.300000131E-01  0.00000E+00  9.000E+00
       5     1     1     2   512     0  9.712634583E-01  4.913963737E+00  1.697744677E+01  1.834023154E+01  4.800000191E+00  0.00000E+00  9.000E+00
</event>
<event>
      5  10001  2.40292E+09  5.09052E+00 -1.00000E+00  2.37076E-01
      21    -1     0     0   511   516  0.000000000E+00  0.000000000E+00  3.612878585E-01  3.612878585E-01  0.000000000E+00  0.00000E+00  9.000E+00
      21    -1     0     0   515   511  0.000000000E+00  0.000000000E+00 -3.475375269E+02  3.475375269E+02  0.000000000E+00  0.00000E+00  9.000E+00
      21     1     1     2   513   516  1.063165207E+01 -1.668956733E+00 -1.931219789E+02  1.934216021E+02  0.000000000E+00  0.00000E+00  9.000E+00
      21     1     1     2   514   513 -3.386427924E+00  2.384201384E+00 -5.703775019E+01  5.718791181E+01  9.536743164E-07  0.00000E+00  9.000E+00
      21     1     1     2   515   514 -7.245224143E+00 -7.152446513E-01 -9.701650998E+01  9.728930083E+01  2.336015456E-06  0.00000E+00  9.000E+00
</event>
<event>
      5  10001  2.40292E+09  4.65493E+00 -1.00000E+00  2.48765E-01
      21    -1     0     0   512   514  0.000000000E+00  0.000000000E+00  7.860568811E+01  7.860568811E+01  0.000000000E+00  0.00000E+00  9.000E+00
      21    -1     0     0   515   511  0.000000000E+00  0.000000000E+00 -5.528354899E+00  5.528354899E+00  0.000000000E+00  0.00000E+00  9.000E+00
      21     1     1     2   512   517  1.116530109E+01  1.430517591E+01  3.107712711E+01  3.598735661E+01  6.743495762E-07  0.00000E+00  9.000E+00
      21     1     1     2   515   514 -9.353498538E+00 -1.001732103E+01  4.120478569E+01  4.342429066E+01  6.743495762E-07  0.00000E+00  9.000E+00
      21     1     1     2   517   511 -1.811802551E+00 -4.287854879E+00  7.954204175E-01  4.722395746E+00  7.146345859E-08  0.00000E+00  9.000E+00
</event>
<event>
      5  10001  2.40292E+09  6.55623E+00 -1.00000E+00  2.19580E-01
      21    -1     0     0   513   514  0.000000000E+00  0.000000000E+00  1.152756202E+01  1.152756202E+01  0.000000000E+00  0.00000E+00  9.000E+00
      21    -1     0     0   512   513  0.000000000E+00  0.000000000E+00 -6.317903508E+01  6.317903508E+01  0.000000000E+00  0.00000E+00  9.000E+00
      21     1     1     2   511   514 -7.960410246E+00 -6.642423464E-01  4.079915568E+00  8.969674477E+00  2.858538343E-07  0.00000E+00  9.000E+00
      21     1     1     2   516   511  1.269666233E+01 -3.869199209E+00 -4.392445496E+00  1.398104125E+01  3.475518164E-07  0.00000E+00  9.000E+00
      21     1     1     2   512   516 -4.736252085E+00  4.533441555E+00 -5.133894313E+01  5.175588138E+01  6.743495762E-07  0.00000E+00  9.000E+00
</event>
<event>
      5  10001  2.40292E+09  7.01476E+00 -1.00000E+00  2.15353E-01
      21    -1     0     0   515   511  0.000000000E+00  0.000000000E+00  1.572465823E+01  1.572465823E+01  0.000000000E+00  0.00000E+00  9.000E+00
      21    -1     0     0   512   515  0.000000000E+00  0.000000000E+00 -6.585392745E+01  6.585392745E+01  0.000000000E+00  0.00000E+00  9.000E+00
      21     1     1     2   512   517  4.443420902E-01  1.019688012E+01 -3.454489648E+01  3.602115596E+01  0.000000000E+00  0.00000E+00  9.000E+00
      21     1     1     2   517   514 -1.122701028E+00 -1.717875975E+01 -2.708099276E+01  3.208972442E+01  8.259061849E-07  0.00000E+00  9.000E+00
      21     1     1     2   514   511  6.783589376E-01  6.981879633E+00  1.149662003E+01  1.346770530E+01  2.384185791E-07  0.00000E+00  9.000E+00
</event>
<event>
      5  10001  2.40292E+09  1.31043E+01 -1.00000E+00  1.83045E-01
       1    -1     0     0   515     0  0.000000000E+00  0.000000000E+00  6.291126845E+02  6.291126845E+02  0.000000000E+00  0.00000E+00  9.000E+00
      21    -1     0     0   513   514  0.000000000E+00  0.000000000E+00 -8.962435050E+00  8.962435050E+00  0.000000000E+00  0.00000E+00  9.000E+00
      21     1     1     2   515   512  1.358700487E+01  5.189351691E+00  4.374801189E+00  1.518798729E+01  1.694282341E-06  0.00000E+00  9.000E+00
       1     1     1     2   513     0 -1.145272625E+01 -1.102334603E+00  6.177601556E+02  6.178673796E+02  3.300000131E-01  0.00000E+00  9.000E+00
      21     1     1     2   512   514 -2.134278624E+00 -4.087017088E+00 -1.984707283E+00  5.019752675E+00  1.113905405E-06  0.00000E+00  9.000E+00
</event>
<event>
      5  10001  2.40292E+09  8.38281E+00 -1.00000E+00  2.04987E-01
      21    -1     0     0   513   516  0.000000000E+00  0.000000000E+00  8.805197303E+00  8.805197303E+00  0.000000000E+00  0.00000E+00  9.000E+00
      21    -1     0     0   516   514  0.000000000E+00  0.000000000E+00 -2.189676080E+02  2.189676080E+02  0.000000000E+00  0.00000E+00  9.000E+00
      -1     1     1     2     0   514 -9.144571454E+00  1.371871692E-02 -1.898284125E+02  1.900488318E+02  3.300000131E-01  0.00000E+00  9.000E+00
       1     1     1     2   511     0  1.673234065E+01  3.548642446E+00 -2.323503012E+01  2.885376251E+01  3.300000131E-01  0.00000E+00  9.000E+00
      21     1     1     2   513   511 -7.587769192E+00 -3.562361163E+00  2.901031855E+00  8.870211057E+00  2.190014490E-07  0.00000E+00  9.000E+00
</event>
<event>
      5  10001  2.40292E+09  7.19685E+00 -1.00000E+00  2.13795E-01
       2    -1     0     0   513     0  0.000000000E+00  0.000000000E+00  3.795442339E+02  3.795442339E+02  0.000000000E+00  0.00000E+00  9.000E+00
      21    -1     0     0   512   514  0.000000000E+00  0.000000000E+00 -2.784603315E+01  2.784603315E+01  0.000000000E+00  0.00000E+00  9.000E+00
      21     1     1     2   513   511 -8.882643648E+00 -1.916707159E+01  2.267266965E+01  3.098915844E+01  1.545128989E-06  0.00000E+00  9.000E+00
       2     1     1     2   512     0  1.091016074E+01  1.226174616E+01  3.519709219E+02  3.523535452E+02  3.300000131E-01  0.00000E+00  9.000E+00
      21     1     1     2   511   514 -2.027517093E+00  6.905325429E+00 -2.294539085E+01  2.404756341E+01  1.118282261E-06  0.00000E+00  9.000E+00
</event>
<event>
      5  10001  2.40292E+09  2.08548E+00 -1.00000E+00  3.54594E-01
      21    -1     0     0   515   512  0.000000000E+00  0.000000000E+00  4.147582686E+01  4.147582686E+01  0.000000000E+00  0.00000E+00  9.000E+00
      21    -1     0     0   511   513  0.000000000E+00  0.000000000E+00 -1.425653739E+02  1.425653739E+02  0.000000000E+00  0.00000E+00  9.000E+00
      21     1     1     2   515   516 -1.102060647E+01  7.147868644E+00 -1.382809154E+02  1.389034101E+02  0.000000000E+00  0.00000E+00  9.000E+00
      21     1     1     2   511   512  9.188497115E+00 -6.151584754E+00  4.007867628E+01  4.157608407E+01  1.348699152E-06  0.00000E+00  9.000E+00
      21     1     1     2   516   513  1.832109356E+00 -9.962838899E-01 -2.887307906E+00  3.561706505E+00  4.214684851E-08  0.00000E+00  9.000E+00
</event>
<event>
      5  10001  2.40292E+09  7.46451E+00 -1.00000E+00  2.11615E-01
      -3    -1     0     0     0   514  0.000000000E+00  0.000000000E+00  4.646073954E+01  4.646073954E+01  0.000000000E+00  0.00000E+00  9.000E+00
       3    -1     0     0   514     0  0.000000000E+00  0.000000000E+00 -7.787548466E+01  7.787548466E+01  0.000000000E+00  0.00000E+00  9.000E+00
      -3     1     1     2     0   512 -5.802864180E+00 -9.354012238E+00  3.872997820E+01  4.026700869E+01  5.000000000E-01  0.00000E+00  9.000E+00
      21     1     1     2   512   513  1.070177440E+01  3.722375015E+00  2.027220801E+00  1.151058970E+01  2.715120786E-07  0.00000E+00  9.000E+00
       3     1     1     2   513     0 -4.898910219E+00  5.631637223E+00 -7.217194413E+01  7.255862581E+01  5.000000000E-01  0.00000E+00  9.000E+00
</event>
<event>
      5  10001  2.40292E+09  4.98367E+00 -1.00000E+00  2.42736E-01
      21    -1     0     0   513   514  0.000000000E+00  0.000000000E+00  1.401852818E+00  1.401852818E+00  0.000000000E+00  0.00000E+00  9.000E+00
      -1    -1     0     0     0   511  0.000000000E+00  0.000000000E+00 -8.950421576E+01  8.950421576E+01  0.000000000E+00  0.00000E+00  9.000E+00
      21     1     1     2   512   514  5.282113391E+00 -4.332657626E+00 -4.025518452E+01  4.083077913E+01  4.768371582E-07  0.00000E+00  9.000E+00
      21     1     1     2   513   511 -3.839884673E+00  8.405360164E+00 -2.191600094E+01  2.378457254E+01  4.129530925E-07  0.00000E+00  9.000E+00
      -1     1     1     2     0   512 -1.442228718E+00 -4.072702538E+00 -2.593117748E+01  2.629071690E+01  3.300000131E-01  0.00000E+00  9.000E+00
</event>
<event>
      5  10001  2.40292E+09  4.91376E+00 -1.00000E+00  2.43959E-01
      21    -1     0     0   515   516  0.000000000E+00  0.000000000E+00  3.852566369E+01  3.852566369E+01  0.000000000E+00  0.00000E+00  9.000E+00
      21    -1     0     0   514   512  0.000000000E+00  0.000000000E+00 -3.748802504E+01  3.748802504E+01  0.000000000E+00  0.00000E+00  9.000E+00
      21     1     1     2   515   512  1.961814210E+01 -2.540129880E+00  3.173626818E+01  3.739671746E+01  6.743495762E-07  0.00000E+00  9.000E+00
      21     1     1     2   514   511 -1.654038121E+01 -1.265718351E+00 -2.904889951E+01  3.345182829E+01  4.768371582E-07  0.00000E+00  9.000E+00
      21     1     1     2   511   516 -3.077760885E+00  3.805848231E+00 -1.649730014E+00  5.165142974E+00  3.650024150E-08  0.00000E+00  9.000E+00
</event>
<event>
      5  10001  2.40292E+09  3.47342E+00 -1.00000E+00  2.78682E-01
      21    -1     0     0   513   512  0.000000000E+00  0.000000000E+00  6.932671751E+01  6.932671751E+01  0.000000000E+00  0.00000E+00  9.000E+00
      21    -1     0     0   517   516  0.000000000E+00  0.000000000E+00 -6.161191611E+00  6.161191611E+00  0.000000000E+00  0.00000E+00  9.000E+00
      21     1     1     2   513   516  1.113544557E+01  5.729208815E+00  1.904015399E+00  1.266677766E+01  4.791598079E-07  0.00000E+00  9.000E+00
      21     1     1     2   514   512 -7.177660067E+00 -6.548240769E+00  4.723795863E+01  4.822678712E+01  1.168007728E-06  0.00000E+00  9.000E+00
      21     1     1     2   517   514 -3.957785502E+00  8.190319541E-01  1.402355188E+01  1.459434434E+01  1.685873940E-07  0.00000E+00  9.000E+00
</event>
<event>
      5  10001  2.40292E+09  3.86644E+00 -1.00000E+00  2.66883E-01
       1    -1     0     0   515     0  0.000000000E+00  0.000000000E+00  1.467513782E+02  1.467513782E+02  0.000000000E+00  0.00000E+00  9.000E+00
       2    -1     0     0   511     0  0.000000000E+00  0.000000000E+00 -1.726988221E+00  1.726988221E+00  0.000000000E+00  0.00000E+00  9.000E+00
      21     1     1     2   515   514 -9.060992224E+00  9.082693418E+00  5.934152025E+01  6.071254340E+01  9.536743164E-07  0.00000E+00  9.000E+00
       1     1     1     2   511     0  5.361039987E+00 -1.019970139E+01  8.034313412E+01  8.116589652E+01  3.300000131E-01  0.00000E+00  9.000E+00
       2     1     1     2   514     0  3.699952238E+00  1.117007974E+00  5.339735575E+00  6.599926469E+00  3.300000131E-01  0.00000E+00  9.000E+00
</event>
<event>
      5  10001  2.40292E+09  7.02609E+00 -1.00000E+00  2.15254E-01
      21    -1     0     0   512   511  0.000000000E+00  0.000000000E+00  2.179229237E+01  2.179229237E+01  0.000000000E+00  0.00000E+00  9.000E+00
      21    -1     0     0   513   512  0.000000000E+00  0.000000000E+00 -7.666717907E+00  7.666717907E+00  0.000000000E+00  0.00000E+00  9.000E+00
      21     1     1     2   513   516  9.505247347E+00 -1.741908999E+00  2.744855011E-01  9.667435875E+00  1.747713105E-07  0.00000E+00  9.000E+00
      21     1     1     2   516   515 -5.941053342E+00  3.490038332E+00  1.422325743E+01  1.580435175E+01  0.000000000E+00  0.00000E+00  9.000E+00
      21     1     1     2   515   511 -3.564194006E+00 -1.748129333E+00 -3.721684701E-01  3.987222648E+00  9.275898038E-08  0.00000E+00  9.000E+00
</event>
<event>
      5  10001  2.40292E+09  7.39567E+00 -1.00000E+00  2.12164E-01
      21    -1     0     0   514   516  0.000000000E+00  0.000000000E+00  1.672974826E+02  1.672974826E+02  0.000000000E+00  0.00000E+00  9.000E+00
      21    -1     0     0   513   511  0.000000000E+00  0.000000000E+00 -1.084383002E+00  1.084383002E+00  0.000000000E+00  0.00000E+00  9.000E+00
      21     1     1     2   514   511  9.200592551E+00  7.645436774E+00  1.013779640E+02  1.020813166E+02  0.000000000E+00  0.00000E+00  9.000E+00
      21     1     1     2   513   512 -4.617140652E+00 -1.672712538E+00  1.255746311E+01  1.348353940E+01  5.331201500E-07  0.00000E+00  9.000E+00
      21     1     1     2   512   516 -4.583451900E+00 -5.972724236E+00  5.227767246E+01  5.281700961E+01  6.743495762E-07  0.00000E+00  9.000E+00
</event>
<event>
      5  10001  2.40292E+09  6.66094E+00 -1.00000E+00  2.18573E-01
      21    -1     0     0   515   511  0.000000000E+00  0.000000000E+00  5.111801723E+01  5.111801723E+01  0.000000000E+00  0.00000E+00  9.000E+00
      21    -1     0     0   517   516  0.000000000E+00  0.000000000E+00 -6.805017672E+01  6.805017672E+01  0.000000000E+00  0.00000E+00  9.000E+00
      21     1     1     2   515   516  2.530337928E-02 -1.033161030E+01 -6.599916081E+01  6.680293437E+01  1.348699152E-06  0.00000E+00  9.000E+00
      21     1     1     2   517   513  5.353256989E+00  9.536325385E+00  4.226686749E+01  4.365875571E+01  0.000000000E+00  0.00000E+00  9.000E+00
      21     1     1     2   513   511 -5.378560368E+00  7.952849180E-01  6.800133825E+00  8.706503878E+00  1.192092896E-07  0.00000E+00  9.000E+00
</event>
<event>
      5  10001  2.40292E+09  1.34098E+01 -1.00000E+00  1.82044E-01
      -4    -1     0     0     0   511  0.000000000E+00  0.000000000E+00  1.139121317E+01  1.139121317E+01  0.000000000E+00  0.00000E+00  9.000E+00
      21    -1     0     0   512   513  0.000000000E+00  0.000000000E+00 -7.181058942E+01  7.181058942E+01  0.000000000E+00  0.00000E+00  9.000E+00
      -4     1     1     2     0   513  1.509196278E+01 -1.493730306E+01 -3.343748760E+00  2.154810940E+01  1.500000000E+00  0.00000E+00  9.000E+00
      21     1     1     2   514   511 -1.731303912E+00  4.097436990E+00 -2.360037859E+01  2.401591707E+01  4.768371582E-07  0.00000E+00  9.000E+00
      21     1     1     2   512   514 -1.336065887E+01  1.083986607E+01 -3.347524890E+01  3.763777611E+01  0.000000000E+00  0.00000E+00  9.000E+00
</event>
<event>
      5  10001  2.40292E+09  1.43205E+01 -1.00000E+00  1.79253E-01
      21    -1     0     0   515   511  0.000000000E+00  0.000000000E+00  7.831153208E+00  7.831153208E+00  0.000000000E+00  0.00000E+00  9.000E+00
      21    -1     0     0   512   515  0.000000000E+00  0.000000000E+00 -9.106647595E+01  9.106647595E+01  0.000000000E+00  0.00000E+00  9.000E+00
      21     1     1     2   514   511  1.205284002E+01  6.135256149E+00  1.672961669E-01  1.352554282E+01  1.295576488E-07  0.00000E+00  9.000E+00
      21     1     1     2   513   514  3.419618767E-01 -4.315149529E+00 -3.888946440E+01  3.912962937E+01  0.000000000E+00  0.00000E+00  9.000E+00
      21     1     1     2   512   513 -1.239480190E+01 -1.820106620E+00 -4.451315451E+01  4.624245697E+01  4.768371582E-07  0.00000E+00  9.000E+00
</event>
<event>
      5  10001  2.40292E+09  6.38180E+00 -1.00000E+00  2.21314E-01
      21    -1     0     0   516   512  0.000000000E+00  0.000000000E+00  2.775179796E+01  2.775179796E+01  0.000000000E+00  0.00000E+00  9.000E+00
      21    -1     0     0   511   517  0.000000000E+00  0.000000000E+00 -4.685076412E+01  4.685076412E+01  0.000000000E+00  0.00000E+00  9.000E+00
      21     1     1     2   516   517 -3.995615554E+00 -1.156842297E+01 -4.432657812E+01  4.598520285E+01  4.768371582E-07  0.00000E+00  9.000E+00
      21     1     1     2   514   512  3.486294331E-02  7.320044173E+00  1.062988664E+01  1.290653912E+01  1.685873940E-07  0.00000E+00  9.000E+00
      21     1     1     2   511   514  3.960752610E+00  4.248378800E+00  1.459772532E+01  1.571082010E+01  2.384185791E-07  0.00000E+00  9.000E+00
</event>
<event>
      5  10001  2.40292E+09  3.87525E+00 -1.00000E+00  2.66644E-01
      21    -1     0     0   512   514  0.000000000E+00  0.000000000E+00  2.802497914E+02  2.802497914E+02  0.000000000E+00  0.00000E+00  9.000E+00
      21    -1     0     0   511   515  0.000000000E+00  0.000000000E+00 -2.750308920E+01  2.750308920E+01  0.000000000E+00  0.00000E+00  9.000E+00
      21     1     1     2   513   515 -8.320425781E+00 -9.502311762E+00 -2.048092757E+01  2.406224861E+01  4.129530925E-07  0.00000E+00  9.000E+00
      21     1     1     2   511   514  8.559918822E+00  5.634472855E+00 -1.859516627E-01  1.024958890E+01  2.732951774E-07  0.00000E+00  9.000E+00
      21     1     1     2   512   513 -2.394930410E-01  3.867838908E+00  2.734135814E+02  2.734410431E+02  3.814697266E-06  0.00000E+00  9.000E+00
</event>
<event>
      5  10001  2.40292E+09  4.72188E+00 -1.00000E+00  2.47477E-01
      21    -1     0     0   516   511  0.000000000E+00  0.000000000E+00  3.074731375E+02  3.074731375E+02  0.000000000E+00  0.00000E+00  9.000E+00
      21    -1     0     0   517   514  0.000000000E+00  0.000000000E+00 -7.828970047E+01  7.828970047E+01  0.000000000E+00  0.00000E+00  9.000E+00
      21     1     1     2   516   513 -8.310810987E+00  1.359612243E+01 -5.653601444E+00  1.690820315E+01  1.500806607E-06  0.00000E+00  9.000E+00
      21     1     1     2   517   511  5.943764358E+00 -9.510387965E+00  3.016583225E+02  3.018667245E+02  5.394796609E-06  0.00000E+00  9.000E+00
      21     1     1     2   513   514  2.367046629E+00 -4.085734467E+00 -6.682128402E+01  6.698791035E+01  1.348699152E-06  0.00000E+00  9.000E+00
</event>
<event>
      5  10001  2.40292E+09  8.14368E+00 -1.00000E+00  2.06600E-01
      21    -1     0     0   512   513  0.000000000E+00  0.000000000E+00  9.841599794E+00  9.841599794E+00  0.000000000E+00  0.00000E+00  9.000E+00
      21    -1     0     0   515   512  0.000000000E+00  0.000000000E+00 -1.558755908E+02  1.558755908E+02  0.000000000E+00  0.00000E+00  9.000E+00
      21     1     1     2   515   514  5.568943401E+00  8.327672619E+00 -1.472785715E+02  1.476189042E+02  2.697398305E-06  0.00000E+00  9.000E+00
      -3     1     1     2     0   513 -5.257722492E+00 -8.831463327E-01  6.897600510E+00  8.732152430E+00  5.000000000E-01  0.00000E+00  9.000E+00
       3     1     1     2   514     0 -3.112209085E-01 -7.444526287E+00 -5.653020075E+00  9.366133998E+00  5.000000000E-01  0.00000E+00  9.000E+00
</event>
<event>
      5  10001  2.40292E+09  5.52543E+00 -1.00000E+00  2.31094E-01
      21    -1     0     0   513   515  0.000000000E+00  0.000000000E+00  2.266128342E+00  2.266128342E+00  0.000000000E+00  0.00000E+00  9.000E+00
      -3    -1     0     0     0   511  0.000000000E+00  0.000000000E+00 -1.858789707E+02  1.858789707E+02  0.000000000E+00  0.00000E+00  9.000E+00
      -3     1     1     2     0   512  1.297473502E+01  1.110906289E+00 -1.608772536E+02  1.614042087E+02  5.000000000E-01  0.00000E+00  9.000E+00
      21     1     1     2   512   515 -7.922821053E+00  1.125021588E+00 -1.693451041E+01  1.873004030E+01  1.215700987E-06  0.00000E+00  9.000E+00
      21     1     1     2   513   511 -5.051913963E+00 -2.235927877E+00 -5.801078324E+00  8.010850010E+00  3.039252468E-07  0.00000E+00  9.000E+00
</event>
<event>
      5  10001  2.40292E+09  7.62651E+00 -1.00000E+00  2.10355E-01
       2    -1     0     0   512     0  0.000000000E+00  0.000000000E+00  1.770991130E+02  1.770991130E+02  0.000000000E+00  0.00000E+00  9.000E+00
       4    -1     0     0   513     0  0.000000000E+00  0.000000000E+00 -2.689864265E+01  2.689864265E+01  0.000000000E+00  0.00000E+00  9.000E+00
       2     1     1     2   513     0 -2.868033163E+01 -2.038474600E+01  1.326227038E+02  1.372114782E+02  3.300000131E-01  0.00000E+00  9.000E+00
       4     1     1     2   511     0  2.698956239E+01  1.294904156E+01 -1.486709038E+01  3.345735392E+01  1.500000000E+00  0.00000E+00  9.000E+00
      21     1     1     2   512   511  1.690769247E+00  7.435704442E+00  3.244485696E+01  3.332892354E+01  4.768371582E-07  0.00000E+00  9.000E+00
</event>
<event>
      5  10001  2.40292E+09  3.99884E+00 -1.00000E+00  2.63392E-01
       1    -1     0     0   514     0  0.000000000E+00  0.000000000E+00  2.397965528E+02  2.397965528E+02  0.000000000E+00  0.00000E+00  9.000E+00
      21    -1     0     0   511   514  0.000000000E+00  0.000000000E+00 -1.206246464E+00  1.206246464E+00  0.000000000E+00  0.00000E+00  9.000E+00
      21     1     1     2   511   513  4.860442921E+00 -5.795115909E-01  1.471012680E+01  1.550314709E+01  2.920019320E-07  0.00000E+00  9.000E+00
       1     1     1     2   512     0 -9.607732477E+00  3.620936427E+00  2.129808657E+02  2.132284638E+02  3.300000131E-01  0.00000E+00  9.000E+00
      21     1     1     2   513   512  4.747289557E+00 -3.041424836E+00  1.089931387E+01  1.227118845E+01  2.920019320E-07  0.00000E+00  9.000E+00
</event>
<event>
      5  10001  2.40292E+09  5.48314E+00 -1.00000E+00  2.31641E-01
      21    -1     0     0   515   512  0.000000000E+00  0.000000000E+00  4.700726278E+01  4.700726278E+01  0.000000000E+00  0.00000E+00  9.000E+00
       2    -1     0     0   513     0  0.000000000E+00  0.000000000E+00 -1.052608882E+01  1.052608882E+01  0.000000000E+00  0.00000E+00  9.000E+00
      21     1     1     2   511   512  2.783388602E+00  6.897435547E+00  1.660528514E+01  1.819498183E+01  0.000000000E+00  0.00000E+00  9.000E+00
       2     1     1     2   515     0 -5.040712705E+00 -1.140713012E+01 -5.378331709E+00  1.358553474E+01  3.300000131E-01  0.00000E+00  9.000E+00
      21     1     1     2   513   511  2.257324102E+00  4.509694572E+00  2.525422053E+01  2.575283503E+01  3.371747881E-07  0.00000E+00  9.000E+00
</event>
<event>
      5  10001  2.40292E+09  2.16840E+01 -1.00000E+00  1.63483E-01
      21    -1     0     0   514   513  0.000000000E+00  0.000000000E+00  6.648594200E+01  6.648594200E+01  0.000000000E+00  0.00000E+00  9.000E+00
      21    -1     0     0   511   514  0.000000000E+00  0.000000000E+00 -3.564223632E+00  3.564223632E+00  0.000000000E+00  0.00000E+00  9.000E+00
      -1     1     1     2     0   513  4.837846108E+00 -7.407391671E+00  3.870797809E+01  3.970756444E+01  3.300000131E-01  0.00000E+00  9.000E+00
       1     1     1     2   512     0  1.361520016E+00  5.483162408E+00  2.306683161E+01  2.375092477E+01  3.300000131E-01  0.00000E+00  9.000E+00
      21     1     1     2   511   512 -6.199366124E+00  1.924229263E+00  1.146908674E+00  6.591676425E+00  1.154238983E-07  0.00000E+00  9.000E+00
</event>
<event>
      5  10001  2.40292E+09  6.59469E+00 -1.00000E+00  2.19207E-01
      21    -1     0     0   513   512  0.000000000E+00  0.000000000E+00  2.149944139E+01  2.149944139E+01  0.000000000E+00  0.00000E+00  9.000E+00
      21    -1     0     0   511   515  0.000000000E+00  0.000000000E+00 -5.036392184E+01  5.036392184E+01  0.000000000E+00  0.00000E+00  9.000E+00
      21     1     1     2   511   516  4.053862424E+00 -7.533107306E+00 -1.698432436E+01  1.901706550E+01  2.384185791E-07  0.00000E+00  9.000E+00
      21     1     1     2   516   512 -1.018550488E+01  9.960627455E+00 -3.019135275E+01  3.338377435E+01  0.000000000E+00  0.00000E+00  9.000E+00
      21     1     1     2   513   515  6.131642458E+00 -2.427520149E+00  1.831119666E+01  1.946252339E+01  2.384185791E-07  0.00000E+00  9.000E+00
</event>
<event>
      5  10001  2.40292E+09  1.32364E+01 -1.00000E+00  1.82608E-01
       1    -1     0     0   515     0  0.000000000E+00  0.000000000E+00  3.295811201E+01  3.295811201E+01  0.000000000E+00  0.00000E+00  9.000E+00
      21    -1     0     0   513   514  0.000000000E+00  0.000000000E+00 -3.834954469E+01  3.834954469E+01  0.000000000E+00  0.00000E+00  9.000E+00
      21     1     1     2   515   514 -8.088016435E+00 -8.408304053E+00 -3.236179474E+01  3.440060095E+01  4.768371582E-07  0.00000E+00  9.000E+00
      21     1     1     2   513   511 -1.611770907E-01  1.282566576E+01  2.377358492E+01  2.701308979E+01  5.840038640E-07  0.00000E+00  9.000E+00
       1     1     1     2   511     0  8.249193525E+00 -4.417361709E+00  3.196777141E+00  9.893965959E+00  3.300000131E-01  0.00000E+00  9.000E+00
</event>
<event>
      5  10001  2.40292E+09  8.39795E+00 -1.00000E+00  2.04887E-01
      21    -1     0     0   512   513  0.000000000E+00  0.000000000E+00  6.459705131E+00  6.459705131E+00  0.000000000E+00  0.00000E+00  9.000E+00
      21    -1     0     0   516   512  0.000000000E+00  0.000000000E+00 -1.669025267E+02  1.669025267E+02  0.000000000E+00  0.00000E+00  9.000E+00
      21     1     1     2   516   517 -4.160134540E+00 -1.298033434E+01 -1.487897645E+02  1.494128168E+02  0.000000000E+00  0.00000E+00  9.000E+00
      21     1     1     2   514   513 -2.500342803E+00  1.087748994E+01 -9.933619612E-01  1.120527864E+01  2.018543658E-07  0.00000E+00  9.000E+00
      21     1     1     2   517   514  6.660477343E+00  2.102844405E+00 -1.065969512E+01  1.274413642E+01  2.064765462E-07  0.00000E+00  9.000E+00
</event>
<event>
      5  10001  2.40292E+09  6.86252E+00 -1.00000E+00  2.16706E-01
       2    -1     0     0   514     0  0.000000000E+00  0.000000000E+00  7.560734641E+00  7.560734641E+00  0.000000000E+00  0.00000E+00  9.000E+00
      21    -1     0     0   511   512  0.000000000E+00  0.000000000E+00 -9.962708935E+01  9.962708935E+01  0.000000000E+00  0.00000E+00  9.000E+00
      21     1     1     2   514   512 -1.201791753E+01 -6.551353792E+00 -9.068565476E+01  9.171280476E+01  0.000000000E+00  0.00000E+00  9.000E+00
       2     1     1     2   513     0  4.074259311E+00  1.150050137E+00  2.706634027E+00  5.035570674E+00  3.300000131E-01  0.00000E+00  9.000E+00
      21     1     1     2   511   513  7.943658220E+00  5.401303655E+00 -4.087333978E+00  1.043944856E+01  2.920019320E-07  0.00000E+00  9.000E+00
</event>
<event>
      5  10001  2.40292E+09  9.25172E+00 -1.00000E+00  1.99684E-01
       2    -1     0     0   511     0  0.000000000E+00  0.000000000E+00  7.200488543E+02  7.200488543E+02  0.000000000E+00  0.00000E+00  9.000E+00
      21    -1     0     0   512   513  0.000000000E+00  0.000000000E+00 -9.521770121E+00  9.521770121E+00  0.000000000E+00  0.00000E+00  9.000E+00
      21     1     1     2   511   513  1.092237442E+01  4.736683801E+00 -3.620243420E+00  1.244349624E+01  4.172325134E-07  0.00000E+00  9.000E+00
       2     1     1     2   515     0 -1.178745918E+01  4.474469330E+00  7.006493793E+02  7.007628890E+02  3.300000131E-01  0.00000E+00  9.000E+00
      21     1     1     2   512   515  8.650847624E-01 -9.211153132E+00  1.349794831E+01  1.636423913E+01  2.384185791E-07  0.00000E+00  9.000E+00
</event>
<event>
      5  10001  2.40292E+09  9.94414E+00 -1.00000E+00  1.95980E-01
      21    -1     0     0   514   513  0.000000000E+00  0.000000000E+00  1.982389108E+01  1.982389108E+01  0.000000000E+00  0.00000E+00  9.000E+00
      21    -1     0     0   512   516  0.000000000E+00  0.000000000E+00 -2.239997496E+01  2.239997496E+01  0.000000000E+00  0.00000E+00  9.000E+00
      21     1     1     2   514   516 -1.261976969E+01  4.949899395E+00  9.487383552E+00  1.654601275E+01  3.371747881E-07  0.00000E+00  9.000E+00
      21     1     1     2   512   511  1.602416419E+01 -3.041447481E-01 -1.181787608E+01  1.991302431E+01  3.371747881E-07  0.00000E+00  9.000E+00
      21     1     1     2   511   513 -3.404394500E+00 -4.645754647E+00 -2.455913594E-01  5.764828989E+00  1.104157443E-07  0.00000E+00  9.000E+00
</event>
<event>
      5  10001  2.40292E+09  1.72632E+01 -1.00000E+00  1.71776E-01
      21    -1     0     0   515   511  0.000000000E+00  0.000000000E+00  4.924640750E+00  4.924640750E+00  0.000000000E+00  0.00000E+00  9.000E+00
      21    -1     0     0   513   515  0.000000000E+00  0.000000000E+00 -3.105619677E+01  3.105619677E+01  0.000000000E+00  0.00000E+00  9.000E+00
      21     1     1     2   512   511 -4.462542414E+00 -3.395023555E+00 -3.262615851E+00  6.487305444E+00  1.685873940E-07  0.00000E+00  9.000E+00
      21     1     1     2   514   512  4.090661247E+00 -3.567334253E+00 -2.176849064E+01  2.243494078E+01  3.371747881E-07  0.00000E+00  9.000E+00
      21     1     1     2   513   514  3.718811664E-01  6.962357808E+00 -1.100449525E+00  7.058591291E+00  1.332800375E-07  0.00000E+00  9.000E+00
</event>
<event>
      5  10001  2.40292E+09  2.80439E+01 -1.00000E+00  1.55066E-01
      21    -1     0     0   516   513  0.000000000E+00  0.000000000E+00  1.589126895E+01  1.589126895E+01  0.000000000E+00  0.00000E+00  9.000E+00
      21    -1     0     0   511   517  0.000000000E+00  0.000000000E+00 -1.921225570E+01  1.921225570E+01  0.000000000E+00  0.00000E+00  9.000E+00
      21     1     1     2   516   517  8.177708274E-01  3.302751670E+00 -3.042586848E+00  4.564455328E+00  2.107342426E-07  0.00000E+00  9.000E+00
      21     1     1     2   512   513  4.537937607E+00 -2.679235536E+00  1.416955805E+01  1.511778940E+01  2.384185791E-07  0.00000E+00  9.000E+00
      21     1     1     2   511   512 -5.355708435E+00 -6.235161343E-01 -1.444795796E+01  1.542127992E+01  3.371747881E-07  0.00000E+00  9.000E+00
</event>
<event>
      5  10001  2.40292E+09  4.56163E+00 -1.00000E+00  2.50614E-01
       2    -1     0     0   511     0  0.000000000E+00  0.000000000E+00  1.288671471E+00  1.288671471E+00  0.000000000E+00  0.00000E+00  9.000E+00
      21    -1     0     0   514   513  0.000000000E+00  0.000000000E+00 -9.898001048E+02  9.898001048E+02  0.000000000E+00  0.00000E+00  9.000E+00
      21     1     1     2   511   512  3.266149188E+00 -1.167903559E+01 -2.823838045E+02  2.826440883E+02  6.607249480E-06  0.00000E+00  9.000E+00
       2     1     1     2   514     0 -6.781804960E+00  8.772548891E+00 -2.558056119E+01  2.788233318E+01  3.300000131E-01  0.00000E+00  9.000E+00
      21     1     1     2   512   513  3.515655771E+00  2.906486697E+00 -6.805470677E+02  6.805623548E+02  1.078959322E-05  0.00000E+00  9.000E+00
</event>
<event>
      5  10001  2.40292E+09  6.35828E+00 -1.00000E+00  2.21554E-01
       2    -1     0     0   511     0  0.000000000E+00  0.000000000E+00  6.184512611E+01  6.184512611E+01  0.000000000E+00  0.00000E+00  9.000E+00
      21    -1     0     0   512   514  0.000000000E+00  0.000000000E+00 -1.325437447E+01  1.325437447E+01  0.000000000E+00  0.00000E+00  9.000E+00
      21     1     1     2   512   515  1.669235130E+01  8.713072953E+00  5.514300465E+00  1.962039097E+01  5.196212463E-07  0.00000E+00  9.000E+00
       2     1     1     2   515     0 -1.041916577E+01 -7.677845274E+00  4.649251616E+01  4.826148860E+01  3.300000131E-01  0.00000E+00  9.000E+00
      21     1     1     2   511   514 -6.273185534E+00 -1.035227679E+00 -3.416064980E+00  7.217621009E+00  7.300048300E-08  0.00000E+00  9.000E+00
</event>
<event>
      5  10001  2.40292E+09  3.94704E+00 -1.00000E+00  2.64732E-01
      21    -1     0     0   514   512  0.000000000E+00  0.000000000E+00  4.776551655E+02  4.776551655E+02  0.000000000E+00  0.00000E+00  9.000E+00
      21    -1     0     0   513   514  0.000000000E+00  0.000000000E+00 -3.432557791E-01  3.432557791E-01  0.000000000E+00  0.00000E+00  9.000E+00
      -2     1     1     2     0   512 -1.014143468E+01 -6.914323440E+00  2.431878349E+02  2.434976150E+02  3.300000131E-01  0.00000E+00  9.000E+00
       2     1     1     2   515     0  6.433760482E+00  4.851550744E+00  1.905671991E+02  1.907377705E+02  3.300000131E-01  0.00000E+00  9.000E+00
      21     1     1     2   513   515  3.707674199E+00  2.062772696E+00  4.355687569E+01  4.376303576E+01  8.259061849E-07  0.00000E+00  9.000E+00
</event>
<event>
      5  10001  2.40292E+09  1.91316E+01 -1.00000E+00  1.67933E-01
      21    -1     0     0   511   513  0.000000000E+00  0.000000000E+00  6.467531939E-01  6.467531939E-01  0.000000000E+00  0.00000E+00  9.000E+00
       2    -1     0     0   512     0  0.000000000E+00  0.000000000E+00 -2.280289006E+02  2.280289006E+02  0.000000000E+00  0.00000E+00  9.000E+00
      21     1     1     2   512   513  3.285742941E+00 -9.406291368E-01 -2.535476669E+01  2.558407871E+01  4.768371582E-07  0.00000E+00  9.000E+00
       2     1     1     2   514     0 -3.791770541E+00  6.824868412E-02 -2.020470071E+02  2.020828646E+02  3.300000131E-01  0.00000E+00  9.000E+00
      21     1     1     2   511   514  5.060275996E-01  8.723804526E-01  1.962641947E-02  1.008710455E+00  1.690124362E-07  0.00000E+00  9.000E+00
</event>
<event>
      5  10001  2.40292E+09  6.72028E+00 -1.00000E+00  2.18015E-01
      21    -1     0     0   515   513  0.000000000E+00  0.000000000E+00  5.536867777E+01  5.536867777E+01  0.000000000E+00  0.00000E+00  9.000E+00
      -1    -1     0     0     0   515  0.000000000E+00  0.000000000E+00 -2.793537617E+01  2.793537617E+01  0.000000000E+00  0.00000E+00  9.000E+00
      21     1     1     2   516   512 -4.108433740E+00  1.155131951E+01  2.389562540E+00  1.249088545E+01  3.513641990E-07  0.00000E+00  9.000E+00
      21     1     1     2   512   513  1.014130969E+01 -1.451180273E+01  4.574209410E+01  4.904872836E+01  9.536743164E-07  0.00000E+00  9.000E+00
      -1     1     1     2     0   516 -6.032875954E+00  2.960483219E+00 -2.069835503E+01  2.176444013E+01  3.300000131E-01  0.00000E+00  9.000E+00
</event>
<event>
      5  10001  2.40292E+09  7.88750E+00 -1.00000E+00  2.08411E-01
      21    -1     0     0   512   514  0.000000000E+00  0.000000000E+00  6.458072065E+01  6.458072065E+01  0.000000000E+00  0.00000E+00  9.000E+00
      -1    -1     0     0     0   511  0.000000000E+00  0.000000000E+00 -4.077860025E+01  4.077860025E+01  0.000000000E+00  0.00000E+00  9.000E+00
      -1     1     1     2     0   513 -1.488049936E+01 -3.979381465E+00 -3.769153780E+01  4.071886123E+01  3.300000131E-01  0.00000E+00  9.000E+00
      21     1     1     2   513   514  8.660192932E+00 -8.702640680E-01  1.391822778E+01  1.641564393E+01  6.078504936E-07  0.00000E+00  9.000E+00
      21     1     1     2   512   511  6.220306431E+00  4.849645533E+00  4.757543042E+01  4.822481574E+01  0.000000000E+00  0.00000E+00  9.000E+00
</event>
<event>
      5  10001  2.40292E+09  3.23508E+00 -1.00000E+00  2.87138E-01
      21    -1     0     0   513   514  0.000000000E+00  0.000000000E+00  1.193379810E+02  1.193379810E+02  0.000000000E+00  0.00000E+00  9.000E+00
       2    -1     0     0   514     0  0.000000000E+00  0.000000000E+00 -8.980047362E+00  8.980047362E+00  0.000000000E+00  0.00000E+00  9.000E+00
      -2     1     1     2     0   511  6.570501093E+00  8.877095583E+00  9.137125215E+01  9.203688896E+01  3.300000131E-01  0.00000E+00  9.000E+00
       2     1     1     2   511     0 -3.707549751E+00 -1.038227215E+01 -4.975299459E+00  1.209958697E+01  3.300000131E-01  0.00000E+00  9.000E+00
       2     1     1     2   513     0 -2.862951342E+00  1.505176567E+00  2.396198096E+01  2.418155244E+01  3.300000131E-01  0.00000E+00  9.000E+00
</event>
<event>
      5  10001  2.40292E+09  1.19353E+01 -1.00000E+00  1.87222E-01
      21    -1     0     0   516   511  0.000000000E+00  0.000000000E+00  5.908281601E+01  5.908281601E+01  0.000000000E+00  0.00000E+00  9.000E+00
      21    -1     0     0   514   515  0.000000000E+00  0.000000000E+00 -2.226864182E+02  2.226864182E+02  0.000000000E+00  0.00000E+00  9.000E+00
      21     1     1     2   512   515 -2.405216388E+00  6.676413224E+00 -9.434352955E+00  1.180536213E+01  6.419616708E-07  0.00000E+00  9.000E+00
      21     1     1     2   514   511 -7.299826956E+00 -1.362353904E+01 -2.111660031E+02  2.117308885E+02  2.697398305E-06  0.00000E+00  9.000E+00
      21     1     1     2   516   512  9.705043343E+00  6.947125816E+00  5.699675386E+01  5.823298356E+01  1.348699152E-06  0.00000E+00  9.000E+00
</event>
<event>
      5  10001  2.40292E+09  7.90545E+00 -1.00000E+00  2.08281E-01
      21    -1     0     0   513   515  0.000000000E+00  0.000000000E+00  6.785920939E+01  6.785920939E+01  0.000000000E+00  0.00000E+00  9.000E+00
      21    -1     0     0   517   513  0.000000000E+00  0.000000000E+00 -1.076704978E+02  1.076704978E+02  0.000000000E+00  0.00000E+00  9.000E+00
      21     1     1     2   514   511 -2.024891245E+01  7.563317521E+00 -1.240150734E+01  2.492026508E+01  4.129530925E-07  0.00000E+00  9.000E+00
      21     1     1     2   517   514  1.264150628E+01 -5.413088734E+00 -8.822108225E+01  8.928644110E+01  1.348699152E-06  0.00000E+00  9.000E+00
      21     1     1     2   511   515  7.607406169E+00 -2.150228787E+00  6.081130114E+01  6.132300106E+01  6.743495762E-07  0.00000E+00  9.000E+00
</event>
<event>
      5  10001  2.40292E+09  7.04184E+00 -1.00000E+00  2.15117E-01
      21    -1     0     0   512   516  0.000000000E+00  0.000000000E+00  1.842605506E+00  1.842605506E+00  0.000000000E+00  0.00000E+00  9.000E+00
      21    -1     0     0   511   515  0.000000000E+00  0.000000000E+00 -1.004054493E+02  1.004054493E+02  0.000000000E+00  0.00000E+00  9.000E+00
      21     1     1     2   512   515 -1.339167564E+00  8.711765879E+00 -1.702455813E+01  1.917091062E+01  4.129530925E-07  0.00000E+00  9.000E+00
      21     1     1     2   513   516 -1.087660790E+00 -1.120053568E+01 -7.293673182E+01  7.379974156E+01  0.000000000E+00  0.00000E+00  9.000E+00
      21     1     1     2   511   513  2.426828354E+00  2.488769801E+00 -8.601553835E+00  9.277402620E+00  0.000000000E+00  0.00000E+00  9.000E+00
</event>
<event>
      5  10001  2.40292E+09  5.88104E+00 -1.00000E+00  2.26752E-01
      21    -1     0     0   514   512  0.000000000E+00  0.000000000E+00  4.887277400E+00  4.887277400E+00  0.000000000E+00  0.00000E+00  9.000E+00
      21    -1     0     0   511   517  0.000000000E+00  0.000000000E+00 -6.919641289E+01  6.919641289E+01  0.000000000E+00  0.00000E+00  9.000E+00
      21     1     1     2   514   517 -1.580731994E+00 -8.649516347E+00 -7.797698889E+00  1.175231699E+01  2.528810911E-07  0.00000E+00  9.000E+00
      21     1     1     2   511   513 -2.316094342E+00  1.305421060E+01 -5.454058194E+01  5.612888549E+01  0.000000000E+00  0.00000E+00  9.000E+00
      21     1     1     2   513   512  3.896826336E+00 -4.404694252E+00 -1.970854654E+00  6.202487808E+00  1.490116119E-07  0.00000E+00  9.000E+00
</event>
<event>
      5  10001  2.40292E+09  2.02085E+01 -1.00000E+00  1.65957E-01
      21    -1     0     0   513   511  0.000000000E+00  0.000000000E+00  9.236249427E-01  9.236249427E-01  0.000000000E+00  0.00000E+00  9.000E+00
       2    -1     0     0   512     0  0.000000000E+00  0.000000000E+00 -1.571248704E+02  1.571248704E+02  0.000000000E+00  0.00000E+00  9.000E+00
      21     1     1     2   512   511  2.131734351E+00  1.890776218E+00 -1.580537748E+01  1.606017694E+01  2.384185791E-07  0.00000E+00  9.000E+00
       2     1     1     2   514     0 -3.358986939E+00 -6.114611045E-01 -1.401576214E+02  1.401995877E+02  3.300000131E-01  0.00000E+00  9.000E+00
      21     1     1     2   513   514  1.227252588E+00 -1.279315114E+00 -2.382466661E-01  1.788730709E+00  1.508857545E-07  0.00000E+00  9.000E+00
</event>
<event>
      5  10001  2.40292E+09  3.03559E+00 -1.00000E+00  2.95185E-01
      21    -1     0     0   515   512  0.000000000E+00  0.000000000E+00  4.176274579E+00  4.176274579E+00  0.000000000E+00  0.00000E+00  9.000E+00
      21    -1     0     0   516   515  0.000000000E+00  0.000000000E+00 -4.643855204E+01  4.643855204E+01  0.000000000E+00  0.00000E+00  9.000E+00
      21     1     1     2   514   512  9.953489610E+00  4.874778482E+00 -6.033564678E+00  1.261900643E+01  8.429369702E-08  0.00000E+00  9.000E+00
      -2     1     1     2     0   514 -3.926782318E+00 -1.700166988E+00 -1.872417162E+01  1.920972905E+01  3.300000131E-01  0.00000E+00  9.000E+00
       2     1     1     2   516     0 -6.026707292E+00 -3.174611493E+00 -1.750454116E+01  1.878609113E+01  3.300000131E-01  0.00000E+00  9.000E+00
</event>
<event>
      5  10001  2.40292E+09  5.79867E+00 -1.00000E+00  2.27719E-01
      21    -1     0     0   514   512  0.000000000E+00  0.000000000E+00  1.412092783E+01  1.412092783E+01  0.000000000E+00  0.00000E+00  9.000E+00
       2    -1     0     0   512     0  0.000000000E+00  0.000000000E+00 -8.401906303E+01  8.401906303E+01  0.000000000E+00  0.00000E+00  9.000E+00
      21     1     1     2   513   511  5.533180335E+00 -2.048074491E+01  1.972935006E+00  2.130655930E+01  4.323905149E-07  0.00000E+00  9.000E+00
       2     1     1     2   511     0 -1.350383183E+00  1.646488944E+01 -6.770847366E+01  6.969549788E+01  3.300000131E-01  0.00000E+00  9.000E+00
      21     1     1     2   514   513 -4.182797152E+00  4.015855470E+00 -4.162596547E+00  7.137933678E+00  2.064765462E-07  0.00000E+00  9.000E+00
</event>
<event>
      5  10001  2.40292E+09  4.82957E+00 -1.00000E+00  2.45472E-01
      21    -1     0     0   515   511  0.000000000E+00  0.000000000E+00  7.249551087E+00  7.249551087E+00  0.000000000E+00  0.00000E+00  9.000E+00
      21    -1     0     0   512   513  0.000000000E+00  0.000000000E+00 -1.984420378E+01  1.984420378E+01  0.000000000E+00  0.00000E+00  9.000E+00
      21     1     1     2   515   513 -3.104053067E+00  1.073543223E+01 -9.750283130E+00  1.483080145E+01  2.384185791E-07  0.00000E+00  9.000E+00
      21     1     1     2   516   511 -7.272369231E-02 -4.421163925E+00  4.876890630E-01  4.448575032E+00  1.346268579E-07  0.00000E+00  9.000E+00
      21     1     1     2   512   516  3.176776760E+00 -6.314268305E+00 -3.332058625E+00  7.814378381E+00  2.698715072E-07  0.00000E+00  9.000E+00
</event>
<event>
      5  10001  2.40292E+09  4.33928E+00 -1.00000E+00  2.55307E-01
      21    -1     0     0   514   513  0.000000000E+00  0.000000000E+00  1.162506643E+02  1.162506643E+02  0.000000000E+00  0.00000E+00  9.000E+00
      21    -1     0     0   512   511  0.000000000E+00  0.000000000E+00 -1.644610723E+01  1.644610723E+01  0.000000000E+00  0.00000E+00  9.000E+00
      21     1     1     2   514   517  1.015978190E+01 -1.453942002E+00  3.175563485E+00  1.074333836E+01  3.816559456E-07  0.00000E+00  9.000E+00
      21     1     1     2   512   513 -1.139233642E+01  5.614490146E+00  1.085379681E+02  1.092785356E+02  1.348699152E-06  0.00000E+00  9.000E+00
      21     1     1     2   517   511  1.232554521E+00 -4.160548144E+00 -1.190897456E+01  1.267489750E+01  0.000000000E+00  0.00000E+00  9.000E+00
</event>
<event>
      5  10001  2.40292E+09  9.56729E+00 -1.00000E+00  1.97945E-01
      21    -1     0     0   515   512  0.000000000E+00  0.000000000E+00  3.199853798E+02  3.199853798E+02  0.000000000E+00  0.00000E+00  9.000E+00
      21    -1     0     0   517   516  0.000000000E+00  0.000000000E+00 -2.211174818E+01  2.211174818E+01  0.000000000E+00  0.00000E+00  9.000E+00
      21     1     1     2   515   516  8.839307199E+00  8.811023904E-01 -2.065509575E+01  2.248427615E+01  8.596304120E-07  0.00000E+00  9.000E+00
      21     1     1     2   517   511 -1.350504543E+01 -9.233582866E+00  1.738163101E+02  1.745845209E+02  2.697398305E-06  0.00000E+00  9.000E+00
      21     1     1     2   511   512  4.665738228E+00  8.352480476E+00  1.447124173E+02  1.450283309E+02  0.000000000E+00  0.00000E+00  9.000E+00
</event>
<event>
      5  10001  2.40292E+09  3.53645E+00 -1.00000E+00  2.76626E-01
      21    -1     0     0   514   512  0.000000000E+00  0.000000000E+00  2.533284211E+02  2.533284211E+02  0.000000000E+00  0.00000E+00  9.000E+00
       2    -1     0     0   513     0  0.000000000E+00  0.000000000E+00 -2.545622848E+00  2.545622848E+00  0.000000000E+00  0.00000E+00  9.000E+00
      21     1     1     2   513   512 -1.262451215E+01  3.917367766E-02  1.396834796E+02  1.402528228E+02  1.907348633E-06  0.00000E+00  9.000E+00
       2     1     1     2   511     0  1.034209590E+01 -2.740273658E+00  1.061597804E+01  1.507567368E+01  3.300000131E-01  0.00000E+00  9.000E+00
      21     1     1     2   514   511  2.282416250E+00  2.701099980E+00  1.004833406E+02  1.005455474E+02  0.000000000E+00  0.00000E+00  9.000E+00
</event>
<event>
      5  10001  2.40292E+09  3.93705E+00 -1.00000E+00  2.64994E-01
      21    -1     0     0   515   513  0.000000000E+00  0.000000000E+00  1.449255752E+02  1.449255752E+02  0.000000000E+00  0.00000E+00  9.000E+00
      21    -1     0     0   512   516  0.000000000E+00  0.000000000E+00 -1.485074799E+01  1.485074799E+01  0.000000000E+00  0.00000E+00  9.000E+00
      21     1     1     2   515   516 -1.460583229E+01  8.152631794E+00 -4.365095011E+00  1.728727268E+01  2.920019320E-07  0.00000E+00  9.000E+00
      21     1     1     2   512   511  1.069996650E+01 -8.647202856E+00  7.852893545E+00  1.584081240E+01  1.460009660E-07  0.00000E+00  9.000E+00
      21     1     1     2   511   513  3.905865790E+00  4.945710628E-01  1.265870287E+02  1.266482382E+02  0.000000000E+00  0.00000E+00  9.000E+00
</event>
<event>
      5  10001  2.40292E+09  2.79174E+00 -1.00000E+00  3.06534E-01
       2    -1     0     0   512     0  0.000000000E+00  0.000000000E+00  6.985733350E+01  6.985733350E+01  0.000000000E+00  0.00000E+00  9.000E+00
      21    -1     0     0   511   514  0.000000000E+00  0.000000000E+00 -4.857433052E+01  4.857433052E+01  0.000000000E+00  0.00000E+00  9.000E+00
      21     1     1     2   515   514 -5.409126146E+00  1.486883955E+00 -2.153482674E+01  2.225349932E+01  3.371747881E-07  0.00000E+00  9.000E+00
       2     1     1     2   511     0  1.056603146E+01 -8.118110977E-01  6.883475874E+01  6.964648569E+01  3.300000131E-01  0.00000E+00  9.000E+00
      21     1     1     2   512   515 -5.156905318E+00 -6.750728577E-01 -2.601692902E+01  2.653167901E+01  1.118282261E-06  0.00000E+00  9.000E+00
</event>
<event>
      5  10001  2.40292E+09  7.03328E+00 -1.00000E+00  2.15192E-01
       2    -1     0     0   514     0  0.000000000E+00  0.000000000E+00  2.235640298E+02  2.235640298E+02  0.000000000E+00  0.00000E+00  9.000E+00
      21    -1     0     0   511   514  0.000000000E+00  0.000000000E+00 -1.261456857E+01  1.261456857E+01  0.000000000E+00  0.00000E+00  9.000E+00
      21     1     1     2   513   512 -1.387888839E+01 -5.026078179E+00 -5.948581311E+00  1.591447845E+01  1.233110479E-06  0.00000E+00  9.000E+00
       2     1     1     2   512     0  1.989280117E+01  1.379305712E+00  2.078473765E+02  2.088019799E+02  3.300000131E-01  0.00000E+00  9.000E+00
      21     1     1     2   511   513 -6.013912775E+00  3.646772467E+00  9.050666052E+00  1.146213995E+01  1.685873940E-07  0.00000E+00  9.000E+00
</event>
<event>
      5  10001  2.40292E+09  7.46940E+00 -1.00000E+00  2.11577E-01
      21    -1     0     0   511   515  0.000000000E+00  0.000000000E+00  9.020843339E+01  9.020843339E+01  0.000000000E+00  0.00000E+00  9.000E+00
      -4    -1     0     0     0   513  0.000000000E+00  0.000000000E+00 -1.095463711E+01  1.095463711E+01  0.000000000E+00  0.00000E+00  9.000E+00
      -4     1     1     2     0   515 -7.932330964E+00  7.388298346E+00 -7.530292293E+00  1.328398016E+01  1.500000000E+00  0.00000E+00  9.000E+00
      21     1     1     2   512   513  3.687914460E+00 -8.327752029E+00  4.838789114E+01  4.923758905E+01  6.743495762E-07  0.00000E+00  9.000E+00
      21     1     1     2   511   512  4.244416503E+00  9.394536833E-01  3.839619743E+01  3.864150129E+01  4.768371582E-07  0.00000E+00  9.000E+00
</event>
<event>
      5  10001  2.40292E+09  4.06806E+00 -1.00000E+00  2.61649E-01
      21    -1     0     0   514   512  0.000000000E+00  0.000000000E+00  4.233526434E+00  4.233526434E+00  0.000000000E+00  0.00000E+00  9.000E+00
       2    -1     0     0   511     0  0.000000000E+00  0.000000000E+00 -1.661737208E+02  1.661737208E+02  0.000000000E+00  0.00000E+00  9.000E+00
      21     1     1     2   511   512 -1.052127155E+01  1.140732558E+00 -2.884141079E+00  1.096889674E+01  3.291774099E-07  0.00000E+00  9.000E+00
      21     1     1     2   514   513  5.200048239E+00 -2.156053192E-01 -5.634409286E+01  5.658395344E+01  6.743495762E-07  0.00000E+00  9.000E+00
       2     1     1     2   513     0  5.321223314E+00 -9.251272385E-01 -1.027119604E+02  1.028543971E+02  3.300000131E-01  0.00000E+00  9.000E+00
</event>
<event>
      5  10001  2.40292E+09  5.48797E+00 -1.00000E+00  2.31578E-01
       2    -1     0     0   515     0  0.000000000E+00  0.000000000E+00  5.118952434E+01  5.118952434E+01  0.000000000E+00  0.00000E+00  9.000E+00
      21    -1     0     0   511   516  0.000000000E+00  0.000000000E+00 -1.037795432E+02  1.037795432E+02  0.000000000E+00  0.00000E+00  9.000E+00
      21     1     1     2   515   516  8.931977972E-01 -1.415163541E+01 -2.055789015E+01  2.497385502E+01  8.596304120E-07  0.00000E+00  9.000E+00
      21     1     1     2   511   512  1.808234265E+00  9.374629372E+00 -8.057667332E+01  8.114033319E+01  9.536743164E-07  0.00000E+00  9.000E+00
       2     1     1     2   512     0 -2.701432062E+00  4.777006037E+00  4.854454462E+01  4.885487933E+01  3.300000131E-01  0.00000E+00  9.000E+00
</event>
<event>
      5  10001  2.40292E+09  1.42738E+01 -1.00000E+00  1.79390E-01
       2    -1     0     0   511     0  0.000000000E+00  0.000000000E+00  4.356193395E+00  4.356193395E+00  0.000000000E+00  0.00000E+00  9.000E+00
      21    -1     0     0   512   513  0.000000000E+00  0.000000000E+00 -2.850198505E+01  2.850198505E+01  0.000000000E+00  0.00000E+00  9.000E+00
      21     1     1     2   511   514  5.746937318E+00 -1.637649934E+00 -1.296577483E+00  6.114760748E+00  1.365713982E-07  0.00000E+00  9.000E+00
       2     1     1     2   512     0 -4.204958940E+00  4.682315605E+00 -3.732313197E+00  7.324262483E+00  3.300000131E-01  0.00000E+00  9.000E+00
      21     1     1     2   514   513 -1.541978377E+00 -3.044665671E+00 -1.911690098E+01  1.941915522E+01  3.371747881E-07  0.00000E+00  9.000E+00
</event>
<event>
      5  10001  2.40292E+09  6.26465E+00 -1.00000E+00  2.22523E-01
      21    -1     0     0   511   512  0.000000000E+00  0.000000000E+00  4.776280164E+02  4.776280164E+02  0.000000000E+00  0.00000E+00  9.000E+00
      21    -1     0     0   514   516  0.000000000E+00  0.000000000E+00 -2.840020450E+00  2.840020450E+00  0.000000000E+00  0.00000E+00  9.000E+00
      21     1     1     2   515   516 -6.184053241E+00 -1.750543385E+01  1.838428923E+02  1.847779527E+02  0.000000000E+00  0.00000E+00  9.000E+00
      21     1     1     2   514   512  1.244809414E+01  1.759248015E+01  4.745448118E+01  5.211888516E+01  6.743495762E-07  0.00000E+00  9.000E+00
      21     1     1     2   511   515 -6.264040895E+00 -8.704630250E-02  2.434906225E+02  2.435711991E+02  2.697398305E-06  0.00000E+00  9.000E+00
</event>
<event>
      5  10001  2.40292E+09  7.65620E+00 -1.00000E+00  2.10129E-01
       1    -1     0     0   514     0  0.000000000E+00  0.000000000E+00  1.733801671E+02  1.733801671E+02  0.000000000E+00  0.00000E+00  9.000E+00
      21    -1     0     0   512   513  0.000000000E+00  0.000000000E+00 -8.059114216E+00  8.059114216E+00  0.000000000E+00  0.00000E+00  9.000E+00
      21     1     1     2   514   513 -1.340644124E+01  8.443854207E+00  2.807294973E+01  3.223541294E+01  4.768371582E-07  0.00000E+00  9.000E+00
       1     1     1     2   511     0  2.034974237E+01 -1.166960351E+01  1.393127275E+02  1.412743310E+02  3.300000131E-01  0.00000E+00  9.000E+00
      21     1     1     2   512   511 -6.943301139E+00  3.225749298E+00 -2.064624340E+00  7.929537370E+00  8.940696716E-08  0.00000E+00  9.000E+00
</event>
<event>
      5  10001  2.40292E+09  3.88616E+00 -1.00000E+00  2.66349E-01
      21    -1     0     0   515   511  0.000000000E+00  0.000000000E+00  2.963378008E+01  2.963378008E+01  0.000000000E+00  0.00000E+00  9.000E+00
      21    -1     0     0   512   516  0.000000000E+00  0.000000000E+00 -7.772647519E+01  7.772647519E+01  0.000000000E+00  0.00000E+00  9.000E+00
      21     1     1     2   515   516  5.634992421E+00 -9.602637163E+00  2.763882328E+01  2.979711953E+01  5.840038640E-07  0.00000E+00  9.000E+00
      21     1     1     2   513   511 -5.487451456E+00  5.838646686E+00 -7.129206066E+01  7.174092160E+01  9.536743164E-07  0.00000E+00  9.000E+00
      21     1     1     2   512   513 -1.475409651E-01  3.763990477E+00 -4.439457720E+00  5.822214140E+00  8.429369702E-08  0.00000E+00  9.000E+00
</event>
<event>
      5  10001  2.40292E+09  1.94395E+01 -1.00000E+00  1.67352E-01
      21    -1     0     0   514   513  0.000000000E+00  0.000000000E+00  8.948985399E+00  8.948985399E+00  0.000000000E+00  0.00000E+00  9.000E+00
      21    -1     0     0   512   517  0.000000000E+00  0.000000000E+00 -2.541603578E+01  2.541603578E+01  0.000000000E+00  0.00000E+00  9.000E+00
      21     1     1     2   514   517  6.933129389E+00 -5.952979969E+00 -6.088291604E+00  1.098059872E+01  8.429369702E-08  0.00000E+00  9.000E+00
      21     1     1     2   511   513 -5.912555163E-01  3.786623829E+00  5.180045497E+00  6.443677091E+00  1.576990671E-07  0.00000E+00  9.000E+00
      21     1     1     2   512   511 -6.341873873E+00  2.166356140E+00 -1.555880428E+01  1.694074537E+01  3.371747881E-07  0.00000E+00  9.000E+00
</event>
<event>
      5  10001  2.40292E+09  1.42685E+01 -1.00000E+00  1.79405E-01
       1    -1     0     0   512     0  0.000000000E+00  0.000000000E+00  7.003461597E+01  7.003461597E+01  0.000000000E+00  0.00000E+00  9.000E+00
      21    -1     0     0   515   511  0.000000000E+00  0.000000000E+00 -1.549049885E+00  1.549049885E+00  0.000000000E+00  0.00000E+00  9.000E+00
      21     1     1     2   512   511 -9.126891817E-01  4.928668272E+00  1.919837466E+01  1.984193444E+01  2.384185791E-07  0.00000E+00  9.000E+00
      21     1     1     2   515   513  1.091205949E-01 -2.543061101E+00  1.615430763E-01  2.550522149E+00  1.186842644E-07  0.00000E+00  9.000E+00
       1     1     1     2   513     0  8.035685868E-01 -2.385607171E+00  4.912564834E+01  4.919120927E+01  3.300000131E-01  0.00000E+00  9.000E+00
</event>
<event>
      5  10001  2.40292E+09  4.99825E+00 -1.00000E+00  2.42485E-01
      21    -1     0     0   511   515  0.000000000E+00  0.000000000E+00  6.464903650E+00  6.464903650E+00  0.000000000E+00  0.00000E+00  9.000E+00
       2    -1     0     0   515     0  0.000000000E+00  0.000000000E+00 -5.426179520E+02  5.426179520E+02  0.000000000E+00  0.00000E+00  9.000E+00
      21     1     1     2   514   513 -3.781318173E+00  1.031843206E+01  1.053157747E+00  1.103981651E+01  9.249528976E-07  0.00000E+00  9.000E+00
       2     1     1     2   513     0  8.173263504E+00 -7.932438203E+00 -5.200188496E+02  5.201436712E+02  3.300000131E-01  0.00000E+00  9.000E+00
      21     1     1     2   511   514 -4.391945331E+00 -2.385993859E+00 -1.718735643E+01  1.789936791E+01  0.000000000E+00  0.00000E+00  9.000E+00
</event>
<event>
      5  10001  2.40292E+09  1.11831E+01 -1.00000E+00  1.90251E-01
      21    -1     0     0   514   515  0.000000000E+00  0.000000000E+00  5.284706324E+01  5.284706324E+01  0.000000000E+00  0.00000E+00  9.000E+00
      21    -1     0     0   512   514  0.000000000E+00  0.000000000E+00 -2.959996142E+00  2.959996142E+00  0.000000000E+00  0.00000E+00  9.000E+00
      21     1     1     2   513   515 -1.325307683E+00 -2.437689688E+00  3.059692331E+01  3.072247529E+01  4.768371582E-07  0.00000E+00  9.000E+00
       5     1     1     2   512     0 -1.549560149E+00  7.122584374E+00  1.006320404E+01  1.332067649E+01  4.800000191E+00  0.00000E+00  9.000E+00
      -5     1     1     2     0   513  2.874867833E+00 -4.684894686E+00  9.226939753E+00  1.176390761E+01  4.800000191E+00  0.00000E+00  9.000E+00
</event>
<event>
      5  10001  2.40292E+09  4.37142E+00 -1.00000E+00  2.54602E-01
      -1    -1     0     0     0   511  0.000000000E+00  0.000000000E+00  7.239390222E+02  7.239390222E+02  0.000000000E+00  0.00000E+00  9.000E+00
      21    -1     0     0   513   514  0.000000000E+00  0.000000000E+00 -2.608235637E+00  2.608235637E+00  0.000000000E+00  0.00000E+00  9.000E+00
      -1     1     1     2     0   514 -8.861354274E+00  5.753889286E+00  7.106692331E+02  7.107478446E+02  3.300000131E-01  0.00000E+00  9.000E+00
      21     1     1     2   513   512  4.637956106E+00 -5.637989540E+00  7.874173565E+00  1.073779178E+01  1.192092896E-07  0.00000E+00  9.000E+00
      21     1     1     2   512   511  4.223398167E+00 -1.158997453E-01  2.787379856E+00  5.061621409E+00  5.247240323E-07  0.00000E+00  9.000E+00
</event>
<event>
      5  10001  2.40292E+09  7.48233E+00 -1.00000E+00  2.11475E-01
      21    -1     0     0   515   513  0.000000000E+00  0.000000000E+00  1.192053042E+02  1.192053042E+02  0.000000000E+00  0.00000E+00  9.000E+00
      21    -1     0     0   516   511  0.000000000E+00  0.000000000E+00 -4.029618250E+00  4.029618250E+00  0.000000000E+00  0.00000E+00  9.000E+00
      21     1     1     2   515   511  9.755662893E+00  7.301755412E+00  1.013584383E+02  1.020883030E+02  0.000000000E+00  0.00000E+00  9.000E+00
      21     1     1     2   516   514 -1.086537618E+01 -2.805392206E+00  1.106392308E+01  1.575871247E+01  2.665600750E-07  0.00000E+00  9.000E+00
      21     1     1     2   514   513  1.109713285E+00 -4.496363207E+00  2.753324578E+00  5.387907005E+00  1.429269172E-07  0.00000E+00  9.000E+00
</event>
<event>
      5  10001  2.40292E+09  9.03790E+00 -1.00000E+00  2.00915E-01
      -2    -1     0     0     0   512  0.000000000E+00  0.000000000E+00  1.453378982E+02  1.453378982E+02  0.000000000E+00  0.00000E+00  9.000E+00
      21    -1     0     0   512   513  0.000000000E+00  0.000000000E+00 -2.701219455E+01  2.701219455E+01  0.000000000E+00  0.00000E+00  9.000E+00
      21     1     1     2   511   514 -4.420561823E+00 -2.826689346E+01  8.439930344E+01  8.911678324E+01  1.348699152E-06  0.00000E+00  9.000E+00
      21     1     1     2   514   513  1.950042530E+00  3.502446950E+01 -1.174863132E+01  3.699387067E+01  1.192092896E-06  0.00000E+00  9.000E+00
      -2     1     1     2     0   511  2.470519292E+00 -6.757576035E+00  4.567503157E+01  4.623943889E+01  3.300000131E-01  0.00000E+00  9.000E+00
</event>
<event>
      5  10001  2.40292E+09  4.47699E+00 -1.00000E+00  2.52352E-01
      -1    -1     0     0     0   511  0.000000000E+00  0.000000000E+00  3.474997059E+01  3.474997059E+01  0.000000000E+00  0.00000E+00  9.000E+00
      21    -1     0     0   515   513  0.000000000E+00  0.000000000E+00 -3.120283097E+02  3.120283097E+02  0.000000000E+00  0.00000E+00  9.000E+00
      -1     1     1     2     0   513 -3.359529792E+00 -9.564727978E+00  3.388384350E+01  3.536939654E+01  3.300000131E-01  0.00000E+00  9.000E+00
      21     1     1     2   515   512 -4.733272084E-01  5.483909436E+00 -2.236946388E+02  2.237623488E+02  2.697398305E-06  0.00000E+00  9.000E+00
      21     1     1     2   512   511  3.832857000E+00  4.080818542E+00 -8.746754371E+01  8.764653488E+01  1.348699152E-06  0.00000E+00  9.000E+00
</event>
<event>
      5  10001  2.40292E+09  5.29624E+00 -1.00000E+00  2.34145E-01
      21    -1     0     0   514   513  0.000000000E+00  0.000000000E+00  6.034587184E+02  6.034587184E+02  0.000000000E+00  0.00000E+00  9.000E+00
      21    -1     0     0   515   511  0.000000000E+00  0.000000000E+00 -2.425279335E+00  2.425279335E+00  0.000000000E+00  0.00000E+00  9.000E+00
      21     1     1     2   514   511 -1.751526299E+01  6.813494337E+00  4.124308820E+02  4.128588628E+02  5.394796609E-06  0.00000E+00  9.000E+00
      21     1     1     2   516   513  1.397168589E+01 -1.074963717E+01  1.864928422E+02  1.873241653E+02  0.000000000E+00  0.00000E+00  9.000E+00
      21     1     1     2   515   516  3.543577097E+00  3.936142830E+00  2.109714937E+00  5.700969754E+00  3.698370947E-07  0.00000E+00  9.000E+00
</event>
<event>
      5  10001  2.40292E+09  3.03194E+01 -1.00000E+00  1.52686E-01
      21    -1     0     0   515   513  0.000000000E+00  0.000000000E+00  1.189590532E+00  1.189590532E+00  0.000000000E+00  0.00000E+00  9.000E+00
       2    -1     0     0   513     0  0.000000000E+00  0.000000000E+00 -3.250232173E+02  3.250232173E+02  0.000000000E+00  0.00000E+00  9.000E+00
      21     1     1     2   515   512  8.183528903E+00  4.093606770E+00 -3.235964129E+01  3.362847226E+01  0.000000000E+00  0.00000E+00  9.000E+00
       2     1     1     2   511     0  6.203048227E+00 -8.031438296E+00 -9.363916647E+01  9.418802581E+01  3.300000131E-01  0.00000E+00  9.000E+00
      21     1     1     2   512   511 -1.438657713E+01  3.937831526E+00 -1.978348190E+02  1.983963097E+02  0.000000000E+00  0.00000E+00  9.000E+00
</event>
<event>
      5  10001  2.40292E+09  8.52665E+00 -1.00000E+00  2.04051E-01
      21    -1     0     0   514   511  0.000000000E+00  0.000000000E+00  3.827721510E-01  3.827721510E-01  0.000000000E+00  0.00000E+00  9.000E+00
      21    -1     0     0   512   516  0.000000000E+00  0.000000000E+00 -2.838983375E+02  2.838983375E+02  0.000000000E+00  0.00000E+00  9.000E+00
      21     1     1     2   514   516  7.167992019E+00  2.339719256E+00 -1.072474773E+02  1.075122122E+02  0.000000000E+00  0.00000E+00  9.000E+00
      -5     1     1     2     0   511 -1.462014432E+00 -1.837398818E+00 -5.129970130E+01  5.157725153E+01  4.800000191E+00  0.00000E+00  9.000E+00
       5     1     1     2   512     0 -5.705977586E+00 -5.023204384E-01 -1.249683868E+02  1.251916459E+02  4.800000191E+00  0.00000E+00  9.000E+00
</event>
<event>
      5  10001  2.40292E+09  5.52647E+00 -1.00000E+00  2.31081E-01
      21    -1     0     0   513   516  0.000000000E+00  0.000000000E+00  5.712974998E+01  5.712974998E+01  0.000000000E+00  0.00000E+00  9.000E+00
      21    -1     0     0   511   515  0.000000000E+00  0.000000000E+00 -9.584684874E+01  9.584684874E+01  0.000000000E+00  0.00000E+00  9.000E+00
      21     1     1     2   513   515 -9.101607148E+00 -4.094048124E+00  5.463498160E+01  5.553901059E+01  1.168007728E-06  0.00000E+00  9.000E+00
      21     1     1     2   512   516  1.315233517E+01  3.345898400E-01 -2.038797787E+01  2.426449078E+01  7.152557373E-07  0.00000E+00  9.000E+00
      21     1     1     2   511   512 -4.050728027E+00  3.759458284E+00 -7.296410249E+01  7.317309735E+01  9.536743164E-07  0.00000E+00  9.000E+00
</event>
<event>
      5  10001  2.40292E+09  1.63562E+01 -1.00000E+00  1.73868E-01
      21    -1     0     0   514   512  0.000000000E+00  0.000000000E+00  8.029263635E+01  8.029263635E+01  0.000000000E+00  0.00000E+00  9.000E+00
      21    -1     0     0   511   513  0.000000000E+00  0.000000000E+00 -1.625184233E+02  1.625184233E+02  0.000000000E+00  0.00000E+00  9.000E+00
      21     1     1     2   511   517  8.250822419E+00  1.312157880E+01 -1.451701739E+02  1.459953126E+02  0.000000000E+00  0.00000E+00  9.000E+00
      21     1     1     2   517   512  8.101016634E+00 -1.274348291E+01  7.499469718E+01  7.649985249E+01  1.348699152E-06  0.00000E+00  9.000E+00
      21     1     1     2   514   513 -1.635183905E+01 -3.780958894E-01 -1.205031024E+01  2.031589461E+01  3.371747881E-07  0.00000E+00  9.000E+00
</event>
<event>
      5  10001  2.40292E+09  8.37897E+00 -1.00000E+00  2.05012E-01
      21    -1     0     0   516   511  0.000000000E+00  0.000000000E+00  1.559396482E+01  1.559396482E+01  0.000000000E+00  0.00000E+00  9.000E+00
       2    -1     0     0   511     0  0.000000000E+00  0.000000000E+00 -6.709820636E+00  6.709820636E+00  0.000000000E+00  0.00000E+00  9.000E+00
      21     1     1     2   512   515 -1.452456858E-01 -4.285579360E+00  7.523044672E+00  8.659300659E+00  2.230201594E-07  0.00000E+00  9.000E+00
       2     1     1     2   515     0  4.291854080E+00  7.103942724E+00  2.122641293E+00  8.573244411E+00  3.300000131E-01  0.00000E+00  9.000E+00
      21     1     1     2   516   512 -4.146608394E+00 -2.818363364E+00 -7.615417769E-01  5.071240391E+00  2.154235884E-07  0.00000E+00  9.000E+00
</event>
<event>
      5  10001  2.40292E+09  1.56309E+01 -1.00000E+00  1.75668E-01
      21    -1     0     0   513   514  0.000000000E+00  0.000000000E+00  2.557251466E+00  2.557251466E+00  0.000000000E+00  0.00000E+00  9.000E+00
      21    -1     0     0   511   512  0.000000000E+00  0.000000000E+00 -4.767626584E+01  4.767626584E+01  0.000000000E+00  0.00000E+00  9.000E+00
      21     1     1     2   513   512 -5.636443878E-01  4.692361205E+00 -1.081079979E+01  1.179870081E+01  1.192092896E-07  0.00000E+00  9.000E+00
      21     1     1     2   515   514  7.343420311E+00 -3.097911055E+00 -8.287251325E+00  1.149788717E+01  1.192092896E-07  0.00000E+00  9.000E+00
      21     1     1     2   511   515 -6.779775923E+00 -1.594450150E+00 -2.602096325E+01  2.693692933E+01  4.768371582E-07  0.00000E+00  9.000E+00
</event>
<event>
      5  10001  2.40292E+09  3.28503E+00 -1.00000E+00  2.85269E-01
      21    -1     0     0   516   512  0.000000000E+00  0.000000000E+00  4.880654505E+01  4.880654505E+01  0.000000000E+00  0.00000E+00  9.000E+00
      21    -1     0     0   513   517  0.000000000E+00  0.000000000E+00 -4.589678612E+00  4.589678612E+00  0.000000000E+00  0.00000E+00  9.000E+00
      21     1     1     2   516   517  1.165763290E+00  9.924533547E+00  3.431278100E+01  3.573824716E+01  6.743495762E-07  0.00000E+00  9.000E+00
      21     1     1     2   511   512  2.040913357E+00 -1.063773458E+01  9.385462616E+00  1.433225847E+01  0.000000000E+00  0.00000E+00  9.000E+00
      21     1     1     2   513   511 -3.206676647E+00  7.132010335E-01  5.186228303E-01  3.325718039E+00  1.290478414E-08  0.00000E+00  9.000E+00
</event>
<event>
      5  10001  2.40292E+09  5.23814E+00 -1.00000E+00  2.34953E-01
      21    -1     0     0   514   511  0.000000000E+00  0.000000000E+00  5.547952988E+01  5.547952988E+01  0.000000000E+00  0.00000E+00  9.000E+00
      21    -1     0     0   513   515  0.000000000E+00  0.000000000E+00 -2.001574421E+00  2.001574421E+00  0.000000000E+00  0.00000E+00  9.000E+00
      21     1     1     2   514   515  7.416209589E+00  4.974110620E+00  2.900246601E+01  3.034608666E+01  3.371747881E-07  0.00000E+00  9.000E+00
      21     1     1     2   512   511 -7.001435519E+00 -3.695887274E+00  2.454414432E+01  2.578943006E+01  3.371747881E-07  0.00000E+00  9.000E+00
      21     1     1     2   513   512 -4.147740698E-01 -1.278223345E+00 -6.865487242E-02  1.345587582E+00  3.714798144E-08  0.00000E+00  9.000E+00
</event>
<event>
      5  10001  2.40292E+09  2.71710E+00 -1.00000E+00  3.10409E-01
       2    -1     0     0   511     0  0.000000000E+00  0.000000000E+00  5.556194359E+02  5.556194359E+02  0.000000000E+00  0.00000E+00  9.000E+00
      21    -1     0     0   516   512  0.000000000E+00  0.000000000E+00 -3.883816691E-01  3.883816691E-01  0.000000000E+00  0.00000E+00  9.000E+00
      21     1     1     2   513   512  1.285890693E+01  5.718713925E+00  2.165808630E+02  2.170376128E+02  4.672030912E-06  0.00000E+00  9.000E+00
       2     1     1     2   516     0 -1.137392732E+01 -3.443812495E+00  2.569858459E+02  2.572606848E+02  3.300000131E-01  0.00000E+00  9.000E+00
      21     1     1     2   511   513 -1.484979611E+00 -2.274901430E+00  8.166434536E+01  8.170951992E+01  1.651812370E-06  0.00000E+00  9.000E+00
</event>
<event>
      5  10001  2.40292E+09  9.31627E+00 -1.00000E+00  1.99321E-01
      21    -1     0     0   516   512  0.000000000E+00  0.000000000E+00  1.368763018E+01  1.368763018E+01  0.000000000E+00  0.00000E+00  9.000E+00
      21    -1     0     0   515   514  0.000000000E+00  0.000000000E+00 -1.519669234E+02  1.519669234E+02  0.000000000E+00  0.00000E+00  9.000E+00
      21     1     1     2   515   513  8.998881098E+00  9.467793048E+00 -8.971645222E+01  9.066234480E+01  1.348699152E-06  0.00000E+00  9.000E+00
      21     1     1     2   513   512 -1.010141462E+01 -1.871858856E+01 -5.797214852E+01  6.175106589E+01  9.536743164E-07  0.00000E+00  9.000E+00
      21     1     1     2   516   514  1.102533520E+00  9.250795508E+00  9.409307500E+00  1.324114290E+01  3.153981341E-07  0.00000E+00  9.000E+00
</event>
<event>
      5  10001  2.40292E+09  4.17191E+00 -1.00000E+00  2.59133E-01
      -3    -1     0     0     0   511  0.000000000E+00  0.000000000E+00  2.791518348E+00  2.791518348E+00  0.000000000E+00  0.00000E+00  9.000E+00
      -4    -1     0     0     0   513  0.000000000E+00  0.000000000E+00 -1.915105153E+02  1.915105153E+02  0.000000000E+00  0.00000E+00  9.000E+00
      21     1     1     2   512   511 -2.832093591E+00  9.792118085E+00 -8.612873882E+01  8.672984481E+01  9.536743164E-07  0.00000E+00  9.000E+00
      -3     1     1     2     0   513  8.895897158E+00 -1.620255556E+01 -3.688724380E+01  4.126231389E+01  5.000000000E-01  0.00000E+00  9.000E+00
      -4     1     1     2     0   512 -6.063803567E+00  6.410437471E+00 -6.570301433E+01  6.630987494E+01  1.500000000E+00  0.00000E+00  9.000E+00
</event>
<event>
      5  10001  2.40292E+09  6.25683E+00 -1.00000E+00  2.22605E-01
      21    -1     0     0   514   511  0.000000000E+00  0.000000000E+00  8.964624855E+01  8.964624855E+01  0.000000000E+00  0.00000E+00  9.000E+00
      21    -1     0     0   515   514  0.000000000E+00  0.000000000E+00 -9.101744269E+01  9.101744269E+01  0.000000000E+00  0.00000E+00  9.000E+00
      21     1     1     2   516   512 -1.389990400E+01  1.767469379E-01 -6.874586289E+01  7.013723858E+01  1.348699152E-06  0.00000E+00  9.000E+00
      21     1     1     2   515   516  7.735268505E+00 -1.246899517E+00 -2.074998108E+01  2.217996510E+01  3.371747881E-07  0.00000E+00  9.000E+00
      21     1     1     2   512   511  6.164635498E+00  1.070152579E+00  8.812464983E+01  8.834648757E+01  1.348699152E-06  0.00000E+00  9.000E+00
</event>
<event>
      5  10001  2.40292E+09  7.00362E+00 -1.00000E+00  2.15451E-01
      21    -1     0     0   513   511  0.000000000E+00  0.000000000E+00  6.229397690E+01  6.229397690E+01  0.000000000E+00  0.00000E+00  9.000E+00
       2    -1     0     0   512     0  0.000000000E+00  0.000000000E+00 -2.326899276E+00  2.326899276E+00  0.000000000E+00  0.00000E+00  9.000E+00
      21     1     1     2   512   511 -4.319705283E+00 -8.486276362E+00  1.208797575E+01  1.538817396E+01  2.920019320E-07  0.00000E+00  9.000E+00
      21     1     1     2   513   514 -1.029373278E+00  4.667604004E+00  2.349434962E+01  2.397562514E+01  3.371747881E-07  0.00000E+00  9.000E+00
       2     1     1     2   514     0  5.349078560E+00  3.818672358E+00  2.438475226E+01  2.525707708E+01  3.300000131E-01  0.00000E+00  9.000E+00
</event>
<event>
      5  10001  2.40292E+09  1.84626E+01 -1.00000E+00  1.69244E-01
      21    -1     0     0   515   512  0.000000000E+00  0.000000000E+00  7.376067316E+00  7.376067316E+00  0.000000000E+00  0.00000E+00  9.000E+00
      21    -1     0     0   511   516  0.000000000E+00  0.000000000E+00 -2.120284185E+01  2.120284185E+01  0.000000000E+00  0.00000E+00  9.000E+00
      21     1     1     2   515   516 -2.281015326E+00  6.410454975E+00  4.708472154E-01  6.820459003E+00  1.736960296E-07  0.00000E+00  9.000E+00
      21     1     1     2   511   513 -3.286547411E+00  2.129076486E+00 -9.918420690E+00  1.066346236E+01  2.064765462E-07  0.00000E+00  9.000E+00
      21     1     1     2   513   512  5.567562736E+00 -8.539531461E+00 -4.379201060E+00  1.109498780E+01  0.000000000E+00  0.00000E+00  9.000E+00
</event>
<event>
      5  10001  2.40292E+09  1.45676E+01 -1.00000E+00  1.78541E-01
      21    -1     0     0   515   511  0.000000000E+00  0.000000000E+00  1.897969764E+02  1.897969764E+02  0.000000000E+00  0.00000E+00  9.000E+00
      21    -1     0     0   517   512  0.000000000E+00  0.000000000E+00 -2.786149820E+02  2.786149820E+02  0.000000000E+00  0.00000E+00  9.000E+00
      21     1     1     2   514   512 -2.442953864E+00  7.135011994E+01 -8.745073556E+01  1.128912698E+02  2.336015456E-06  0.00000E+00  9.000E+00
      21     1     1     2   517   511  1.692847222E+01 -6.980611459E+01 -1.708905089E+02  1.853726863E+02  2.697398305E-06  0.00000E+00  9.000E+00
      21     1     1     2   515   514 -1.448551836E+01 -1.544005356E+00  1.695232389E+02  1.701480024E+02  2.697398305E-06  0.00000E+00  9.000E+00
</event>
<event>
      5  10001  2.40292E+09  3.10252E+00 -1.00000E+00  2.92374E-01
       1    -1     0     0   512     0  0.000000000E+00  0.000000000E+00  8.086008382E+02  8.086008382E+02  0.000000000E+00  0.00000E+00  9.000E+00
      21    -1     0     0   515   511  0.000000000E+00  0.000000000E+00 -4.891537311E-01  4.891537311E-01  0.000000000E+00  0.00000E+00  9.000E+00
      21     1     1     2   515   513  1.185373110E+01  1.474576931E+00  1.025142152E+02  1.032077984E+02  4.264961200E-06  0.00000E+00  9.000E+00
       1     1     1     2   513     0 -9.051419214E+00 -2.805450222E+00  6.837319251E+02  6.837976696E+02  3.300000131E-01  0.00000E+00  9.000E+00
      21     1     1     2   512   511 -2.802311882E+00  1.330873292E+00  2.186554412E+01  2.208452389E+01  5.331201500E-07  0.00000E+00  9.000E+00
</event>
<event>
      5  10001  2.40292E+09  2.30439E+00 -1.00000E+00  3.36421E-01
      21    -1     0     0   514   515  0.000000000E+00  0.000000000E+00  1.674365810E+01  1.674365810E+01  0.000000000E+00  0.00000E+00  9.000E+00
      21    -1     0     0   516   514  0.000000000E+00  0.000000000E+00 -1.896417346E+01  1.896417346E+01  0.000000000E+00  0.00000E+00  9.000E+00
      21     1     1     2   511   515  9.796913242E+00  3.368371543E+00  1.302028188E+01  1.663890550E+01  2.384185791E-07  0.00000E+00  9.000E+00
      21     1     1     2   516   513 -7.778752133E+00 -1.229921466E+00 -1.356267761E+01  1.568336430E+01  2.384185791E-07  0.00000E+00  9.000E+00
      21     1     1     2   513   511 -2.018161109E+00 -2.138450078E+00 -1.678119633E+00  3.385561770E+00  5.960464478E-08  0.00000E+00  9.000E+00
</event>
<event>
      5  10001  2.40292E+09  3.53029E+00 -1.00000E+00  2.76824E-01
       2    -1     0     0   512     0  0.000000000E+00  0.000000000E+00  1.801013619E+02  1.801013619E+02  0.000000000E+00  0.00000E+00  9.000E+00
      21    -1     0     0   515   511  0.000000000E+00  0.000000000E+00 -1.128493136E+00  1.128493136E+00  0.000000000E+00  0.00000E+00  9.000E+00
      21     1     1     2   512   511 -9.694009935E+00 -2.715049315E+00  3.596911424E+01  3.735133867E+01  0.000000000E+00  0.00000E+00  9.000E+00
      21     1     1     2   515   516  9.238524755E+00  6.214625390E+00  7.949888181E+01  8.027480375E+01  9.536743164E-07  0.00000E+00  9.000E+00
       2     1     1     2   516     0  4.554851809E-01 -3.499576075E+00  6.350487266E+01  6.360371256E+01  3.300000131E-01  0.00000E+00  9.000E+00
</event>
<event>
      5  10001  2.40292E+09  4.58139E+00 -1.00000E+00  2.50217E-01
      21    -1     0     0   513   511  0.000000000E+00  0.000000000E+00  1.830224944E+01  1.830224944E+01  0.000000000E+00  0.00000E+00  9.000E+00
      21    -1     0     0   514   513  0.000000000E+00  0.000000000E+00 -1.438280076E+01  1.438280076E+01  0.000000000E+00  0.00000E+00  9.000E+00
      21     1     1     2   514   517  4.339156174E+00  9.438969924E+00 -1.023825728E+01  1.458575818E+01  0.000000000E+00  0.00000E+00  9.000E+00
      21     1     1     2   512   511 -1.839550800E+00 -6.251081889E+00  5.447936554E+00  8.493526042E+00  8.429369702E-08  0.00000E+00  9.000E+00
      21     1     1     2   517   512 -2.499605375E+00 -3.187888036E+00  8.709769397E+00  9.605765982E+00  1.192092896E-07  0.00000E+00  9.000E+00
</event>
<event>
      5  10001  2.40292E+09  5.51479E+00 -1.00000E+00  2.31231E-01
       1    -1     0     0   515     0  0.000000000E+00  0.000000000E+00  1.422061724E+02  1.422061724E+02  0.000000000E+00  0.00000E+00  9.000E+00
       1    -1     0     0   511     0  0.000000000E+00  0.000000000E+00 -2.203704009E+02  2.203704009E+02  0.000000000E+00  0.00000E+00  9.000E+00
       1     1     1     2   515     0 -1.436873990E+01  1.323818240E+00 -2.195607198E+02  2.200346149E+02  3.300000131E-01  0.00000E+00  9.000E+00
       1     1     1     2   513     0  7.455564954E+00  7.646189541E-01  1.127462268E+02  1.129955338E+02  3.300000131E-01  0.00000E+00  9.000E+00
      21     1     1     2   511   513  6.913174942E+00 -2.088437195E+00  2.865026442E+01  2.954642465E+01  1.118282261E-06  0.00000E+00  9.000E+00
</event>
<event>
      5  10001  2.40292E+09  9.03039E+00 -1.00000E+00  2.00959E-01
      21    -1     0     0   512   513  0.000000000E+00  0.000000000E+00  1.451355331E+02  1.451355331E+02  0.000000000E+00  0.00000E+00  9.000E+00
      21    -1     0     0   511   512  0.000000000E+00  0.000000000E+00 -1.647368952E+00  1.647368952E+00  0.000000000E+00  0.00000E+00  9.000E+00
      21     1     1     2   511   514 -1.021708232E+00 -1.518381096E+01  7.137169083E+01  7.297609372E+01  1.651812370E-06  0.00000E+00  9.000E+00
      21     1     1     2   514   515  1.391511927E+00  1.938042017E+00  8.733987163E+00  9.053996028E+00  1.192092896E-07  0.00000E+00  9.000E+00
      21     1     1     2   515   513 -3.698036943E-01  1.324576895E+01  6.338248613E+01  6.475281228E+01  1.348699152E-06  0.00000E+00  9.000E+00
</event>
<event>
      5  10001  2.40292E+09  1.20513E+01 -1.00000E+00  1.86780E-01
      21    -1     0     0   516   511  0.000000000E+00  0.000000000E+00  9.193806073E+00  9.193806073E+00  0.000000000E+00  0.00000E+00  9.000E+00
      21    -1     0     0   513   516  0.000000000E+00  0.000000000E+00 -1.540853552E+02  1.540853552E+02  0.000000000E+00  0.00000E+00  9.000E+00
      21     1     1     2   517   511 -3.291310560E+00 -1.083903124E+01  3.459604123E+00  1.184424688E+01  3.816559456E-07  0.00000E+00  9.000E+00
      21     1     1     2   512   517  4.191074496E+00  6.740583323E+00 -1.467175304E+02  1.469320737E+02  2.697398305E-06  0.00000E+00  9.000E+00
      21     1     1     2   513   512 -8.997639359E-01  4.098447920E+00 -1.633622891E+00  4.502840686E+00  6.989264130E-08  0.00000E+00  9.000E+00
</event>
<event>
      5  10001  2.40292E+09  5.42434E+00 -1.00000E+00  2.32414E-01
      21    -1     0     0   516   512  0.000000000E+00  0.000000000E+00  9.084796494E+00  9.084796494E+00  0.000000000E+00  0.00000E+00  9.000E+00
      21    -1     0     0   511   515  0.000000000E+00  0.000000000E+00 -4.624088689E+01  4.624088689E+01  0.000000000E+00  0.00000E+00  9.000E+00
      21     1     1     2   514   515  8.118128040E+00 -5.346051432E-01 -3.554210621E+01  3.646136475E+01  4.768371582E-07  0.00000E+00  9.000E+00
      21     1     1     2   511   512 -1.281457234E+01 -2.179593795E+00  5.836484453E-01  1.301170776E+01  1.373819181E-07  0.00000E+00  9.000E+00
      21     1     1     2   516   514  4.696444299E+00  2.714198938E+00 -2.197632639E+00  5.852610882E+00  1.074538015E-07  0.00000E+00  9.000E+00
</event>
<event>
      5  10001  2.40292E+09  8.28289E+00 -1.00000E+00  2.05652E-01
      21    -1     0     0   513   511  0.000000000E+00  0.000000000E+00  1.132409632E+00  1.132409632E+00  0.000000000E+00  0.00000E+00  9.000E+00
      21    -1     0     0   517   514  0.000000000E+00  0.000000000E+00 -1.495198920E+02  1.495198920E+02  0.000000000E+00  0.00000E+00  9.000E+00
      21     1     1     2   513   514 -8.818653680E+00 -6.879635981E+00 -5.826512852E+01  5.932894105E+01  9.536743164E-07  0.00000E+00  9.000E+00
      21     1     1     2   517   512  3.595060808E+00  7.300690846E+00 -3.415050365E+01  3.510671515E+01  6.743495762E-07  0.00000E+00  9.000E+00
      21     1     1     2   512   511  5.223592872E+00 -4.210548650E-01 -5.597185023E+01  5.621664547E+01  6.743495762E-07  0.00000E+00  9.000E+00
</event>
<event>
      5  10001  2.40292E+09  6.32989E+00 -1.00000E+00  2.21845E-01
      21    -1     0     0   512   513  0.000000000E+00  0.000000000E+00  1.498842115E+01  1.498842115E+01  0.000000000E+00  0.00000E+00  9.000E+00
       2    -1     0     0   515     0  0.000000000E+00  0.000000000E+00 -1.497816062E+02  1.497816062E+02  0.000000000E+00  0.00000E+00  9.000E+00
      21     1     1     2   515   511 -1.059498814E+01  9.940021605E+00  8.074465342E+00  1.662091435E+01  1.079486029E-06  0.00000E+00  9.000E+00
       2     1     1     2   512     0  4.371384558E+00 -8.785338460E+00 -1.412832771E+02  1.416240250E+02  3.300000131E-01  0.00000E+00  9.000E+00
      21     1     1     2   511   513  6.223603586E+00 -1.154683144E+00 -1.584373336E+00  6.525088017E+00  6.322027277E-08  0.00000E+00  9.000E+00
</event>
<event>
      5  10001  2.40292E+09  1.72546E+01 -1.00000E+00  1.71795E-01
      21    -1     0     0   514   515  0.000000000E+00  0.000000000E+00  7.101364511E+01  7.101364511E+01  0.000000000E+00  0.00000E+00  9.000E+00
      21    -1     0     0   513   514  0.000000000E+00  0.000000000E+00 -1.490192689E+01  1.490192689E+01  0.000000000E+00  0.00000E+00  9.000E+00
      21     1     1     2   516   515  1.907742300E+01  2.352637645E+00  5.306556145E+01  5.643967385E+01  6.743495762E-07  0.00000E+00  9.000E+00
      21     1     1     2   513   512 -7.313651498E+00  4.680864997E+00 -8.050402067E+00  1.184098682E+01  0.000000000E+00  0.00000E+00  9.000E+00
      21     1     1     2   512   516 -1.176377151E+01 -7.033502642E+00  1.109655884E+01  1.763491133E+01  1.192092896E-07  0.00000E+00  9.000E+00
</event>
<event>
      5  10001  2.40292E+09  1.02400E+01 -1.00000E+00  1.94516E-01
      21    -1     0     0   511   513  0.000000000E+00  0.000000000E+00  1.696156869E+02  1.696156869E+02  0.000000000E+00  0.00000E+00  9.000E+00
      21    -1     0     0   517   511  0.000000000E+00  0.000000000E+00 -6.341509104E+00  6.341509104E+00  0.000000000E+00  0.00000E+00  9.000E+00
      21     1     1     2   517   516 -8.042503684E+00 -9.777172501E+00  1.067253677E+00  1.270488087E+01  3.545098678E-07  0.00000E+00  9.000E+00
      21     1     1     2   514   513  1.054806394E+01  2.747586438E+00  1.037291916E+02  1.043003167E+02  1.348699152E-06  0.00000E+00  9.000E+00
      21     1     1     2   516   514 -2.505560258E+00  7.029586063E+00  5.847773260E+01  5.895199846E+01  6.743495762E-07  0.00000E+00  9.000E+00
</event>
<event>
      5  10001  2.40292E+09  7.13856E+00 -1.00000E+00  2.14287E-01
      21    -1     0     0   512   514  0.000000000E+00  0.000000000E+00  4.242543011E+01  4.242543011E+01  0.000000000E+00  0.00000E+00  9.000E+00
      21    -1     0     0   515   512  0.000000000E+00  0.000000000E+00 -4.490916378E+00  4.490916378E+00  0.000000000E+00  0.00000E+00  9.000E+00
      21     1     1     2   515   517  9.445656916E-01 -1.255637108E+01  1.350579224E+01  1.846513155E+01  2.384185791E-07  0.00000E+00  9.000E+00
      21     1     1     2   517   511  4.007839422E-01  5.921465263E+00  1.857948110E+01  1.950439685E+01  3.371747881E-07  0.00000E+00  9.000E+00
      21     1     1     2   511   514 -1.345349634E+00  6.634905813E+00  5.849240389E+00  8.946818089E+00  1.192092896E-07  0.00000E+00  9.000E+00
</event>
<event>
      5  10001  2.40292E+09  3.79190E+00 -1.00000E+00  2.68947E-01
      21    -1     0     0   513   516  0.000000000E+00  0.000000000E+00  1.259724383E+02  1.259724383E+02  0.000000000E+00  0.00000E+00  9.000E+00
      21    -1     0     0   512   514  0.000000000E+00  0.000000000E+00 -2.740177082E+01  2.740177082E+01  0.000000000E+00  0.00000E+00  9.000E+00
      21     1     1     2   513   514 -1.108410064E+01  8.901761586E+00  6.243437820E+01  6.403241544E+01  1.507891493E-06  0.00000E+00  9.000E+00
      21     1     1     2   515   516  9.976555505E+00 -1.252831426E+01  6.157416070E+01  6.362285426E+01  0.000000000E+00  0.00000E+00  9.000E+00
      21     1     1     2   512   515  1.107545131E+00  3.626552671E+00 -2.543787144E+01  2.571893940E+01  5.840038640E-07  0.00000E+00  9.000E+00
</event>
<event>
      5  10001  2.40292E+09  3.45561E+00 -1.00000E+00  2.79276E-01
      21    -1     0     0   511   514  0.000000000E+00  0.000000000E+00  7.788908740E+00  7.788908740E+00  0.000000000E+00  0.00000E+00  9.000E+00
      21    -1     0     0   512   513  0.000000000E+00  0.000000000E+00 -2.049948719E+02  2.049948719E+02  0.000000000E+00  0.00000E+00  9.000E+00
      21     1     1     2   512   517 -1.258428615E+01  5.228347157E-01 -1.331876847E+01  1.833104492E+01  0.000000000E+00  0.00000E+00  9.000E+00
      21     1     1     2   517   514  1.008058522E+01  1.858916716E+00  2.787839970E-01  1.025434006E+01  3.300405377E-07  0.00000E+00  9.000E+00
      21     1     1     2   511   513  2.503700937E+00 -2.381751431E+00 -1.841659786E+02  1.841983956E+02  2.697398305E-06  0.00000E+00  9.000E+00
</event>
<event>
      5  10001  2.40292E+09  1.00992E+01 -1.00000E+00  1.95205E-01
      21    -1     0     0   515   513  0.000000000E+00  0.000000000E+00  7.536306715E-01  7.536306715E-01  0.000000000E+00  0.00000E+00  9.000E+00
      21    -1     0     0   512   516  0.000000000E+00  0.000000000E+00 -2.585313907E+02  2.585313907E+02  0.000000000E+00  0.00000E+00  9.000E+00
      21     1     1     2   515   516 -5.425486179E+00 -7.251972759E+00 -4.569030721E+01  4.657929993E+01  6.743495762E-07  0.00000E+00  9.000E+00
      21     1     1     2   512   514  9.839712180E+00  3.779987025E+00 -1.302803560E+02  1.307060802E+02  2.697398305E-06  0.00000E+00  9.000E+00
      21     1     1     2   514   513 -4.414226002E+00  3.471985734E+00 -8.180709675E+01  8.199964119E+01  1.348699152E-06  0.00000E+00  9.000E+00
</event>
<event>
      5  10001  2.40292E+09  8.64245E+00 -1.00000E+00  2.03316E-01
      21    -1     0     0   515   513  0.000000000E+00  0.000000000E+00  1.640737535E+02  1.640737535E+02  0.000000000E+00  0.00000E+00  9.000E+00
       2    -1     0     0   513     0  0.000000000E+00  0.000000000E+00 -4.323034722E+02  4.323034722E+02  0.000000000E+00  0.00000E+00  9.000E+00
      21     1     1     2   512   511 -1.562253198E+01 -8.855330975E+00  3.834745390E+01  4.234392061E+01  1.507891493E-06  0.00000E+00  9.000E+00
       2     1     1     2   511     0  1.875130284E+01  7.991094723E-01 -4.299492827E+02  4.303588555E+02  3.300000131E-01  0.00000E+00  9.000E+00
      21     1     1     2   515   512 -3.128770862E+00  8.056221503E+00  1.233721101E+02  1.236744496E+02  1.907348633E-06  0.00000E+00  9.000E+00
</event>
<event>
      5  10001  2.40292E+09  2.03719E+01 -1.00000E+00  1.65670E-01
       2    -1     0     0   512     0  0.000000000E+00  0.000000000E+00  3.964920902E+02  3.964920902E+02  0.000000000E+00  0.00000E+00  9.000E+00
      -1    -1     0     0     0   512  0.000000000E+00  0.000000000E+00 -6.164482595E+01  6.164482595E+01  0.000000000E+00  0.00000E+00  9.000E+00
      21     1     1     2   511   514  1.042277088E+01 -2.182939088E+01  9.052238008E+01  9.369876069E+01  0.000000000E+00  0.00000E+00  9.000E+00
       2     1     1     2   514     0 -1.804976906E+01  2.939136359E+00  3.023691411E+02  3.029218366E+02  3.300000131E-01  0.00000E+00  9.000E+00
      -1     1     1     2     0   511  7.626998173E+00  1.889025452E+01 -5.804425697E+01  6.151631885E+01  3.300000131E-01  0.00000E+00  9.000E+00
</event>
<event>
      5  10001  2.40292E+09  7.87992E+00 -1.00000E+00  2.08466E-01
      21    -1     0     0   513   515  0.000000000E+00  0.000000000E+00  1.105915265E+01  1.105915265E+01  0.000000000E+00  0.00000E+00  9.000E+00
       2    -1     0     0   514     0  0.000000000E+00  0.000000000E+00 -8.740304362E+01  8.740304362E+01  0.000000000E+00  0.00000E+00  9.000E+00
      21     1     1     2   514   515 -3.165787088E-01  1.443460031E+01  4.542765932E+00  1.513587231E+01  1.460009660E-07  0.00000E+00  9.000E+00
       2     1     1     2   512     0  3.957992033E+00 -7.897489732E+00 -6.673652161E+01  6.731944936E+01  3.300000131E-01  0.00000E+00  9.000E+00
      21     1     1     2   513   512 -3.641413324E+00 -6.537110577E+00 -1.415013529E+01  1.600687460E+01  2.920019320E-07  0.00000E+00  9.000E+00
</event>
<event>
      5  10001  2.40292E+09  6.02137E+00 -1.00000E+00  2.25154E-01
      21    -1     0     0   511   512  0.000000000E+00  0.000000000E+00  9.415845942E+01  9.415845942E+01  0.000000000E+00  0.00000E+00  9.000E+00
      21    -1     0     0   515   516  0.000000000E+00  0.000000000E+00 -4.518906657E+01  4.518906657E+01  0.000000000E+00  0.00000E+00  9.000E+00
      21     1     1     2   511   516  3.370718218E+00  1.324516007E+01 -1.909681070E+01  2.348370043E+01  2.384185791E-07  0.00000E+00  9.000E+00
      21     1     1     2   514   512 -2.371493869E+00 -7.307277750E+00  9.142205407E+01  9.174427645E+01  1.348699152E-06  0.00000E+00  9.000E+00
      21     1     1     2   515   514 -9.992243487E-01 -5.937882323E+00 -2.335585052E+01  2.411954911E+01  3.371747881E-07  0.00000E+00  9.000E+00
</event>
<event>
      5  10001  2.40292E+09  6.59751E+00 -1.00000E+00  2.19180E-01
      21    -1     0     0   513   514  0.000000000E+00  0.000000000E+00  1.448693202E+02  1.448693202E+02  0.000000000E+00  0.00000E+00  9.000E+00
       3    -1     0     0   515     0  0.000000000E+00  0.000000000E+00 -6.100568740E+01  6.100568740E+01  0.000000000E+00  0.00000E+00  9.000E+00
      21     1     1     2   515   517  1.109994140E+01  7.451574445E+00  2.040150543E+01  2.439172164E+01  3.371747881E-07  0.00000E+00  9.000E+00
      21     1     1     2   517   514 -1.542963920E+01 -2.473596426E+00  1.217864383E+02  1.227848892E+02  1.348699152E-06  0.00000E+00  9.000E+00
       3     1     1     2   513     0  4.329697801E+00 -4.977978019E+00 -5.832431091E+01  5.869839684E+01  5.000000000E-01  0.00000E+00  9.000E+00
</event>
<event>
      5  10001  2.40292E+09  7.51862E+00 -1.00000E+00  2.11190E-01
      21    -1     0     0   514   516  0.000000000E+00  0.000000000E+00  3.245914714E+01  3.245914714E+01  0.000000000E+00  0.00000E+00  9.000E+00
      21    -1     0     0   515   512  0.000000000E+00  0.000000000E+00 -1.913765123E+01  1.913765123E+01  0.000000000E+00  0.00000E+00  9.000E+00
      21     1     1     2   511   512 -1.727755221E+01 -4.287253577E+00 -4.375182919E+00  1.833130053E+01  3.862822472E-07  0.00000E+00  9.000E+00
      21     1     1     2   515   516  1.636748486E+01  1.175058935E+01  1.553519879E+01  2.544235272E+01  3.371747881E-07  0.00000E+00  9.000E+00
      21     1     1     2   514   511  9.100673581E-01 -7.463335777E+00  2.161480043E+00  7.823145115E+00  9.884312124E-08  0.00000E+00  9.000E+00
</event>
<event>
      5  10001  2.40292E+09  3.23570E+00 -1.00000E+00  2.87114E-01
      21    -1     0     0   513   515  0.000000000E+00  0.000000000E+00  8.767115213E+00  8.767115213E+00  0.000000000E+00  0.00000E+00  9.000E+00
      21    -1     0     0   512   511  0.000000000E+00  0.000000000E+00 -9.124946795E+01  9.124946795E+01  0.000000000E+00  0.00000E+00  9.000E+00
      -4     1     1     2     0   515 -5.348963827E+00  9.088308142E+00 -2.859522157E+01  3.051467607E+01  1.500000000E+00  0.00000E+00  9.000E+00
      21     1     1     2   513   511  3.007821925E+00 -1.130901745E+01  3.335881513E+00  1.216835954E+01  4.730972012E-07  0.00000E+00  9.000E+00
       4     1     1     2   512     0  2.341141902E+00  2.220709308E+00 -5.722301269E+01  5.733354757E+01  1.500000000E+00  0.00000E+00  9.000E+00
</event>
<event>
      5  10001  2.40292E+09  7.92595E+00 -1.00000E+00  2.08134E-01
      21    -1     0     0   514   515  0.000000000E+00  0.000000000E+00  2.238708893E+02  2.238708893E+02  0.000000000E+00  0.00000E+00  9.000E+00
      21    -1     0     0   512   516  0.000000000E+00  0.000000000E+00 -4.658428008E+01  4.658428008E+01  0.000000000E+00  0.00000E+00  9.000E+00
      21     1     1     2   514   516 -7.027444737E+00 -1.034257561E+01  2.208295675E+02  2.211832989E+02  0.000000000E+00  0.00000E+00  9.000E+00
       3     1     1     2   512     0  8.814249059E+00  2.922687376E+00 -3.957990631E+01  4.065774307E+01  5.000000000E-01  0.00000E+00  9.000E+00
      -3     1     1     2     0   515 -1.786804322E+00  7.419888232E+00 -3.963051903E+00  8.614127434E+00  5.000000000E-01  0.00000E+00  9.000E+00
</event>
<event>
      5  10001  2.40292E+09  8.50625E+00 -1.00000E+00  2.04183E-01
       2    -1     0     0   514     0  0.000000000E+00  0.000000000E+00  3.256279965E+01  3.256279965E+01  0.000000000E+00  0.00000E+00  9.000E+00
      21    -1     0     0   513   512  0.000000000E+00  0.000000000E+00 -2.733740461E+02  2.733740461E+02  0.000000000E+00  0.00000E+00  9.000E+00
      21     1     1     2   513   511 -1.428154404E+01 -4.258019288E+00 -4.330724473E+01  4.579967985E+01  4.768371582E-07  0.00000E+00  9.000E+00
       2     1     1     2   511     0  6.403812912E+00  7.466949795E+00  3.046195972E+01  3.201256080E+01  3.300000131E-01  0.00000E+00  9.000E+00
      21     1     1     2   514   512  7.877731126E+00 -3.208930507E+00 -2.279659615E+02  2.281246052E+02  0.000000000E+00  0.00000E+00  9.000E+00
</event>
<event>
      5  10001  2.40292E+09  6.97189E+00 -1.00000E+00  2.15729E-01
      21    -1     0     0   511   513  0.000000000E+00  0.000000000E+00  4.753749068E+00  4.753749068E+00  0.000000000E+00  0.00000E+00  9.000E+00
       1    -1     0     0   513     0  0.000000000E+00  0.000000000E+00 -2.879885050E+02  2.879885050E+02  0.000000000E+00  0.00000E+00  9.000E+00
      21     1     1     2   511   516  9.560037508E+00  6.998829843E+00 -4.811214875E+00  1.278771774E+01  7.929882226E-07  0.00000E+00  9.000E+00
       1     1     1     2   515     0 -4.899950790E+00 -9.254366814E+00 -2.689879915E+02  2.691919413E+02  3.300000131E-01  0.00000E+00  9.000E+00
      21     1     1     2   516   515 -4.660086718E+00  2.255536971E+00 -9.435549624E+00  1.076259504E+01  2.665600750E-07  0.00000E+00  9.000E+00
</event>
<event>
      5  10001  2.40292E+09  7.55570E+00 -1.00000E+00  2.10901E-01
      21    -1     0     0   512   515  0.000000000E+00  0.000000000E+00  1.787557553E+00  1.787557553E+00  0.000000000E+00  0.00000E+00  9.000E+00
       2    -1     0     0   513     0  0.000000000E+00  0.000000000E+00 -1.268377788E+03  1.268377788E+03  0.000000000E+00  0.00000E+00  9.000E+00
      21     1     1     2   512   514 -1.720754297E+01  3.546549655E+00 -5.009625482E+01  5.308777916E+01  9.536743164E-07  0.00000E+00  9.000E+00
      21     1     1     2   513   515  1.075766797E+01  3.886983289E-01 -1.035744380E+02  1.041323327E+02  1.348699152E-06  0.00000E+00  9.000E+00
       2     1     1     2   514     0  6.449874999E+00 -3.935247984E+00 -1.112919538E+03  1.112945234E+03  3.300000131E-01  0.00000E+00  9.000E+00
</event>
<event>
      5  10001  2.40292E+09  9.99262E+00 -1.00000E+00  1.95736E-01
      -1    -1     0     0     0   511  0.000000000E+00  0.000000000E+00  1.198021673E+02  1.198021673E+02  0.000000000E+00  0.00000E+00  9.000E+00
      21    -1     0     0   512   513  0.000000000E+00  0.000000000E+00 -3.930660423E+00  3.930660423E+00  0.000000000E+00  0.00000E+00  9.000E+00
      -1     1     1     2     0   515 -3.087298933E+00 -6.113782403E+00  4.946953522E+01  4.994250259E+01  3.300000131E-01  0.00000E+00  9.000E+00
      21     1     1     2   512   511  1.208459677E+01  1.045853426E+01  5.959446074E+01  6.170022827E+01  0.000000000E+00  0.00000E+00  9.000E+00
      21     1     1     2   515   513 -8.997297833E+00 -4.344751852E+00  6.807510889E+00  1.209009683E+01  1.685873940E-07  0.00000E+00  9.000E+00
</event>
<event>
      5  10001  2.40292E+09  6.87828E+00 -1.00000E+00  2.16564E-01
       2    -1     0     0   514     0  0.000000000E+00  0.000000000E+00  8.391948685E+01  8.391948685E+01  0.000000000E+00  0.00000E+00  9.000E+00
      21    -1     0     0   516   514  0.000000000E+00  0.000000000E+00 -1.825013036E+02  1.825013036E+02  0.000000000E+00  0.00000E+00  9.000E+00
      21     1     1     2   516   513 -1.338339470E+01  6.215634648E+00 -1.699073851E+02  1.705469697E+02  2.697398305E-06  0.00000E+00  9.000E+00
      21     1     1     2   513   512  1.317797862E+01 -1.309083407E+01 -5.001674735E+00  1.923657473E+01  4.256623047E-07  0.00000E+00  9.000E+00
       2     1     1     2   512     0  2.054160793E-01  6.875199421E+00  7.632724300E+01  7.663724608E+01  3.300000131E-01  0.00000E+00  9.000E+00
</event>
<event>
      5  10001  2.40292E+09  8.25182E+00 -1.00000E+00  2.05861E-01
      21    -1     0     0   511   513  0.000000000E+00  0.000000000E+00  1.642299585E+01  1.642299585E+01  0.000000000E+00  0.00000E+00  9.000E+00
      21    -1     0     0   516   514  0.000000000E+00  0.000000000E+00 -1.761221430E+02  1.761221430E+02  0.000000000E+00  0.00000E+00  9.000E+00
      21     1     1     2   511   515  8.264578141E+00  1.397323005E+01 -2.743554950E+01  3.187889249E+01  3.371747881E-07  0.00000E+00  9.000E+00
      21     1     1     2   516   513 -1.102110524E+01 -6.195437706E+00  1.124515209E+01  1.692045078E+01  4.298152060E-07  0.00000E+00  9.000E+00
      21     1     1     2   515   514  2.756527100E+00 -7.777792342E+00 -1.435087498E+02  1.437457956E+02  0.000000000E+00  0.00000E+00  9.000E+00
</event>
<event>
      5  10001  2.40292E+09  1.82368E+01 -1.00000E+00  1.69702E-01
      21    -1     0     0   512   515  0.000000000E+00  0.000000000E+00  3.711735322E+01  3.711735322E+01  0.000000000E+00  0.00000E+00  9.000E+00
      21    -1     0     0   517   512  0.000000000E+00  0.000000000E+00 -3.404889577E+00  3.404889577E+00  0.000000000E+00  0.00000E+00  9.000E+00
      21     1     1     2   517   514 -4.638353969E+00  2.073876142E-01  3.540861035E+00  5.839095309E+00  9.424321831E-08  0.00000E+00  9.000E+00
      21     1     1     2   511   515  3.237263339E+00 -3.735784993E-01 -1.054555162E+00  3.425130860E+00  1.084820910E-07  0.00000E+00  9.000E+00
      21     1     1     2   514   511  1.401090630E+00  1.661908850E-01  3.122615777E+01  3.125801663E+01  0.000000000E+00  0.00000E+00  9.000E+00
</event>
<event>
      5  10001  2.40292E+09  1.72937E+01 -1.00000E+00  1.71709E-01
      21    -1     0     0   512   514  0.000000000E+00  0.000000000E+00  2.478632135E+01  2.478632135E+01  0.000000000E+00  0.00000E+00  9.000E+00
       2    -1     0     0   514     0  0.000000000E+00  0.000000000E+00 -9.598223314E+02  9.598223314E+02  0.000000000E+00  0.00000E+00  9.000E+00
      21     1     1     2   511   513  5.723098595E+00  3.342849459E+01 -8.360228176E+01  9.021950800E+01  1.907348633E-06  0.00000E+00  9.000E+00
       2     1     1     2   513     0 -6.353178346E+00 -1.614630924E+01 -8.693295619E+02  8.695027672E+02  3.300000131E-01  0.00000E+00  9.000E+00
      21     1     1     2   512   511  6.300797519E-01 -1.728218535E+01  1.789583354E+01  2.488637758E+01  1.507891493E-06  0.00000E+00  9.000E+00
</event>
<event>
      5  10001  2.40292E+09  2.27472E+01 -1.00000E+00  1.61846E-01
      21    -1     0     0   515   514  0.000000000E+00  0.000000000E+00  3.082708629E+01  3.082708629E+01  0.000000000E+00  0.00000E+00  9.000E+00
      -4    -1     0     0     0   511  0.000000000E+00  0.000000000E+00 -2.252241173E+01  2.252241173E+01  0.000000000E+00  0.00000E+00  9.000E+00
      -4     1     1     2     0   514  1.758984121E+00 -2.134604720E+01  1.579365480E+01  2.665402949E+01  1.500000000E+00  0.00000E+00  9.000E+00
      21     1     1     2   515   513 -4.205958388E+00  6.331599866E+00  3.048513874E+00  8.189791186E+00  8.429369702E-08  0.00000E+00  9.000E+00
      21     1     1     2   513   511  2.446974267E+00  1.501444733E+01 -1.053749412E+01  1.850567735E+01  5.591411304E-07  0.00000E+00  9.000E+00
</event>
<event>
      5  10001  2.40292E+09  7.41757E+00 -1.00000E+00  2.11989E-01
      21    -1     0     0   512   511  0.000000000E+00  0.000000000E+00  3.390840634E+02  3.390840634E+02  0.000000000E+00  0.00000E+00  9.000E+00
      21    -1     0     0   514   516  0.000000000E+00  0.000000000E+00 -3.044462559E+00  3.044462559E+00  0.000000000E+00  0.00000E+00  9.000E+00
      21     1     1     2   512   516  1.184830336E+01  8.933384750E+00  3.007563013E+02  3.011221354E+02  5.394796609E-06  0.00000E+00  9.000E+00
      21     1     1     2   515   511 -5.499722442E+00 -1.020845690E+01  1.140053913E+01  1.626136008E+01  5.840038640E-07  0.00000E+00  9.000E+00
      21     1     1     2   514   515 -6.348580922E+00  1.275072148E+00  2.388276044E+01  2.474503051E+01  0.000000000E+00  0.00000E+00  9.000E+00
</event>
<event>
      5  10001  2.40292E+09  1.06822E+01 -1.00000E+00  1.92445E-01
      21    -1     0     0   512   511  0.000000000E+00  0.000000000E+00  2.351315637E+02  2.351315637E+02  0.000000000E+00  0.00000E+00  9.000E+00
      -2    -1     0     0     0   513  0.000000000E+00  0.000000000E+00 -7.066344840E+01  7.066344840E+01  0.000000000E+00  0.00000E+00  9.000E+00
      -2     1     1     2     0   511  9.847623374E+00 -2.820479476E+00 -6.883093931E+01  6.958978299E+01  3.300000131E-01  0.00000E+00  9.000E+00
      21     1     1     2   514   513 -2.028301839E+01  5.374193923E-01  2.042324482E+02  2.052378682E+02  0.000000000E+00  0.00000E+00  9.000E+00
      21     1     1     2   512   514  1.043539501E+01  2.283060084E+00  2.906660642E+01  3.096736090E+01  0.000000000E+00  0.00000E+00  9.000E+00
</event>
<event>
      5  10001  2.40292E+09  7.16006E+00 -1.00000E+00  2.14105E-01
      21    -1     0     0   515   511  0.000000000E+00  0.000000000E+00  1.063493941E+02  1.063493941E+02  0.000000000E+00  0.00000E+00  9.000E+00
      21    -1     0     0   516   515  0.000000000E+00  0.000000000E+00 -2.945176087E+00  2.945176087E+00  0.000000000E+00  0.00000E+00  9.000E+00
      21     1     1     2   516   517 -5.702101708E+00 -1.388350919E+01  6.394029715E+01  6.567821093E+01  9.536743164E-07  0.00000E+00  9.000E+00
      21     1     1     2   513   511  2.512886057E+00  1.014264405E+01  1.289864942E+01  1.660008981E+01  2.920019320E-07  0.00000E+00  9.000E+00
      21     1     1     2   517   513  3.189215650E+00  3.740865138E+00  2.656527141E+01  2.701626943E+01  0.000000000E+00  0.00000E+00  9.000E+00
</event>
<event>
      5  10001  2.40292E+09  1.16904E+01 -1.00000E+00  1.88176E-01
      21    -1     0     0   512   513  0.000000000E+00  0.000000000E+00  1.311684605E+01  1.311684605E+01  0.000000000E+00  0.00000E+00  9.000E+00
      21    -1     0     0   514   512  0.000000000E+00  0.000000000E+00 -8.572073361E+01  8.572073361E+01  0.000000000E+00  0.00000E+00  9.000E+00
      21     1     1     2   514   516  1.265717730E+01  3.928918141E+00 -7.274226892E+01  7.393969315E+01  1.348699152E-06  0.00000E+00  9.000E+00
      21     1     1     2   516   511 -1.273409683E+01  4.396328506E+00  5.967837386E+00  1.473431401E+01  2.665600750E-07  0.00000E+00  9.000E+00
      21     1     1     2   511   513  7.691952627E-02 -8.325246647E+00 -5.829456033E+00  1.016357250E+01  1.685873940E-07  0.00000E+00  9.000E+00
</event>
<event>
      5  10001  2.40292E+09  8.46869E+00 -1.00000E+00  2.04425E-01
       2    -1     0     0   511     0  0.000000000E+00  0.000000000E+00  1.016566085E+01  1.016566085E+01  0.000000000E+00  0.00000E+00  9.000E+00
       2    -1     0     0   513     0  0.000000000E+00  0.000000000E+00 -1.820574168E+02  1.820574168E+02  0.000000000E+00  0.00000E+00  9.000E+00
       2     1     1     2   511     0  9.002749662E+00 -3.938570772E+00 -1.651171923E+02  1.654096670E+02  3.300000131E-01  0.00000E+00  9.000E+00
       2     1     1     2   512     0 -1.270187580E+01  7.493287466E+00  3.648984645E+00  1.519575582E+01  3.300000131E-01  0.00000E+00  9.000E+00
      21     1     1     2   513   512  3.699126140E+00 -3.554716694E+00 -1.042354831E+01  1.161765486E+01  1.685873940E-07  0.00000E+00  9.000E+00
</event>
<event>
      5  10001  2.40292E+09  8.78195E+00 -1.00000E+00  2.02450E-01
      21    -1     0     0   512   514  0.000000000E+00  0.000000000E+00  4.860285423E+01  4.860285423E+01  0.000000000E+00  0.00000E+00  9.000E+00
       3    -1     0     0   514     0  0.000000000E+00  0.000000000E+00 -3.343620478E+01  3.343620478E+01  0.000000000E+00  0.00000E+00  9.000E+00
      21     1     1     2   511   513  8.418919065E+00 -5.570884714E+00  1.959952107E+01  2.204663649E+01  3.371747881E-07  0.00000E+00  9.000E+00
       3     1     1     2   513     0 -1.218355231E+01  6.604549753E+00 -3.056841991E+01  3.356690811E+01  5.000000000E-01  0.00000E+00  9.000E+00
      21     1     1     2   512   511  3.764633243E+00 -1.033665039E+00  2.613554830E+01  2.642551441E+01  4.768371582E-07  0.00000E+00  9.000E+00
</event>
<event>
      5  10001  2.40292E+09  8.56757E+00 -1.00000E+00  2.03790E-01
      21    -1     0     0   513   514  0.000000000E+00  0.000000000E+00  2.065197118E+01  2.065197118E+01  0.000000000E+00  0.00000E+00  9.000E+00
       1    -1     0     0   511     0  0.000000000E+00  0.000000000E+00 -3.099888354E+02  3.099888354E+02  0.000000000E+00  0.00000E+00  9.000E+00
      21     1     1     2   513   515  5.568872716E+00  1.389651425E+01 -1.092970100E+02  1.103175500E+02  1.348699152E-06  0.00000E+00  9.000E+00
       1     1     1     2   515     0 -2.918937745E+00 -5.749114345E+00 -1.992158172E+02  1.993204034E+02  3.300000131E-01  0.00000E+00  9.000E+00
      21     1     1     2   511   514 -2.649934971E+00 -8.147399910E+00  1.917596298E+01  2.100285307E+01  1.327458468E-06  0.00000E+00  9.000E+00
</event>
<event>
      5  10001  2.40292E+09  4.80564E+00 -1.00000E+00  2.45911E-01
      21    -1     0     0   512   515  0.000000000E+00  0.000000000E+00  5.387206534E+00  5.387206534E+00  0.000000000E+00  0.00000E+00  9.000E+00
      21    -1     0     0   511   512  0.000000000E+00  0.000000000E+00 -3.641665977E+01  3.641665977E+01  0.000000000E+00  0.00000E+00  9.000E+00
      21     1     1     2   511   514 -8.563887308E-01  9.192457705E+00 -2.437268401E+01  2.606266307E+01  3.371747881E-07  0.00000E+00  9.000E+00
      21     1     1     2   513   515  2.944160784E+00 -1.079763014E+01 -3.713665947E+00  1.179187068E+01  0.000000000E+00  0.00000E+00  9.000E+00
      21     1     1     2   514   513 -2.087772054E+00  1.605172438E+00 -2.943103281E+00  3.949332555E+00  5.960464478E-08  0.00000E+00  9.000E+00
</event>
<event>
      5  10001  2.40292E+09  4.93602E+00 -1.00000E+00  2.43566E-01
       2    -1     0     0   515     0  0.000000000E+00  0.000000000E+00  7.040960629E+02  7.040960629E+02  0.000000000E+00  0.00000E+00  9.000E+00
      -2    -1     0     0     0   512  0.000000000E+00  0.000000000E+00 -7.341327638E+00  7.341327638E+00  0.000000000E+00  0.00000E+00  9.000E+00
      -2     1     1     2     0   511 -4.632277374E-01 -9.590487923E+00 -3.506290582E+00  1.022717029E+01  3.300000131E-01  0.00000E+00  9.000E+00
       2     1     1     2   511     0  2.342346571E+00  1.415467133E+01  1.104354895E+02  1.113640317E+02  3.300000131E-01  0.00000E+00  9.000E+00
      21     1     1     2   515   512 -1.879118834E+00 -4.564183405E+00  5.898255363E+02  5.898461886E+02  0.000000000E+00  0.00000E+00  9.000E+00
</event>
<event>
      5  10001  2.40292E+09  9.50479E+00 -1.00000E+00  1.98282E-01
       3    -1     0     0   511     0  0.000000000E+00  0.000000000E+00  7.490410449E+00  7.490410449E+00  0.000000000E+00  0.00000E+00  9.000E+00
      -1    -1     0     0     0   512  0.000000000E+00  0.000000000E+00 -1.065042014E+02  1.065042014E+02  0.000000000E+00  0.00000E+00  9.000E+00
      21     1     1     2   511   512 -2.101745250E+01 -4.683891408E+00 -3.435921371E+01  4.054907785E+01  4.768371582E-07  0.00000E+00  9.000E+00
       3     1     1     2   513     0  1.152733348E+01  4.187963284E+00 -5.361021789E+00  1.339436480E+01  5.000000000E-01  0.00000E+00  9.000E+00
      -1     1     1     2     0   513  9.490119014E+00  4.959281238E-01 -5.929355549E+01  6.005116923E+01  3.300000131E-01  0.00000E+00  9.000E+00
</event>
<event>
      5  10001  2.40292E+09  4.47226E+00 -1.00000E+00  2.52450E-01
       1    -1     0     0   512     0  0.000000000E+00  0.000000000E+00  1.265704274E+01  1.265704274E+01  0.000000000E+00  0.00000E+00  9.000E+00
      21    -1     0     0   514   513  0.000000000E+00  0.000000000E+00 -1.021895014E+02  1.021895014E+02  0.000000000E+00  0.00000E+00  9.000E+00
      21     1     1     2   511   513  6.963680791E+00  1.000114781E+01 -8.374545926E+01  8.462752362E+01  9.536743164E-07  0.00000E+00  9.000E+00
       1     1     1     2   514     0 -9.263063985E+00 -7.563978807E+00  9.054685896E+00  1.500381173E+01  3.300000131E-01  0.00000E+00  9.000E+00
      21     1     1     2   512   511  2.299383194E+00 -2.437169005E+00 -1.484168533E+01  1.521520881E+01  0.000000000E+00  0.00000E+00  9.000E+00
</event>
<event>
      5  10001  2.40292E+09  6.93006E+00 -1.00000E+00  2.16100E-01
      21    -1     0     0   515   513  0.000000000E+00  0.000000000E+00  5.961472720E+01  5.961472720E+01  0.000000000E+00  0.00000E+00  9.000E+00
      21    -1     0     0   516   515  0.000000000E+00  0.000000000E+00 -1.872096290E+01  1.872096290E+01  0.000000000E+00  0.00000E+00  9.000E+00
      21     1     1     2   514   511  1.011215553E+01  8.858237277E+00  1.753752523E+01  2.209725884E+01  3.371747881E-07  0.00000E+00  9.000E+00
      21     1     1     2   516   514 -3.182393642E+00 -8.922699206E+00 -1.473742796E+01  1.751953119E+01  5.057621821E-07  0.00000E+00  9.000E+00
      21     1     1     2   511   513 -6.929761886E+00  6.446192834E-02  3.809366703E+01  3.871890008E+01  0.000000000E+00  0.00000E+00  9.000E+00
</event>
<event>
      5  10001  2.40292E+09  6.24268E+00 -1.00000E+00  2.22754E-01
      21    -1     0     0   512   516  0.000000000E+00  0.000000000E+00  2.847549472E+01  2.847549472E+01  0.000000000E+00  0.00000E+00  9.000E+00
      21    -1     0     0   514   513  0.000000000E+00  0.000000000E+00 -3.428270207E+01  3.428270207E+01  0.000000000E+00  0.00000E+00  9.000E+00
      21     1     1     2   512   513  1.029816245E+01 -2.156050217E+00  1.729400396E+01  2.024310439E+01  4.768371582E-07  0.00000E+00  9.000E+00
      21     1     1     2   511   516 -8.051161600E+00  7.980316457E+00  5.948626070E+00  1.280206257E+01  1.192092896E-07  0.00000E+00  9.000E+00
      21     1     1     2   514   511 -2.247000852E+00 -5.824266240E+00 -2.904983738E+01  2.971302983E+01  0.000000000E+00  0.00000E+00  9.000E+00
</event>
<event>
      5  10001  2.40292E+09  1.15472E+01 -1.00000E+00  1.88747E-01
      21    -1     0     0   514   511  0.000000000E+00  0.000000000E+00  5.747727973E+01  5.747727973E+01  0.000000000E+00  0.00000E+00  9.000E+00
      -4    -1     0     0     0   515  0.000000000E+00  0.000000000E+00 -1.490670779E+01  1.490670779E+01  0.000000000E+00  0.00000E+00  9.000E+00
      21     1     1     2   512   511 -1.863083127E+00 -7.336716696E+00  5.209126516E+01  5.263837381E+01  0.000000000E+00  0.00000E+00  9.000E+00
      21     1     1     2   514   515  6.343197556E+00  9.472155971E+00 -9.019929291E+00  1.453674717E+01  2.384185791E-07  0.00000E+00  9.000E+00
      -4     1     1     2     0   512 -4.480114428E+00 -2.135439275E+00 -5.007639312E-01  5.208866547E+00  1.500000000E+00  0.00000E+00  9.000E+00
</event>
<event>
      5  10001  2.40292E+09  4.15592E+00 -1.00000E+00  2.59513E-01
      21    -1     0     0   511   512  0.000000000E+00  0.000000000E+00  4.431177737E+01  4.431177737E+01  0.000000000E+00  0.00000E+00  9.000E+00
      21    -1     0     0   513   514  0.000000000E+00  0.000000000E+00 -6.769222750E+00  6.769222750E+00  0.000000000E+00  0.00000E+00  9.000E+00
      -2     1     1     2     0   514 -6.706640842E+00  7.135760034E+00  1.452994755E+01  1.752502149E+01  3.300000131E-01  0.00000E+00  9.000E+00
      21     1     1     2   513   512  5.151114331E+00 -1.098808354E+01  2.203946647E+00  1.233407230E+01  1.429269172E-07  0.00000E+00  9.000E+00
       2     1     1     2   511     0  1.555526511E+00  3.852323508E+00  2.080866043E+01  2.122190632E+01  3.300000131E-01  0.00000E+00  9.000E+00
</event>
<event>
      5  10001  2.40292E+09  1.85137E+01 -1.00000E+00  1.69141E-01
      21    -1     0     0   515   512  0.000000000E+00  0.000000000E+00  2.134965239E+01  2.134965239E+01  0.000000000E+00  0.00000E+00  9.000E+00
      21    -1     0     0   517   516  0.000000000E+00  0.000000000E+00 -5.863366400E+01  5.863366400E+01  0.000000000E+00  0.00000E+00  9.000E+00
      21     1     1     2   515   516 -9.419745649E+00 -5.060689703E+00 -3.192646847E+01  3.366959426E+01  0.000000000E+00  0.00000E+00  9.000E+00
      21     1     1     2   517   513  1.580821423E+01  2.243726695E+01 -2.225613762E+00  2.753695593E+01  2.715120786E-07  0.00000E+00  9.000E+00
      21     1     1     2   513   512 -6.388468583E+00 -1.737657724E+01 -3.131929382E+00  1.877676621E+01  4.107966647E-07  0.00000E+00  9.000E+00
</event>
<event>
      5  10001  2.40292E+09  1.15439E+01 -1.00000E+00  1.88761E-01
      21    -1     0     0   514   515  0.000000000E+00  0.000000000E+00  1.016118573E+01  1.016118573E+01  0.000000000E+00  0.00000E+00  9.000E+00
      21    -1     0     0   513   514  0.000000000E+00  0.000000000E+00 -2.968698758E+02  2.968698758E+02  0.000000000E+00  0.00000E+00  9.000E+00
      21     1     1     2   513   511 -3.127642882E+00 -1.428506095E+01 -2.789564808E+02  2.793395126E+02  0.000000000E+00  0.00000E+00  9.000E+00
       1     1     1     2   511     0 -8.259539220E+00  1.239178237E+01 -5.770798982E+00  1.597458229E+01  3.300000131E-01  0.00000E+00  9.000E+00
      -1     1     1     2     0   515  1.138718210E+01  1.893278580E+00 -1.981410267E+00  1.171696662E+01  3.300000131E-01  0.00000E+00  9.000E+00
</event>
<event>
      5  10001  2.40292E+09  7.26621E+00 -1.00000E+00  2.13218E-01
      21    -1     0     0   514   513  0.000000000E+00  0.000000000E+00  3.818022526E+01  3.818022526E+01  0.000000000E+00  0.00000E+00  9.000E+00
       2    -1     0     0   513     0  0.000000000E+00  0.000000000E+00 -4.162625296E+01  4.162625296E+01  0.000000000E+00  0.00000E+00  9.000E+00
      21     1     1     2   511   512  9.083257950E+00  1.706229881E+01  2.771453657E+01  3.378939410E+01  0.000000000E+00  0.00000E+00  9.000E+00
       2     1     1     2   512     0 -1.838604710E+00 -1.761982265E+01 -3.390041373E+01  3.825160871E+01  3.300000131E-01  0.00000E+00  9.000E+00
      21     1     1     2   514   511 -7.244653240E+00  5.575238396E-01  2.739849452E+00  7.765475415E+00  1.074538015E-07  0.00000E+00  9.000E+00
</event>
<event>
      5  10001  2.40292E+09  2.28993E+01 -1.00000E+00  1.61621E-01
      21    -1     0     0   511   515  0.000000000E+00  0.000000000E+00  2.892903984E+02  2.892903984E+02  0.000000000E+00  0.00000E+00  9.000E+00
      21    -1     0     0   515   514  0.000000000E+00  0.000000000E+00 -1.478076560E+01  1.478076560E+01  0.000000000E+00  0.00000E+00  9.000E+00
      21     1     1     2   512   514  2.892828322E+01 -8.309853879E-01  2.680190829E+00  2.906405907E+01  1.031091445E-06  0.00000E+00  9.000E+00
       4     1     1     2   511     0 -2.636580422E+01 -9.987807994E+00  2.289492850E+02  2.306836297E+02  1.500000000E+00  0.00000E+00  9.000E+00
      -4     1     1     2     0   512 -2.562478998E+00  1.081879338E+01  4.288015701E+01  4.432347520E+01  1.500000000E+00  0.00000E+00  9.000E+00
</event>
<event>
      5  10001  2.40292E+09  4.79534E+00 -1.00000E+00  2.46101E-01
      21    -1     0     0   513   514  0.000000000E+00  0.000000000E+00  3.845012259E+02  3.845012259E+02  0.000000000E+00  0.00000E+00  9.000E+00
      21    -1     0     0   515   511  0.000000000E+00  0.000000000E+00 -4.942933310E+00  4.942933310E+00  0.000000000E+00  0.00000E+00  9.000E+00
      21     1     1     2   515   512  1.293949733E+01  7.156070631E+00  1.290793685E+01  1.962790799E+01  1.052827938E-06  0.00000E+00  9.000E+00
      21     1     1     2   512   514 -8.924015203E+00 -9.777368520E+00  3.641827512E+02  3.644232584E+02  5.394796609E-06  0.00000E+00  9.000E+00
      21     1     1     2   513   511 -4.015482131E+00  2.621297889E+00  2.467604501E+00  5.392992800E+00  1.685873940E-07  0.00000E+00  9.000E+00
</event>
<event>
      5  10001  2.40292E+09  4.37286E+00 -1.00000E+00  2.54571E-01
      21    -1     0     0   512   515  0.000000000E+00  0.000000000E+00  6.706846870E+00  6.706846870E+00  0.000000000E+00  0.00000E+00  9.000E+00
       2    -1     0     0   514     0  0.000000000E+00  0.000000000E+00 -4.580715975E+01  4.580715975E+01  0.000000000E+00  0.00000E+00  9.000E+00
      21     1     1     2   512   516 -1.213786171E+01 -2.083144954E+00 -4.951238298E+00  1.327335453E+01  4.172325134E-07  0.00000E+00  9.000E+00
       2     1     1     2   516     0  8.283082784E+00  1.953785496E-02 -3.385860206E+01  3.485862412E+01  3.300000131E-01  0.00000E+00  9.000E+00
      21     1     1     2   514   515  3.854778924E+00  2.063607099E+00 -2.904725163E-01  4.382027966E+00  4.785222031E-08  0.00000E+00  9.000E+00
</event>
<event>
      5  10001  2.40292E+09  2.38570E+00 -1.00000E+00  3.30565E-01
      21    -1     0     0   511   515  0.000000000E+00  0.000000000E+00  5.958963533E+01  5.958963533E+01  0.000000000E+00  0.00000E+00  9.000E+00
      21    -1     0     0   512   513  0.000000000E+00  0.000000000E+00 -4.336834664E+02  4.336834664E+02  0.000000000E+00  0.00000E+00  9.000E+00
      21     1     1     2   511   513  5.010111343E+00  1.238184716E+01  1.431058935E+01  1.957560529E+01  0.000000000E+00  0.00000E+00  9.000E+00
      21     1     1     2   514   515 -3.679790157E+00 -1.040148544E+01  4.192956755E+01  4.335689553E+01  6.743495762E-07  0.00000E+00  9.000E+00
      21     1     1     2   512   514 -1.330321186E+00 -1.980361720E+00 -4.303339880E+02  4.303406010E+02  0.000000000E+00  0.00000E+00  9.000E+00
</event>
<event>
      5  10001  2.40292E+09  9.21322E+00 -1.00000E+00  1.99902E-01
      21    -1     0     0   516   512  0.000000000E+00  0.000000000E+00  8.190601402E+01  8.190601402E+01  0.000000000E+00  0.00000E+00  9.000E+00
      -2    -1     0     0     0   516  0.000000000E+00  0.000000000E+00 -3.665260985E+01  3.665260985E+01  0.000000000E+00  0.00000E+00  9.000E+00
      -2     1     1     2     0   513 -1.061873158E+00  1.512018318E+01 -2.549318411E+01  2.966072909E+01  3.300000131E-01  0.00000E+00  9.000E+00
      21     1     1     2   511   512 -4.295633944E+00 -2.495704949E+01  7.317790863E+01  7.743586444E+01  1.348699152E-06  0.00000E+00  9.000E+00
      21     1     1     2   513   511  5.357507102E+00  9.836866308E+00 -2.431320345E+00  1.146203035E+01  2.665600750E-07  0.00000E+00  9.000E+00
</event>
<event>
      5  10001  2.40292E+09  3.25901E+00 -1.00000E+00  2.86236E-01
       3    -1     0     0   514     0  0.000000000E+00  0.000000000E+00  4.075669775E+01  4.075669775E+01  0.000000000E+00  0.00000E+00  9.000E+00
      -2    -1     0     0     0   515  0.000000000E+00  0.000000000E+00 -2.391739889E+01  2.391739889E+01  0.000000000E+00  0.00000E+00  9.000E+00
      -2     1     1     2     0   512  7.227633988E+00  6.713919954E+00 -1.954161260E+01  2.189289696E+01  3.300000131E-01  0.00000E+00  9.000E+00
       3     1     1     2   512     0 -1.037570810E+01 -5.872056551E+00  3.748666364E+01  3.934000912E+01  5.000000000E-01  0.00000E+00  9.000E+00
      21     1     1     2   514   515  3.148074114E+00 -8.418634031E-01 -1.105752179E+00  3.441190564E+00  2.980232239E-08  0.00000E+00  9.000E+00
</event>
<event>
      5  10001  2.40292E+09  1.26590E+01 -1.00000E+00  1.84568E-01
      21    -1     0     0   511   516  0.000000000E+00  0.000000000E+00  2.999821415E+00  2.999821415E+00  0.000000000E+00  0.00000E+00  9.000E+00
      21    -1     0     0   513   511  0.000000000E+00  0.000000000E+00 -8.311396381E+01  8.311396381E+01  0.000000000E+00  0.00000E+00  9.000E+00
      21     1     1     2   515   516  5.698489459E+00 -7.265715218E+00 -6.445463784E+00  1.126087932E+01  2.384185791E-07  0.00000E+00  9.000E+00
      21     1     1     2   512   515 -3.838290664E+00  4.879632967E+00 -1.690995657E+01  1.801360387E+01  0.000000000E+00  0.00000E+00  9.000E+00
      21     1     1     2   513   512 -1.860198795E+00  2.386082252E+00 -5.675872204E+01  5.683930204E+01  9.536743164E-07  0.00000E+00  9.000E+00
</event>
<event>
      5  10001  2.40292E+09  8.75638E+00 -1.00000E+00  2.02607E-01
      21    -1     0     0   514   512  0.000000000E+00  0.000000000E+00  5.780086819E+00  5.780086819E+00  0.000000000E+00  0.00000E+00  9.000E+00
      21    -1     0     0   513   514  0.000000000E+00  0.000000000E+00 -4.139789848E+01  4.139789848E+01  0.000000000E+00  0.00000E+00  9.000E+00
      21     1     1     2   513   517 -8.086670764E-01 -9.525870287E+00 -3.007008556E+01  3.155322792E+01  4.768371582E-07  0.00000E+00  9.000E+00
      21     1     1     2   511   512 -2.402213554E+00  9.787903941E+00 -6.811377530E+00  1.216423271E+01  1.192092896E-07  0.00000E+00  9.000E+00
      21     1     1     2   517   511  3.210880630E+00 -2.620336545E-01  1.263651424E+00  3.460524668E+00  6.828569911E-08  0.00000E+00  9.000E+00
</event>
<event>
      5  10001  2.40292E+09  7.02279E+00 -1.00000E+00  2.15283E-01
      21    -1     0     0   513   511  0.000000000E+00  0.000000000E+00  2.394163907E+00  2.394163907E+00  0.000000000E+00  0.00000E+00  9.000E+00
       1    -1     0     0   512     0  0.000000000E+00  0.000000000E+00 -4.047630504E+02  4.047630504E+02  0.000000000E+00  0.00000E+00  9.000E+00
      21     1     1     2   512   511  4.940338613E-04  1.699914182E+01 -4.706396105E+01  5.003985664E+01  1.168007728E-06  0.00000E+00  9.000E+00
       1     1     1     2   515     0  7.002209279E+00 -1.647116097E+01 -3.375462101E+02  3.380205362E+02  3.300000131E-01  0.00000E+00  9.000E+00
      21     1     1     2   513   515 -7.002703313E+00 -5.279808467E-01 -1.775871537E+01  1.909682144E+01  4.768371582E-07  0.00000E+00  9.000E+00
</event>
<event>
      5  10001  2.40292E+09  1.41848E+01 -1.00000E+00  1.79652E-01
      21    -1     0     0   512   515  0.000000000E+00  0.000000000E+00  2.948634088E+00  2.948634088E+00  0.000000000E+00  0.00000E+00  9.000E+00
      -1    -1     0     0     0   514  0.000000000E+00  0.000000000E+00 -1.867698973E+02  1.867698973E+02  0.000000000E+00  0.00000E+00  9.000E+00
      -1     1     1     2     0   515 -1.527386244E+01  4.056415445E+00 -1.246198766E+02  1.256183423E+02  3.300000131E-01  0.00000E+00  9.000E+00
      21     1     1     2   511   514  6.489337657E+00 -2.426334474E+00 -3.642079831E+00  7.827090629E+00  2.107342426E-07  0.00000E+00  9.000E+00
      21     1     1     2   512   511  8.784524780E+00 -1.630080972E+00 -5.555930685E+01  5.627309852E+01  9.536743164E-07  0.00000E+00  9.000E+00
</event>
<event>
      5  10001  2.40292E+09  4.27494E+00 -1.00000E+00  2.56745E-01
      -2    -1     0     0     0   513  0.000000000E+00  0.000000000E+00  1.414091754E+02  1.414091754E+02  0.000000000E+00  0.00000E+00  9.000E+00
      21    -1     0     0   513   514  0.000000000E+00  0.000000000E+00 -4.254447382E+00  4.254447382E+00  0.000000000E+00  0.00000E+00  9.000E+00
      -2     1     1     2     0   512  5.362877802E+00  1.522490298E+01  5.853147425E+01  6.071738225E+01  3.300000131E-01  0.00000E+00  9.000E+00
       1     1     1     2   512     0 -7.773765136E+00 -1.169569744E+01  7.936254111E+01  8.059616984E+01  3.300000131E-01  0.00000E+00  9.000E+00
      -1     1     1     2     0   514  2.410887334E+00 -3.529205544E+00 -7.392873109E-01  4.350070717E+00  3.300000131E-01  0.00000E+00  9.000E+00
</event>
<event>
      5  10001  2.40292E+09  4.35677E+00 -1.00000E+00  2.54922E-01
      21    -1     0     0   511   516  0.000000000E+00  0.000000000E+00  6.881953569E+02  6.881953569E+02  0.000000000E+00  0.00000E+00  9.000E+00
      21    -1     0     0   513   515  0.000000000E+00  0.000000000E+00 -1.057367109E+01  1.057367109E+01  0.000000000E+00  0.00000E+00  9.000E+00
      21     1     1     2   511   515  1.021675661E+01  5.992382961E+00  4.467546752E+01  4.621891569E+01  8.259061849E-07  0.00000E+00  9.000E+00
      21     1     1     2   513   512 -1.457343750E+01 -6.019613639E+00 -3.448554733E+00  1.614042623E+01  3.576278687E-07  0.00000E+00  9.000E+00
      21     1     1     2   512   516  4.356680892E+00  2.723067782E-02  6.363947730E+02  6.364096861E+02  0.000000000E+00  0.00000E+00  9.000E+00
</event>
<event>
      5  10001  2.40292E+09  1.90230E+01 -1.00000E+00  1.68141E-01
      21    -1     0     0   512   513  0.000000000E+00  0.000000000E+00  5.869940888E+01  5.869940888E+01  0.000000000E+00  0.00000E+00  9.000E+00
      -2    -1     0     0     0   514  0.000000000E+00  0.000000000E+00 -4.032373728E+00  4.032373728E+00  0.000000000E+00  0.00000E+00  9.000E+00
      -2     1     1     2     0   511 -3.121252979E+00  1.718993822E+00 -2.455189406E+00  4.339817387E+00  3.300000131E-01  0.00000E+00  9.000E+00
      21     1     1     2   512   514  4.049324294E+00 -5.388900434E+00  2.061624026E+01  2.169024291E+01  4.129530925E-07  0.00000E+00  9.000E+00
      21     1     1     2   511   513 -9.280713150E-01  3.669906611E+00  3.650598430E+01  3.670172231E+01  4.768371582E-07  0.00000E+00  9.000E+00
</event>
<event>
      5  10001  2.40292E+09  6.77954E+00 -1.00000E+00  2.17464E-01
      21    -1     0     0   511   513  0.000000000E+00  0.000000000E+00  1.120216577E+02  1.120216577E+02  0.000000000E+00  0.00000E+00  9.000E+00
       2    -1     0     0   513     0  0.000000000E+00  0.000000000E+00 -2.822751888E+02  2.822751888E+02  0.000000000E+00  0.00000E+00  9.000E+00
      21     1     1     2   511   512  8.363832162E+00  8.117958361E+00  1.019189641E+02  1.025832841E+02  3.568322551E-06  0.00000E+00  9.000E+00
       2     1     1     2   515     0 -1.159743203E+01 -2.705250224E+00 -2.807862170E+02  2.810388361E+02  3.300000131E-01  0.00000E+00  9.000E+00
      21     1     1     2   512   515  3.233599868E+00 -5.412708137E+00  8.613721855E+00  1.067472630E+01  1.192092896E-07  0.00000E+00  9.000E+00
</event>
<event>
      5  10001  2.40292E+09  9.05604E+00 -1.00000E+00  2.00809E-01
       2    -1     0     0   512     0  0.000000000E+00  0.000000000E+00  2.851472166E+01  2.851472166E+01  0.000000000E+00  0.00000E+00  9.000E+00
      21    -1     0     0   514   511  0.000000000E+00  0.000000000E+00 -2.254461083E+01  2.254461083E+01  0.000000000E+00  0.00000E+00  9.000E+00
      21     1     1     2   512   515 -3.256421700E-01 -1.498006520E+01  2.796258999E+00  1.524229184E+01  3.436971484E-07  0.00000E+00  9.000E+00
       2     1     1     2   514     0  2.872454536E+00  6.290119005E+00  1.752778661E+01  1.884539189E+01  3.300000131E-01  0.00000E+00  9.000E+00
      21     1     1     2   515   511 -2.546812366E+00  8.689946194E+00 -1.435393478E+01  1.697164876E+01  3.769728732E-07  0.00000E+00  9.000E+00
</event>
<event>
      5  10001  2.40292E+09  1.03827E+01 -1.00000E+00  1.93833E-01
       4    -1     0     0   511     0  0.000000000E+00  0.000000000E+00  7.642561629E+00  7.642561629E+00  0.000000000E+00  0.00000E+00  9.000E+00
      -1    -1     0     0     0   511  0.000000000E+00  0.000000000E+00 -2.641903758E+02  2.641903758E+02  0.000000000E+00  0.00000E+00  9.000E+00
      -1     1     1     2     0   512  1.076193859E+01  3.406706201E+00 -2.402403383E+02  2.405056216E+02  3.300000131E-01  0.00000E+00  9.000E+00
       4     1     1     2   513     0 -1.737897431E+01 -3.670452303E+00 -5.504470738E+00  1.865610265E+01  1.500000000E+00  0.00000E+00  9.000E+00
      21     1     1     2   512   513  6.617035719E+00  2.637461028E-01 -1.080300513E+01  1.267121318E+01  0.000000000E+00  0.00000E+00  9.000E+00
</event>
<event>
      5  10001  2.40292E+09  1.46686E+01 -1.00000E+00  1.78255E-01
       1    -1     0     0   511     0  0.000000000E+00  0.000000000E+00  3.545384744E+01  3.545384744E+01  0.000000000E+00  0.00000E+00  9.000E+00
      21    -1     0     0   512   511  0.000000000E+00  0.000000000E+00 -3.237076876E+00  3.237076876E+00  0.000000000E+00  0.00000E+00  9.000E+00
      21     1     1     2   512   514  5.265154567E+00  3.125244046E+00  5.843942973E+00  8.464081311E+00  2.384185791E-07  0.00000E+00  9.000E+00
       1     1     1     2   515     0  2.436920178E+00 -5.214908992E+00  1.681099115E+01  1.777223057E+01  3.300000131E-01  0.00000E+00  9.000E+00
      21     1     1     2   514   515 -7.702074745E+00  2.089664945E+00  9.561836437E+00  1.245461244E+01  2.384185791E-07  0.00000E+00  9.000E+00
</event>
<event>
      5  10001  2.40292E+09  1.45155E+01 -1.00000E+00  1.78689E-01
       1    -1     0     0   514     0  0.000000000E+00  0.000000000E+00  1.539361702E+02  1.539361702E+02  0.000000000E+00  0.00000E+00  9.000E+00
      21    -1     0     0   513   512  0.000000000E+00  0.000000000E+00 -4.431563714E+02  4.431563714E+02  0.000000000E+00  0.00000E+00  9.000E+00
      21     1     1     2   514   511  5.328927513E+00 -1.207441345E+01 -2.067276427E+02  2.071485148E+02  3.814697266E-06  0.00000E+00  9.000E+00
       1     1     1     2   513     0  8.760418503E+00  1.556571278E+01  1.529824778E+02  1.540220236E+02  3.300000131E-01  0.00000E+00  9.000E+00
      21     1     1     2   511   512 -1.408934602E+01 -3.491299326E+00 -2.354750363E+02  2.359220031E+02  2.697398305E-06  0.00000E+00  9.000E+00
</event>
<event>
      5  10001  2.40292E+09  1.00727E+01 -1.00000E+00  1.95336E-01
      21    -1     0     0   515   512  0.000000000E+00  0.000000000E+00  3.432811925E+01  3.432811925E+01  0.000000000E+00  0.00000E+00  9.000E+00
      21    -1     0     0   511   516  0.000000000E+00  0.000000000E+00 -4.451016972E+00  4.451016972E+00  0.000000000E+00  0.00000E+00  9.000E+00
      21     1     1     2   515   516 -8.977728090E+00  5.524883681E+00  1.547837965E+01  1.872709743E+01  3.769728732E-07  0.00000E+00  9.000E+00
      21     1     1     2   513   512  4.157395298E+00 -2.953914615E+00  1.360765578E+01  1.453195937E+01  2.920019320E-07  0.00000E+00  9.000E+00
      21     1     1     2   511   513  4.820332792E+00 -2.570969066E+00  7.910668474E-01  5.520079430E+00  2.638389350E-07  0.00000E+00  9.000E+00
</event>
<event>
      5  10001  2.40292E+09  7.43789E+00 -1.00000E+00  2.11826E-01
      21    -1     0     0   514   513  0.000000000E+00  0.000000000E+00  6.530620455E+00  6.530620455E+00  0.000000000E+00  0.00000E+00  9.000E+00
      21    -1     0     0   511   517  0.000000000E+00  0.000000000E+00 -1.545251848E+02  1.545251848E+02  0.000000000E+00  0.00000E+00  9.000E+00
      21     1     1     2   514   517  9.960995451E+00  4.817536234E+00 -1.485042567E+02  1.489158969E+02  0.000000000E+00  0.00000E+00  9.000E+00
      21     1     1     2   512   513 -1.872210001E+00  3.899025038E-01  1.552849346E+00  2.463439738E+00  1.659323085E-07  0.00000E+00  9.000E+00
      21     1     1     2   511   512 -8.088785450E+00 -5.207438738E+00 -1.043156961E+00  9.676468607E+00  1.421480181E-07  0.00000E+00  9.000E+00
</event>
<event>
      5  10001  2.40292E+09  4.76497E+00 -1.00000E+00  2.46665E-01
       1    -1     0     0   511     0  0.000000000E+00  0.000000000E+00  9.847032279E+02  9.847032279E+02  0.000000000E+00  0.00000E+00  9.000E+00
      -3    -1     0     0     0   512  0.000000000E+00  0.000000000E+00 -4.627758771E+01  4.627758771E+01  0.000000000E+00  0.00000E+00  9.000E+00
      21     1     1     2   511   512  4.433602895E+00  1.171341232E+01  4.484802229E+01  4.656399861E+01  2.821006671E-06  0.00000E+00  9.000E+00
       1     1     1     2   515     0 -8.978261745E+00 -1.028132049E+01  9.388210902E+02  9.389203710E+02  3.300000131E-01  0.00000E+00  9.000E+00
      -3     1     1     2     0   515  4.544658849E+00 -1.432091829E+00 -4.524347232E+01  4.549644600E+01  5.000000000E-01  0.00000E+00  9.000E+00
</event>
<event>
      5  10001  2.40292E+09  1.05600E+01 -1.00000E+00  1.93004E-01
      21    -1     0     0   513   512  0.000000000E+00  0.000000000E+00  1.797870819E+00  1.797870819E+00  0.000000000E+00  0.00000E+00  9.000E+00
      21    -1     0     0   514   513  0.000000000E+00  0.000000000E+00 -3.150990108E+02  3.150990108E+02  0.000000000E+00  0.00000E+00  9.000E+00
      21     1     1     2   514   516 -1.215547655E+01 -6.516930034E+00 -2.538493028E+02  2.542237095E+02  5.394796609E-06  0.00000E+00  9.000E+00
      21     1     1     2   511   512  8.663300230E+00 -1.616775681E+00 -1.542265025E+01  1.776301988E+01  4.460403188E-07  0.00000E+00  9.000E+00
      21     1     1     2   516   511  3.492176325E+00  8.133705715E+00 -4.402918697E+01  4.491015218E+01  4.768371582E-07  0.00000E+00  9.000E+00
</event>
<event>
      5  10001  2.40292E+09  6.03269E+00 -1.00000E+00  2.25028E-01
      21    -1     0     0   515   512  0.000000000E+00  0.000000000E+00  7.281918494E-01  7.281918494E-01  0.000000000E+00  0.00000E+00  9.000E+00
      21    -1     0     0   517   515  0.000000000E+00  0.000000000E+00 -2.205717243E+02  2.205717243E+02  0.000000000E+00  0.00000E+00  9.000E+00
      21     1     1     2   511   512  8.565885084E+00  6.285788419E-02 -3.595290989E+01  3.695930286E+01  6.743495762E-07  0.00000E+00  9.000E+00
      21     1     1     2   517   513 -6.133345707E+00  3.021307326E+00 -1.585509053E+02  1.586982539E+02  2.697398305E-06  0.00000E+00  9.000E+00
      21     1     1     2   513   511 -2.432539377E+00 -3.084165211E+00 -2.533971725E+01  2.564235935E+01  3.371747881E-07  0.00000E+00  9.000E+00
</event>
<event>
      5  10001  2.40292E+09  4.54621E+00 -1.00000E+00  2.50927E-01
      21    -1     0     0   514   516  0.000000000E+00  0.000000000E+00  7.570407849E+01  7.570407849E+01  0.000000000E+00  0.00000E+00  9.000E+00
      21    -1     0     0   512   515  0.000000000E+00  0.000000000E+00 -1.979113621E+01  1.979113621E+01  0.000000000E+00  0.00000E+00  9.000E+00
      21     1     1     2   514   511  2.010771426E+00  1.502846821E+01  7.021756148E+01  7.183595200E+01  0.000000000E+00  0.00000E+00  9.000E+00
      21     1     1     2   512   516 -3.383372505E+00 -1.069441544E+01 -3.206619906E+00  1.166619656E+01  3.500980176E-07  0.00000E+00  9.000E+00
      21     1     1     2   511   515  1.372601079E+00 -4.334052775E+00 -1.109799929E+01  1.199306614E+01  2.920019320E-07  0.00000E+00  9.000E+00
</event>
<event>
      5  10001  2.40292E+09  4.78129E+00 -1.00000E+00  2.46361E-01
       2    -1     0     0   514     0  0.000000000E+00  0.000000000E+00  8.299500971E+02  8.299500971E+02  0.000000000E+00  0.00000E+00  9.000E+00
      21    -1     0     0   511   514  0.000000000E+00  0.000000000E+00 -4.415860094E-01  4.415860094E-01  0.000000000E+00  0.00000E+00  9.000E+00
      21     1     1     2   512   513 -1.917650453E+00 -1.044014149E+01  7.405849400E+01  7.481533581E+01  9.536743164E-07  0.00000E+00  9.000E+00
       2     1     1     2   513     0  1.422010493E+00  1.202103845E+01  6.414318407E+02  6.415461344E+02  3.300000131E-01  0.00000E+00  9.000E+00
      21     1     1     2   511   512  4.956399602E-01 -1.580896955E+00  1.140181764E+02  1.140302128E+02  1.907348633E-06  0.00000E+00  9.000E+00
</event>
<event>
      5  10001  2.40292E+09  1.00670E+01 -1.00000E+00  1.95364E-01
       2    -1     0     0   512     0  0.000000000E+00  0.000000000E+00  1.230001681E+02  1.230001681E+02  0.000000000E+00  0.00000E+00  9.000E+00
      21    -1     0     0   513   512  0.000000000E+00  0.000000000E+00 -4.520855772E+01  4.520855772E+01  0.000000000E+00  0.00000E+00  9.000E+00
      21     1     1     2   513   515 -1.597868586E+01 -2.184808516E+01 -3.923021317E+01  4.766200638E+01  1.581489940E-06  0.00000E+00  9.000E+00
       2     1     1     2   514     0  3.885080085E+00  8.790910960E+00  6.135494036E+01  6.210403827E+01  3.300000131E-01  0.00000E+00  9.000E+00
      21     1     1     2   515   514  1.209360577E+01  1.305717420E+01  5.566688323E+01  5.844268121E+01  0.000000000E+00  0.00000E+00  9.000E+00
</event>
<event>
      5  10001  2.40292E+09  5.39581E+00 -1.00000E+00  2.32793E-01
      21    -1     0     0   514   513  0.000000000E+00  0.000000000E+00  1.455145393E+01  1.455145393E+01  0.000000000E+00  0.00000E+00  9.000E+00
      21    -1     0     0   511   512  0.000000000E+00  0.000000000E+00 -6.501767209E+01  6.501767209E+01  0.000000000E+00  0.00000E+00  9.000E+00
      21     1     1     2   514   512  1.436724941E-01  1.734456117E+01 -4.756663895E+01  5.063042153E+01  6.743495762E-07  0.00000E+00  9.000E+00
       4     1     1     2   511     0 -3.034703416E+00 -1.280281669E+01 -1.225359506E+01  1.804223190E+01  1.500000000E+00  0.00000E+00  9.000E+00
      -4     1     1     2     0   513  2.891030922E+00 -4.541744480E+00  9.354015838E+00  1.089647259E+01  1.500000000E+00  0.00000E+00  9.000E+00
</event>
<event>
      5  10001  2.40292E+09  1.44073E+01 -1.00000E+00  1.79001E-01
      21    -1     0     0   516   511  0.000000000E+00  0.000000000E+00  1.903531925E+00  1.903531925E+00  0.000000000E+00  0.00000E+00  9.000E+00
      -2    -1     0     0     0   515  0.000000000E+00  0.000000000E+00 -2.776747709E+02  2.776747709E+02  0.000000000E+00  0.00000E+00  9.000E+00
      -2     1     1     2     0   512 -7.704727677E-01 -4.503142269E+00 -2.604426785E+02  2.604829545E+02  3.300000131E-01  0.00000E+00  9.000E+00
      21     1     1     2   516   515  4.618218227E+00  5.671372356E+00 -8.996716287E+00  1.159453785E+01  2.920019320E-07  0.00000E+00  9.000E+00
      21     1     1     2   512   511 -3.847745459E+00 -1.168230087E+00 -6.331844272E+00  7.500810526E+00  1.460009660E-07  0.00000E+00  9.000E+00
</event>
<event>
      5  10001  2.40292E+09  9.58170E+00 -1.00000E+00  1.97867E-01
      21    -1     0     0   513   516  0.000000000E+00  0.000000000E+00  1.288432864E+02  1.288432864E+02  0.000000000E+00  0.00000E+00  9.000E+00
      21    -1     0     0   511   513  0.000000000E+00  0.000000000E+00 -1.516064605E+02  1.516064605E+02  0.000000000E+00  0.00000E+00  9.000E+00
      21     1     1     2   514   515  1.331999461E+01  1.223222605E+01 -7.508332726E+00  1.958123261E+01  6.529361695E-07  0.00000E+00  9.000E+00
      21     1     1     2   511   514 -7.130809636E+00 -4.917648426E+00 -1.377385226E+02  1.380106240E+02  2.697398305E-06  0.00000E+00  9.000E+00
      21     1     1     2   515   516 -6.189184971E+00 -7.314577620E+00  1.224836812E+02  1.228578903E+02  2.336015456E-06  0.00000E+00  9.000E+00
</event>
<event>
      5  10001  2.40292E+09  5.50025E+00 -1.00000E+00  2.31419E-01
      21    -1     0     0   513   511  0.000000000E+00  0.000000000E+00  1.775251585E+01  1.775251585E+01  0.000000000E+00  0.00000E+00  9.000E+00
      21    -1     0     0   515   516  0.000000000E+00  0.000000000E+00 -1.852148413E+01  1.852148413E+01  0.000000000E+00  0.00000E+00  9.000E+00
      21     1     1     2   512   516 -5.913079340E+00  6.910891789E+00 -1.094098334E+01  1.422779143E+01  1.685873940E-07  0.00000E+00  9.000E+00
      21     1     1     2   515   511  3.764367018E+00 -1.197407384E+01  2.820503125E+00  1.286484128E+01  3.009887021E-07  0.00000E+00  9.000E+00
      21     1     1     2   513   512  2.148712322E+00  5.063182049E+00  7.351511940E+00  9.181367268E+00  0.000000000E+00  0.00000E+00  9.000E+00
</event>
<event>
      5  10001  2.40292E+09  2.28300E+01 -1.00000E+00  1.61723E-01
      21    -1     0     0   514   515  0.000000000E+00  0.000000000E+00  3.516937040E+00  3.516937040E+00  0.000000000E+00  0.00000E+00  9.000E+00
      21    -1     0     0   517   512  0.000000000E+00  0.000000000E+00 -4.992958650E+01  4.992958650E+01  0.000000000E+00  0.00000E+00  9.000E+00
      21     1     1     2   514   512  2.902150704E+00 -1.181815687E-01 -2.721080601E+00  3.980040858E+00  6.664001875E-08  0.00000E+00  9.000E+00
      21     1     1     2   517   511  2.780793476E+00  5.334694491E+00 -4.077971610E+01  4.122107499E+01  4.768371582E-07  0.00000E+00  9.000E+00
      21     1     1     2   511   515 -5.682944180E+00 -5.216512922E+00 -2.911852760E+00  8.245407698E+00  3.449868233E-07  0.00000E+00  9.000E+00
</event>
<event>
      5  10001  2.40292E+09  2.71469E+00 -1.00000E+00  3.10537E-01
      21    -1     0     0   513   515  0.000000000E+00  0.000000000E+00  1.250904388E+00  1.250904388E+00  0.000000000E+00  0.00000E+00  9.000E+00
       2    -1     0     0   515     0  0.000000000E+00  0.000000000E+00 -5.132129463E+02  5.132129463E+02  0.000000000E+00  0.00000E+00  9.000E+00
      21     1     1     2   513   512 -4.605381055E+00 -2.983068367E+00 -8.252542572E+00  9.910231604E+00  5.591411304E-07  0.00000E+00  9.000E+00
       2     1     1     2   511     0  8.574523528E+00  6.039997859E+00 -4.869089077E+02  4.870219681E+02  3.300000131E-01  0.00000E+00  9.000E+00
      21     1     1     2   512   511 -3.969142473E+00 -3.056929493E+00 -1.680059162E+01  1.753165106E+01  5.840038640E-07  0.00000E+00  9.000E+00
</event>
<event>
      5  10001  2.40292E+09  1.35423E+01 -1.00000E+00  1.81621E-01
      21    -1     0     0   514   511  0.000000000E+00  0.000000000E+00  2.670391667E+01  2.670391667E+01  0.000000000E+00  0.00000E+00  9.000E+00
      21    -1     0     0   512   516  0.000000000E+00  0.000000000E+00 -5.557281549E+00  5.557281549E+00  0.000000000E+00  0.00000E+00  9.000E+00
      21     1     1     2   514   516  4.979463800E-01  6.261201937E+00  2.476074595E+00  6.751410645E+00  1.115100797E-07  0.00000E+00  9.000E+00
      21     1     1     2   512   513 -5.445052984E+00 -8.528854931E+00  6.108606190E+00  1.181968857E+01  1.192092896E-07  0.00000E+00  9.000E+00
      21     1     1     2   513   511  4.947106604E+00  2.267652994E+00  1.256195433E+01  1.369009900E+01  1.685873940E-07  0.00000E+00  9.000E+00
</event>
<event>
      5  10001  2.40292E+09  2.19422E+01 -1.00000E+00  1.63075E-01
       2    -1     0     0   514     0  0.000000000E+00  0.000000000E+00  4.465395076E+02  4.465395076E+02  0.000000000E+00  0.00000E+00  9.000E+00
      21    -1     0     0   515   514  0.000000000E+00  0.000000000E+00 -3.572883551E+00  3.572883551E+00  0.000000000E+00  0.00000E+00  9.000E+00
      21     1     1     2   512   513  6.197181457E+00 -6.096457759E+00  1.799795129E+01  1.998744870E+01  5.840038640E-07  0.00000E+00  9.000E+00
       2     1     1     2   513     0  1.317390634E+00  1.665399302E+01  4.099415279E+02  4.102819229E+02  3.300000131E-01  0.00000E+00  9.000E+00
      21     1     1     2   515   512 -7.514572091E+00 -1.055753526E+01  1.502714482E+01  1.984301958E+01  9.536743164E-07  0.00000E+00  9.000E+00
</event>
<event>
      5  10001  2.40292E+09  6.22748E+00 -1.00000E+00  2.22914E-01
      21    -1     0     0   513   512  0.000000000E+00  0.000000000E+00  1.900321193E+02  1.900321193E+02  0.000000000E+00  0.00000E+00  9.000E+00
      21    -1     0     0   515   511  0.000000000E+00  0.000000000E+00 -4.391286616E+01  4.391286616E+01  0.000000000E+00  0.00000E+00  9.000E+00
      21     1     1     2   516   512  1.079850397E+01  1.512024995E+00  1.011911167E+02  1.017768933E+02  1.907348633E-06  0.00000E+00  9.000E+00
      21     1     1     2   515   516 -9.951526249E+00 -7.681643526E+00 -4.260126678E+01  4.441743411E+01  4.768371582E-07  0.00000E+00  9.000E+00
      21     1     1     2   513   511 -8.469777220E-01  6.169618531E+00  8.752940321E+01  8.775065807E+01  9.536743164E-07  0.00000E+00  9.000E+00
</event>
<event>
      5  10001  2.40292E+09  8.11788E+00 -1.00000E+00  2.06778E-01
      21    -1     0     0   514   511  0.000000000E+00  0.000000000E+00  8.329643585E+00  8.329643585E+00  0.000000000E+00  0.00000E+00  9.000E+00
      21    -1     0     0   512   517  0.000000000E+00  0.000000000E+00 -2.514611986E+02  2.514611986E+02  0.000000000E+00  0.00000E+00  9.000E+00
      21     1     1     2   514   517  2.763720279E+00 -1.025829736E+01 -2.464270033E+02  2.466559117E+02  2.697398305E-06  0.00000E+00  9.000E+00
      -3     1     1     2     0   511 -2.508058271E+00  1.224834248E+00  2.928848663E+00  4.076607624E+00  5.000000000E-01  0.00000E+00  9.000E+00
       3     1     1     2   512     0 -2.556620082E-01  9.033463116E+00  3.665995730E-01  9.058322923E+00  5.000000000E-01  0.00000E+00  9.000E+00
</event>
<event>
      5  10001  2.40292E+09  5.64356E+00 -1.00000E+00  2.29602E-01
      21    -1     0     0   513   511  0.000000000E+00  0.000000000E+00  6.829312841E-01  6.829312841E-01  0.000000000E+00  0.00000E+00  9.000E+00
      21    -1     0     0   514   513  0.000000000E+00  0.000000000E+00 -6.456887411E+02  6.456887411E+02  0.000000000E+00  0.00000E+00  9.000E+00
      21     1     1     2   515   511  6.624210530E+00  6.721057173E+00 -4.418505903E+01  4.518154730E+01  4.768371582E-07  0.00000E+00  9.000E+00
      21     1     1     2   512   515 -1.218777849E+01 -7.667854888E+00 -3.347765293E+02  3.350860524E+02  5.394796609E-06  0.00000E+00  9.000E+00
      21     1     1     2   514   512  5.563567962E+00  9.467977146E-01 -2.660442215E+02  2.661040727E+02  0.000000000E+00  0.00000E+00  9.000E+00
</event>
<event>
      5  10001  2.40292E+09  5.24196E+00 -1.00000E+00  2.34900E-01
      21    -1     0     0   511   514  0.000000000E+00  0.000000000E+00  1.088585254E+02  1.088585254E+02  0.000000000E+00  0.00000E+00  9.000E+00
       1    -1     0     0   514     0  0.000000000E+00  0.000000000E+00 -3.210549691E+00  3.210549691E+00  0.000000000E+00  0.00000E+00  9.000E+00
      -3     1     1     2     0   513  1.070911627E+01 -5.180917613E+00  1.938970608E+01  2.275385199E+01  5.000000000E-01  0.00000E+00  9.000E+00
       1     1     1     2   513     0 -1.035666207E+01 -4.579729623E-02  1.736771832E+01  2.022397305E+01  3.300000131E-01  0.00000E+00  9.000E+00
       3     1     1     2   511     0 -3.524542039E-01  5.226714909E+00  6.889055127E+01  6.909125000E+01  5.000000000E-01  0.00000E+00  9.000E+00
</event>
<event>
      5  10001  2.40292E+09  1.85615E+01 -1.00000E+00  1.69046E-01
      21    -1     0     0   512   514  0.000000000E+00  0.000000000E+00  1.980502161E+01  1.980502161E+01  0.000000000E+00  0.00000E+00  9.000E+00
       4    -1     0     0   511     0  0.000000000E+00  0.000000000E+00 -1.103506148E+01  1.103506148E+01  0.000000000E+00  0.00000E+00  9.000E+00
      21     1     1     2   511   514  2.875949974E+00 -4.787561342E+00  7.218069235E+00  9.126464558E+00  3.153981341E-07  0.00000E+00  9.000E+00
       4     1     1     2   513     0 -3.081747503E+00 -2.028831665E+00 -8.603663227E+00  9.480841024E+00  1.500000000E+00  0.00000E+00  9.000E+00
      21     1     1     2   512   513  2.057975285E-01  6.816393007E+00  1.015555411E+01  1.223277751E+01  2.920019320E-07  0.00000E+00  9.000E+00
</event>
<event>
      5  10001  2.40292E+09  9.54963E+00 -1.00000E+00  1.98040E-01
      21    -1     0     0   515   513  0.000000000E+00  0.000000000E+00  2.342293895E+00  2.342293895E+00  0.000000000E+00  0.00000E+00  9.000E+00
      21    -1     0     0   516   515  0.000000000E+00  0.000000000E+00 -1.545816545E+02  1.545816545E+02  0.000000000E+00  0.00000E+00  9.000E+00
      21     1     1     2   516   511  7.390214377E+00  3.211987846E+00 -1.103133952E+02  1.106073112E+02  2.697398305E-06  0.00000E+00  9.000E+00
      21     1     1     2   511   514 -5.855234602E+00 -1.757752860E+00 -2.143885209E+00  6.478403442E+00  5.031211083E-07  0.00000E+00  9.000E+00
      21     1     1     2   514   513 -1.534979774E+00 -1.454234987E+00 -3.978208012E+01  3.983823366E+01  8.259061849E-07  0.00000E+00  9.000E+00
</event>
<event>
      5  10001  2.40292E+09  1.07962E+01 -1.00000E+00  1.91932E-01
      21    -1     0     0   512   511  0.000000000E+00  0.000000000E+00  5.759503826E+01  5.759503826E+01  0.000000000E+00  0.00000E+00  9.000E+00
      21    -1     0     0   513   512  0.000000000E+00  0.000000000E+00 -9.312598848E+01  9.312598848E+01  0.000000000E+00  0.00000E+00  9.000E+00
      21     1     1     2   513   516  6.520619160E+00  8.621688826E+00 -9.160613725E+01  9.224172794E+01  0.000000000E+00  0.00000E+00  9.000E+00
      21     1     1     2   516   515 -4.427896081E+00  1.159380362E+00  3.318423857E+01  3.349841961E+01  1.066240300E-06  0.00000E+00  9.000E+00
      21     1     1     2   515   511 -2.092723079E+00 -9.781069188E+00  2.289094846E+01  2.498087920E+01  5.840038640E-07  0.00000E+00  9.000E+00
</event>
<event>
      5  10001  2.40292E+09  7.31744E+00 -1.00000E+00  2.12797E-01
      21    -1     0     0   514   516  0.000000000E+00  0.000000000E+00  1.651418443E+01  1.651418443E+01  0.000000000E+00  0.00000E+00  9.000E+00
      21    -1     0     0   512   514  0.000000000E+00  0.000000000E+00 -1.022651679E+02  1.022651679E+02  0.000000000E+00  0.00000E+00  9.000E+00
      21     1     1     2   511   513 -1.682421223E+00  1.287497933E+01 -4.146231545E+01  4.344789105E+01  4.768371582E-07  0.00000E+00  9.000E+00
      21     1     1     2   513   516 -3.411300692E+00 -7.621508207E+00  1.415344529E+01  1.643302691E+01  2.384185791E-07  0.00000E+00  9.000E+00
      21     1     1     2   512   511  5.093721915E+00 -5.253471127E+00 -5.844211333E+01  5.889843438E+01  6.743495762E-07  0.00000E+00  9.000E+00
</event>
<event>
      5  10001  2.40292E+09  7.69564E+00 -1.00000E+00  2.09830E-01
       2    -1     0     0   512     0  0.000000000E+00  0.000000000E+00  2.401494899E+02  2.401494899E+02  0.000000000E+00  0.00000E+00  9.000E+00
      21    -1     0     0   513   514  0.000000000E+00  0.000000000E+00 -4.850723289E+01  4.850723289E+01  0.000000000E+00  0.00000E+00  9.000E+00
      21     1     1     2   512   514  1.549623225E+01  1.003037407E-01  5.474750436E+01  5.689844030E+01  1.651812370E-06  0.00000E+00  9.000E+00
       2     1     1     2   515     0 -8.538752142E+00 -3.389061089E+00  1.838988067E+02  1.841284226E+02  3.300000131E-01  0.00000E+00  9.000E+00
      21     1     1     2   513   515 -6.957480111E+00  3.288757348E+00 -4.700405403E+01  4.762985986E+01  1.168007728E-06  0.00000E+00  9.000E+00
</event>
<event>
      5  10001  2.40292E+09  9.13130E+00 -1.00000E+00  2.00372E-01
      21    -1     0     0   511   514  0.000000000E+00  0.000000000E+00  5.076219793E+00  5.076219793E+00  0.000000000E+00  0.00000E+00  9.000E+00
       1    -1     0     0   513     0  0.000000000E+00  0.000000000E+00 -2.704110442E+02  2.704110442E+02  0.000000000E+00  0.00000E+00  9.000E+00
      21     1     1     2   511   516 -5.290974829E+00  1.343614305E+01 -3.555857299E+01  3.837885443E+01  4.768371582E-07  0.00000E+00  9.000E+00
      21     1     1     2   513   514 -3.838927719E+00 -1.358280349E+01 -1.037681365E+01  1.751879500E+01  2.920019320E-07  0.00000E+00  9.000E+00
       1     1     1     2   516     0  9.129902549E+00  1.466604440E-01 -2.193994377E+02  2.195896145E+02  3.300000131E-01  0.00000E+00  9.000E+00
</event>
<event>
      5  10001  2.40292E+09  2.14136E+01 -1.00000E+00  1.63918E-01
       3    -1     0     0   512     0  0.000000000E+00  0.000000000E+00  4.871642938E+00  4.871642938E+00  0.000000000E+00  0.00000E+00  9.000E+00
       2    -1     0     0   511     0  0.000000000E+00  0.000000000E+00 -6.880875869E+01  6.880875869E+01  0.000000000E+00  0.00000E+00  9.000E+00
      21     1     1     2   512   513  4.461104363E+00 -3.999722886E+00 -7.978063744E+00  9.977411308E+00  1.685873940E-07  0.00000E+00  9.000E+00
       3     1     1     2   511     0 -8.812636953E-01  1.108613873E+01 -5.131607930E+00  1.225816045E+01  5.000000000E-01  0.00000E+00  9.000E+00
       2     1     1     2   513     0 -3.579840668E+00 -7.086415847E+00 -5.082744408E+01  5.144482987E+01  3.300000131E-01  0.00000E+00  9.000E+00
</event>
<event>
      5  10001  2.40292E+09  1.08714E+01 -1.00000E+00  1.91598E-01
       2    -1     0     0   514     0  0.000000000E+00  0.000000000E+00  4.765223141E+01  4.765223141E+01  0.000000000E+00  0.00000E+00  9.000E+00
      21    -1     0     0   513   515  0.000000000E+00  0.000000000E+00 -3.354486433E+01  3.354486433E+01  0.000000000E+00  0.00000E+00  9.000E+00
      21     1     1     2   514   515 -3.932426323E+00  1.493802507E+01 -4.716093601E+00  1.615085473E+01  1.788139343E-07  0.00000E+00  9.000E+00
      21     1     1     2   513   511  7.048075752E+00 -4.522854874E+00 -2.160978822E+01  2.317573160E+01  5.331201500E-07  0.00000E+00  9.000E+00
       2     1     1     2   511     0 -3.115649430E+00 -1.041517019E+01  4.043324890E+01  4.187050941E+01  3.300000131E-01  0.00000E+00  9.000E+00
</event>
<event>
      5  10001  2.40292E+09  1.40651E+01 -1.00000E+00  1.80009E-01
      21    -1     0     0   512   513  0.000000000E+00  0.000000000E+00  2.385041200E+01  2.385041200E+01  0.000000000E+00  0.00000E+00  9.000E+00
      21    -1     0     0   517   516  0.000000000E+00  0.000000000E+00 -1.041607288E+01  1.041607288E+01  0.000000000E+00  0.00000E+00  9.000E+00
      21     1     1     2   512   516 -7.770429839E+00  3.833657709E+00  1.115592585E+01  1.412555107E+01  1.192092896E-07  0.00000E+00  9.000E+00
      21     1     1     2   517   514  2.711847697E+00 -3.666327650E+00 -7.701824531E+00  8.950652349E+00  1.685873940E-07  0.00000E+00  9.000E+00
      21     1     1     2   514   513  5.058582142E+00 -1.673300594E-01  9.980237802E+00  1.119028146E+01  2.064765462E-07  0.00000E+00  9.000E+00
</event>
<event>
      5  10001  2.40292E+09  7.05142E+00 -1.00000E+00  2.15034E-01
      -1    -1     0     0     0   513  0.000000000E+00  0.000000000E+00  2.707001614E+02  2.707001614E+02  0.000000000E+00  0.00000E+00  9.000E+00
      -3    -1     0     0     0   511  0.000000000E+00  0.000000000E+00 -3.078472314E+01  3.078472314E+01  0.000000000E+00  0.00000E+00  9.000E+00
      -3     1     1     2     0   513 -5.982411484E-01  7.906962195E+00 -2.871492977E+01  2.979387748E+01  5.000000000E-01  0.00000E+00  9.000E+00
      21     1     1     2   514   511  6.435938796E+00 -1.186203366E+01  2.932270149E+01  3.227924989E+01  4.768371582E-07  0.00000E+00  9.000E+00
      -1     1     1     2     0   514 -5.837697648E+00  3.955071466E+00  2.393076666E+02  2.394117572E+02  3.300000131E-01  0.00000E+00  9.000E+00
</event>
<event>
      5  10001  2.40292E+09  4.96919E+00 -1.00000E+00  2.42987E-01
       1    -1     0     0   511     0  0.000000000E+00  0.000000000E+00  3.170072319E+02  3.170072319E+02  0.000000000E+00  0.00000E+00  9.000E+00
      21    -1     0     0   514   511  0.000000000E+00  0.000000000E+00 -1.383226843E+00  1.383226843E+00  0.000000000E+00  0.00000E+00  9.000E+00
      21     1     1     2   514   512 -1.447170722E+01 -2.560774044E+00  4.798539540E+01  5.018551629E+01  6.743495762E-07  0.00000E+00  9.000E+00
       1     1     1     2   513     0  1.007833832E+01  4.575410799E+00  2.286376730E+02  2.289056612E+02  3.300000131E-01  0.00000E+00  9.000E+00
      21     1     1     2   512   513  4.393368900E+00 -2.014636756E+00  3.900093662E+01  3.929928128E+01  6.743495762E-07  0.00000E+00  9.000E+00
</event>
<event>
      5  10001  2.40292E+09  8.12558E+00 -1.00000E+00  2.06725E-01
      21    -1     0     0   515   513  0.000000000E+00  0.000000000E+00  3.227363676E+02  3.227363676E+02  0.000000000E+00  0.00000E+00  9.000E+00
      21    -1     0     0   512   516  0.000000000E+00  0.000000000E+00 -3.783597737E-01  3.783597737E-01  0.000000000E+00  0.00000E+00  9.000E+00
      21     1     1     2   515   516  4.935545616E+00 -5.997555111E+00  1.317068734E+02  1.319357070E+02  0.000000000E+00  0.00000E+00  9.000E+00
       5     1     1     2   512     0  1.233787467E-02  5.444260264E+00  1.031067432E+02  1.033618915E+02  4.800000191E+00  0.00000E+00  9.000E+00
      -5     1     1     2     0   513 -4.947883491E+00  5.532948465E-01  8.754439113E+01  8.781712878E+01  4.800000191E+00  0.00000E+00  9.000E+00
</event>
<event>
      5  10001  2.40292E+09  1.73609E+01 -1.00000E+00  1.71560E-01
      21    -1     0     0   511   512  0.000000000E+00  0.000000000E+00  2.085825979E+01  2.085825979E+01  0.000000000E+00  0.00000E+00  9.000E+00
      21    -1     0     0   514   513  0.000000000E+00  0.000000000E+00 -7.037311688E+00  7.037311688E+00  0.000000000E+00  0.00000E+00  9.000E+00
      21     1     1     2   511   513 -5.658325408E+00 -2.083972153E+00  2.623938187E+00  6.576065538E+00  1.685873940E-07  0.00000E+00  9.000E+00
      21     1     1     2   514   515  3.371961104E+00 -3.994201699E+00  1.346250700E+01  1.444170570E+01  2.384185791E-07  0.00000E+00  9.000E+00
      21     1     1     2   515   512  2.286364304E+00  6.078173852E+00 -2.265497082E+00  6.877800239E+00  2.190014490E-07  0.00000E+00  9.000E+00
</event>
<event>
      5  10001  2.40292E+09  1.31373E+01 -1.00000E+00  1.82935E-01
      -4    -1     0     0     0   512  0.000000000E+00  0.000000000E+00  1.415507580E+01  1.415507580E+01  0.000000000E+00  0.00000E+00  9.000E+00
       5    -1     0     0   512     0  0.000000000E+00  0.000000000E+00 -9.038750084E+00  9.038750084E+00  0.000000000E+00  0.00000E+00  9.000E+00
      -4     1     1     2     0   511 -5.552594996E+00  3.507470136E+00  1.379739970E+00  6.876579116E+00  1.500000000E+00  0.00000E+00  9.000E+00
       5     1     1     2   513     0  5.957237668E+00  1.807189123E+00  6.602250811E+00  1.026568706E+01  4.800000191E+00  0.00000E+00  9.000E+00
      21     1     1     2   511   513 -4.046426715E-01 -5.314659258E+00 -2.865665062E+00  6.051559714E+00  4.214684851E-08  0.00000E+00  9.000E+00
</event>
<event>
      5  10001  2.40292E+09  9.75523E+00 -1.00000E+00  1.96950E-01
      21    -1     0     0   513   512  0.000000000E+00  0.000000000E+00  3.679081585E+01  3.679081585E+01  0.000000000E+00  0.00000E+00  9.000E+00
       2    -1     0     0   514     0  0.000000000E+00  0.000000000E+00 -1.948138205E+02  1.948138205E+02  0.000000000E+00  0.00000E+00  9.000E+00
      -2     1     1     2     0   512 -3.689910861E+00  2.418293265E+01  2.366473445E+01  3.403760024E+01  3.300000131E-01  0.00000E+00  9.000E+00
       2     1     1     2   514     0  4.663651153E+00 -1.447665975E+01  3.997355866E-01  1.521814732E+01  3.300000131E-01  0.00000E+00  9.000E+00
       2     1     1     2   513     0 -9.737402920E-01 -9.706272906E+00 -1.820874746E+02  1.823488887E+02  3.300000131E-01  0.00000E+00  9.000E+00
</event>
<event>
      5  10001  2.40292E+09  6.07922E+00 -1.00000E+00  2.24513E-01
      21    -1     0     0   511   514  0.000000000E+00  0.000000000E+00  1.451428050E+02  1.451428050E+02  0.000000000E+00  0.00000E+00  9.000E+00
      21    -1     0     0   512   515  0.000000000E+00  0.000000000E+00 -9.494309672E-01  9.494309672E-01  0.000000000E+00  0.00000E+00  9.000E+00
      21     1     1     2   511   515 -1.005968925E+01  5.708621381E-01  9.612602222E+01  9.665265324E+01  1.907348633E-06  0.00000E+00  9.000E+00
      21     1     1     2   516   514  3.450487574E+00 -2.097310529E-02  6.623135751E+00  7.468080847E+00  2.528810911E-07  0.00000E+00  9.000E+00
      21     1     1     2   512   516  6.609201673E+00 -5.498890329E-01  4.144421605E+01  4.197150186E+01  8.259061849E-07  0.00000E+00  9.000E+00
</event>
<event>
      5  10001  2.40292E+09  5.84095E+00 -1.00000E+00  2.27219E-01
      21    -1     0     0   513   514  0.000000000E+00  0.000000000E+00  2.864738981E+02  2.864738981E+02  0.000000000E+00  0.00000E+00  9.000E+00
      21    -1     0     0   514   511  0.000000000E+00  0.000000000E+00 -6.525810631E+00  6.525810631E+00  0.000000000E+00  0.00000E+00  9.000E+00
      -1     1     1     2     0   515  4.451641963E+00  9.245361486E+00  7.445757970E+00  1.268235140E+01  3.300000131E-01  0.00000E+00  9.000E+00
       1     1     1     2   513     0 -1.107238272E+01 -1.587292261E+01  2.699020313E+02  2.705952009E+02  3.300000131E-01  0.00000E+00  9.000E+00
      21     1     1     2   515   511  6.620740756E+00  6.627561124E+00  2.600298121E+00  9.722156393E+00  5.982774466E-07  0.00000E+00  9.000E+00
</event>
<event>
      5  10001  2.40292E+09  1.60419E+01 -1.00000E+00  1.74633E-01
      21    -1     0     0   512   516  0.000000000E+00  0.000000000E+00  1.924506107E+01  1.924506107E+01  0.000000000E+00  0.00000E+00  9.000E+00
      21    -1     0     0   514   512  0.000000000E+00  0.000000000E+00 -2.072298484E+01  2.072298484E+01  0.000000000E+00  0.00000E+00  9.000E+00
      21     1     1     2   511   516 -1.557080771E+00  1.053711718E+01  1.035806543E+01  1.485748493E+01  1.685873940E-07  0.00000E+00  9.000E+00
      21     1     1     2   513   511  1.017309321E+01 -5.898301994E+00 -9.325554481E+00  1.500825634E+01  2.064765462E-07  0.00000E+00  9.000E+00
      21     1     1     2   514   513 -8.616012438E+00 -4.638815186E+00 -2.510434715E+00  1.010230464E+01  1.365713982E-07  0.00000E+00  9.000E+00
</event>
<event>
      5  10001  2.40292E+09  3.23489E+00 -1.00000E+00  2.87145E-01
       1    -1     0     0   513     0  0.000000000E+00  0.000000000E+00  1.090235563E+02  1.090235563E+02  0.000000000E+00  0.00000E+00  9.000E+00
      21    -1     0     0   515   512  0.000000000E+00  0.000000000E+00 -1.488130661E+01  1.488130661E+01  0.000000000E+00  0.00000E+00  9.000E+00
      21     1     1     2   511   512 -7.098160606E+00  8.191346020E-01 -9.145388066E+00  1.160573084E+01  3.953724850E-07  0.00000E+00  9.000E+00
       1     1     1     2   515     0  1.076477984E+01  1.948666603E+00  1.062634110E+02  1.068255550E+02  3.300000131E-01  0.00000E+00  9.000E+00
      21     1     1     2   513   511 -3.666619236E+00 -2.767801205E+00 -2.975773203E+00  5.473577102E+00  1.788139343E-07  0.00000E+00  9.000E+00
</event>
<event>
      5  10001  2.40292E+09  5.77971E+00 -1.00000E+00  2.27944E-01
      21    -1     0     0   514   511  0.000000000E+00  0.000000000E+00  3.752694229E+01  3.752694229E+01  0.000000000E+00  0.00000E+00  9.000E+00
      21    -1     0     0   512   514  0.000000000E+00  0.000000000E+00 -1.829479008E+01  1.829479008E+01  0.000000000E+00  0.00000E+00  9.000E+00
      21     1     1     2   515   511  6.618948989E+00 -1.021034401E+01  2.824515117E+01  3.075467729E+01  3.371747881E-07  0.00000E+00  9.000E+00
      21     1     1     2   516   515 -5.318481576E+00  1.584184909E+01 -3.487052566E+00  1.707073415E+01  3.397987560E-07  0.00000E+00  9.000E+00
      21     1     1     2   512   516 -1.300467413E+00 -5.631505072E+00 -5.525946395E+00  7.996320931E+00  1.460009660E-07  0.00000E+00  9.000E+00
</event>
<event>
      5  10001  2.40292E+09  3.94494E+00 -1.00000E+00  2.64787E-01
      21    -1     0     0   513   512  0.000000000E+00  0.000000000E+00  9.182436583E-01  9.182436583E-01  0.000000000E+00  0.00000E+00  9.000E+00
      -2    -1     0     0     0   511  0.000000000E+00  0.000000000E+00 -2.829234195E+02  2.829234195E+02  0.000000000E+00  0.00000E+00  9.000E+00
      -2     1     1     2     0   514  1.273940297E+01  9.048118035E-02 -1.487633106E+02  1.493081782E+02  3.300000131E-01  0.00000E+00  9.000E+00
      21     1     1     2   514   512 -9.168078480E+00  1.584100316E+00 -3.509309433E+01  3.630548590E+01  1.066240300E-06  0.00000E+00  9.000E+00
      21     1     1     2   513   511 -3.571324489E+00 -1.674581497E+00 -9.814877087E+01  9.822799909E+01  0.000000000E+00  0.00000E+00  9.000E+00
</event>
<event>
      5  10001  2.40292E+09  4.05204E+00 -1.00000E+00  2.62047E-01
       4    -1     0     0   515     0  0.000000000E+00  0.000000000E+00  1.446583302E+02  1.446583302E+02  0.000000000E+00  0.00000E+00  9.000E+00
      21    -1     0     0   517   516  0.000000000E+00  0.000000000E+00 -6.983717157E+00  6.983717157E+00  0.000000000E+00  0.00000E+00  9.000E+00
      21     1     1     2   515   516  1.358293555E+01 -7.396707896E+00  5.174731008E+00  1.630905475E+01  3.769728732E-07  0.00000E+00  9.000E+00
      21     1     1     2   517   511 -9.560111772E+00  6.936601120E+00  2.401801087E+01  2.676522031E+01  4.768371582E-07  0.00000E+00  9.000E+00
       4     1     1     2   511     0 -4.022823780E+00  4.601067758E-01  1.084818711E+02  1.085677723E+02  1.500000000E+00  0.00000E+00  9.000E+00
</event>
<event>
      5  10001  2.40292E+09  5.71775E+00 -1.00000E+00  2.28691E-01
       1    -1     0     0   512     0  0.000000000E+00  0.000000000E+00  8.536390963E+01  8.536390963E+01  0.000000000E+00  0.00000E+00  9.000E+00
      21    -1     0     0   511   513  0.000000000E+00  0.000000000E+00 -4.343441085E+01  4.343441085E+01  0.000000000E+00  0.00000E+00  9.000E+00
       1     1     1     2   511     0  9.789893810E+00  5.553124481E+00  8.245680656E+01  8.322207075E+01  3.300000131E-01  0.00000E+00  9.000E+00
       5     1     1     2   512     0 -5.105779904E+00 -8.766293059E+00 -1.355838912E+01  1.760076134E+01  4.800000191E+00  0.00000E+00  9.000E+00
      -5     1     1     2     0   513 -4.684113905E+00  3.213168578E+00 -2.696891866E+01  2.797548840E+01  4.800000191E+00  0.00000E+00  9.000E+00
</event>
<event>
      5  10001  2.40292E+09  4.06285E+00 -1.00000E+00  2.61778E-01
      21    -1     0     0   514   512  0.000000000E+00  0.000000000E+00  9.811735114E+00  9.811735114E+00  0.000000000E+00  0.00000E+00  9.000E+00
      21    -1     0     0   511   515  0.000000000E+00  0.000000000E+00 -3.110377037E+01  3.110377037E+01  0.000000000E+00  0.00000E+00  9.000E+00
      21     1     1     2   514   515  1.014080288E+01 -6.330082733E+00 -1.658498678E+01  2.044425633E+01  3.371747881E-07  0.00000E+00  9.000E+00
      21     1     1     2   511   513 -1.136512993E+01  2.456093500E+00 -8.892525475E+00  1.463815504E+01  2.665600750E-07  0.00000E+00  9.000E+00
      21     1     1     2   513   512  1.224327048E+00  3.873989234E+00  4.185476992E+00  5.833094115E+00  0.000000000E+00  0.00000E+00  9.000E+00
</event>
<event>
      5  10001  2.40292E+09  1.32680E+01 -1.00000E+00  1.82505E-01
      21    -1     0     0   516   511  0.000000000E+00  0.000000000E+00  5.977799559E+00  5.977799559E+00  0.000000000E+00  0.00000E+00  9.000E+00
      21    -1     0     0   517   512  0.000000000E+00  0.000000000E+00 -2.323892492E+01  2.323892492E+01  0.000000000E+00  0.00000E+00  9.000E+00
      21     1     1     2   516   512  6.953258962E+00 -3.496735730E+00 -7.230161982E+00  1.062309810E+01  1.685873940E-07  0.00000E+00  9.000E+00
      21     1     1     2   514   511 -6.821358834E+00 -4.160275413E+00 -4.830443913E+00  9.336595539E+00  1.976862425E-07  0.00000E+00  9.000E+00
      21     1     1     2   517   514 -1.319001283E-01  7.657011143E+00 -5.200519471E+00  9.257030845E+00  5.960464478E-08  0.00000E+00  9.000E+00
</event>
<event>
      5  10001  2.40292E+09  3.90177E+00 -1.00000E+00  2.65930E-01
      21    -1     0     0   513   512  0.000000000E+00  0.000000000E+00  7.296268041E+00  7.296268041E+00  0.000000000E+00  0.00000E+00  9.000E+00
      21    -1     0     0   515   513  0.000000000E+00  0.000000000E+00 -6.470779407E+01  6.470779407E+01  0.000000000E+00  0.00000E+00  9.000E+00
      21     1     1     2   515   517 -1.060114734E+01 -3.636000623E+00 -5.829988643E+01  5.936734442E+01  0.000000000E+00  0.00000E+00  9.000E+00
      21     1     1     2   511   512  7.521407164E+00  5.140349652E+00  5.921318647E-02  9.110338439E+00  3.244138903E-07  0.00000E+00  9.000E+00
      21     1     1     2   517   511  3.079740174E+00 -1.504349029E+00  8.291472147E-01  3.526379254E+00  8.688795410E-08  0.00000E+00  9.000E+00
</event>
<event>
      5  10001  2.40292E+09  6.41678E+00 -1.00000E+00  2.20960E-01
      21    -1     0     0   514   511  0.000000000E+00  0.000000000E+00  5.506658524E+01  5.506658524E+01  0.000000000E+00  0.00000E+00  9.000E+00
      21    -1     0     0   515   516  0.000000000E+00  0.000000000E+00 -2.714518659E+00  2.714518659E+00  0.000000000E+00  0.00000E+00  9.000E+00
      21     1     1     2   514   516 -9.464813109E+00  1.618058020E+00  1.047324806E+01  1.420879037E+01  1.685873940E-07  0.00000E+00  9.000E+00
      21     1     1     2   512   511  4.890800039E+00 -4.471881006E+00  2.402635533E+01  2.492355101E+01  0.000000000E+00  0.00000E+00  9.000E+00
      21     1     1     2   515   512  4.574013071E+00  2.853822987E+00  1.785246320E+01  1.864876252E+01  3.371747881E-07  0.00000E+00  9.000E+00
</event>
<event>
      5  10001  2.40292E+09  8.49628E+00 -1.00000E+00  2.04247E-01
      21    -1     0     0   513   512  0.000000000E+00  0.000000000E+00  1.783892087E+01  1.783892087E+01  0.000000000E+00  0.00000E+00  9.000E+00
      21    -1     0     0   515   513  0.000000000E+00  0.000000000E+00 -7.206877394E+00  7.206877394E+00  0.000000000E+00  0.00000E+00  9.000E+00
      21     1     1     2   515   517  6.080759745E+00  5.765468460E+00  5.445375041E+00  9.993416581E+00  2.149076030E-07  0.00000E+00  9.000E+00
      21     1     1     2   517   511 -3.025298375E+00 -6.802481080E+00 -1.530375883E+00  7.600541391E+00  2.337155810E-07  0.00000E+00  9.000E+00
      21     1     1     2   511   512 -3.055461369E+00  1.037012620E+00  6.717044321E+00  7.451840293E+00  8.429369702E-08  0.00000E+00  9.000E+00
</event>
<event>
      5  10001  2.40292E+09  1.49060E+01 -1.00000E+00  1.77594E-01
      21    -1     0     0   514   512  0.000000000E+00  0.000000000E+00  5.818738191E+01  5.818738191E+01  0.000000000E+00  0.00000E+00  9.000E+00
      21    -1     0     0   512   513  0.000000000E+00  0.000000000E+00 -1.614193290E+01  1.614193290E+01  0.000000000E+00  0.00000E+00  9.000E+00
      -2     1     1     2     0   513  1.520023404E+01 -1.097092436E+00 -8.426552166E+00  1.741741680E+01  3.300000131E-01  0.00000E+00  9.000E+00
       2     1     1     2   511     0 -3.554300367E+00  1.039841056E+01  1.665887740E+01  1.995963651E+01  3.300000131E-01  0.00000E+00  9.000E+00
      21     1     1     2   514   511 -1.164593367E+01 -9.301318127E+00  3.381312378E+01  3.695226150E+01  4.768371582E-07  0.00000E+00  9.000E+00
</event>
<event>
      5  10001  2.40292E+09  4.29652E+00 -1.00000E+00  2.56259E-01
      21    -1     0     0   513   511  0.000000000E+00  0.000000000E+00  1.524195378E+01  1.524195378E+01  0.000000000E+00  0.00000E+00  9.000E+00
      21    -1     0     0   512   516  0.000000000E+00  0.000000000E+00 -4.289919152E+01  4.289919152E+01  0.000000000E+00  0.00000E+00  9.000E+00
      21     1     1     2   515   516  4.083374073E+00  1.024920270E+01  4.489610320E+00  1.191120064E+01  2.598106231E-07  0.00000E+00  9.000E+00
      21     1     1     2   512   511 -7.669153878E+00 -7.882284941E+00 -3.766422763E+01  3.923697720E+01  4.768371582E-07  0.00000E+00  9.000E+00
      21     1     1     2   513   515  3.585779805E+00 -2.366917760E+00  5.517379571E+00  6.992967454E+00  8.429369702E-08  0.00000E+00  9.000E+00
</event>
<event>
      5  10001  2.40292E+09  2.84387E+00 -1.00000E+00  3.03947E-01
      21    -1     0     0   514   516  0.000000000E+00  0.000000000E+00  1.946281516E+01  1.946281516E+01  0.000000000E+00  0.00000E+00  9.000E+00
      21    -1     0     0   517   514  0.000000000E+00  0.000000000E+00 -1.932678346E+02  1.932678346E+02  0.000000000E+00  0.00000E+00  9.000E+00
      21     1     1     2   512   511  1.055757019E+01  8.157923307E+00 -2.014211003E+01  2.416026899E+01  8.596304120E-07  0.00000E+00  9.000E+00
      21     1     1     2   517   512 -7.829977887E+00 -7.353044124E+00 -1.708309929E+02  1.711683497E+02  1.907348633E-06  0.00000E+00  9.000E+00
      21     1     1     2   511   516 -2.727592307E+00 -8.048791833E-01  1.716808354E+01  1.740203100E+01  4.129530925E-07  0.00000E+00  9.000E+00
</event>
<event>
      5  10001  2.40292E+09  1.24336E+01 -1.00000E+00  1.85369E-01
      21    -1     0     0   513   512  0.000000000E+00  0.000000000E+00  3.278768507E+01  3.278768507E+01  0.000000000E+00  0.00000E+00  9.000E+00
      21    -1     0     0   511   515  0.000000000E+00  0.000000000E+00 -8.163285566E+01  8.163285566E+01  0.000000000E+00  0.00000E+00  9.000E+00
      21     1     1     2   513   515  1.155680547E+00 -1.987874110E+01 -2.227309329E+01  2.987625528E+01  3.371747881E-07  0.00000E+00  9.000E+00
      21     1     1     2   511   516  4.080631340E+00  8.601518015E+00 -5.378728936E+01  5.462334813E+01  6.743495762E-07  0.00000E+00  9.000E+00
      21     1     1     2   516   512 -5.236311887E+00  1.127722308E+01  2.721521206E+01  2.992093732E+01  3.371747881E-07  0.00000E+00  9.000E+00
</event>
<event>
      5  10001  2.40292E+09  5.54908E+00 -1.00000E+00  2.30791E-01
       3    -1     0     0   513     0  0.000000000E+00  0.000000000E+00  7.565187892E-01  7.565187892E-01  0.000000000E+00  0.00000E+00  9.000E+00
      21    -1     0     0   516   513  0.000000000E+00  0.000000000E+00 -3.192570692E+02  3.192570692E+02  0.000000000E+00  0.00000E+00  9.000E+00
      -3     1     1     2     0   514 -1.554386234E+00  9.755855304E+00 -2.428865697E+02  2.430879030E+02  5.000000000E-01  0.00000E+00  9.000E+00
       3     1     1     2   514     0 -1.956469608E+00 -9.184370144E+00 -3.823175739E+01  3.937128016E+01  5.000000000E-01  0.00000E+00  9.000E+00
       3     1     1     2   516     0  3.510855841E+00 -5.714851601E-01 -3.738222334E+01  3.755440488E+01  5.000000000E-01  0.00000E+00  9.000E+00
</event>
<event>
      5  10001  2.40292E+09  2.01438E+01 -1.00000E+00  1.66071E-01
      21    -1     0     0   511   514  0.000000000E+00  0.000000000E+00  4.988854359E+00  4.988854359E+00  0.000000000E+00  0.00000E+00  9.000E+00
      21    -1     0     0   515   512  0.000000000E+00  0.000000000E+00 -1.171331252E+02  1.171331252E+02  0.000000000E+00  0.00000E+00  9.000E+00
      21     1     1     2   511   512  1.817372351E+01  5.380367134E-01 -2.483255827E+01  3.077709635E+01  3.371747881E-07  0.00000E+00  9.000E+00
      21     1     1     2   515   513 -1.107729542E+01 -8.174894696E+00 -2.891816016E+01  3.202804028E+01  3.371747881E-07  0.00000E+00  9.000E+00
      21     1     1     2   513   514 -7.096428090E+00  7.636857983E+00 -5.839355238E+01  5.931684289E+01  0.000000000E+00  0.00000E+00  9.000E+00
</event>
<event>
      5  10001  2.40292E+09  6.01533E+00 -1.00000E+00  2.25222E-01
      21    -1     0     0   513   514  0.000000000E+00  0.000000000E+00  1.129910710E+01  1.129910710E+01  0.000000000E+00  0.00000E+00  9.000E+00
      21    -1     0     0   512   511  0.000000000E+00  0.000000000E+00 -1.627603917E+02  1.627603917E+02  0.000000000E+00  0.00000E+00  9.000E+00
      -1     1     1     2     0   511 -1.203664287E+01 -8.841450547E-01 -3.461279168E+01  3.665810595E+01  3.300000131E-01  0.00000E+00  9.000E+00
       1     1     1     2   513     0  1.094604397E+01 -5.031101043E+00  6.644661262E+00  1.376184143E+01  3.300000131E-01  0.00000E+00  9.000E+00
      21     1     1     2   512   514  1.090598901E+00  5.915246097E+00 -1.234931541E+02  1.236395514E+02  2.697398305E-06  0.00000E+00  9.000E+00
</event>
<event>
      5  10001  2.40292E+09  9.04008E+00 -1.00000E+00  2.00902E-01
      21    -1     0     0   515   511  0.000000000E+00  0.000000000E+00  2.673011462E+01  2.673011462E+01  0.000000000E+00  0.00000E+00  9.000E+00
      21    -1     0     0   512   514  0.000000000E+00  0.000000000E+00 -6.493411640E+00  6.493411640E+00  0.000000000E+00  0.00000E+00  9.000E+00
      21     1     1     2   515   514  9.636468940E+00 -9.375618508E-01  1.733214468E+00  9.835882688E+00  2.279439351E-07  0.00000E+00  9.000E+00
      21     1     1     2   513   511 -3.779100887E+00 -1.154404423E-01  1.676730835E+01  1.718829716E+01  2.384185791E-07  0.00000E+00  9.000E+00
      21     1     1     2   512   513 -5.857368053E+00  1.053002293E+00  1.736180160E+00  6.199346408E+00  4.712160915E-08  0.00000E+00  9.000E+00
</event>
<event>
      5  10001  2.40292E+09  2.25514E+01 -1.00000E+00  1.62139E-01
      21    -1     0     0   516   511  0.000000000E+00  0.000000000E+00  1.573320515E+01  1.573320515E+01  0.000000000E+00  0.00000E+00  9.000E+00
      21    -1     0     0   512   516  0.000000000E+00  0.000000000E+00 -3.152362802E+02  3.152362802E+02  0.000000000E+00  0.00000E+00  9.000E+00
      21     1     1     2   513   511 -7.461642409E+00 -2.273608490E+01  4.604110886E+00  2.436808365E+01  6.899736466E-07  0.00000E+00  9.000E+00
       1     1     1     2   512     0  1.743107795E+01  2.217372916E+01 -1.936806262E+02  1.957238121E+02  3.300000131E-01  0.00000E+00  9.000E+00
      -1     1     1     2     0   513 -9.969435537E+00  5.623557379E-01 -1.104265597E+02  1.108775896E+02  3.300000131E-01  0.00000E+00  9.000E+00
</event>
<event>
      5  10001  2.40292E+09  4.53408E+01 -1.00000E+00  1.41514E-01
      21    -1     0     0   512   511  0.000000000E+00  0.000000000E+00  2.369427902E+01  2.369427902E+01  0.000000000E+00  0.00000E+00  9.000E+00
       2    -1     0     0   511     0  0.000000000E+00  0.000000000E+00 -9.220069390E+01  9.220069390E+01  0.000000000E+00  0.00000E+00  9.000E+00
      21     1     1     2   512   514 -1.872400641E+01 -1.070302544E+01  1.157405865E+01  2.447656028E+01  4.768371582E-07  0.00000E+00  9.000E+00
      21     1     1     2   514   515  2.085408421E+01 -7.149165616E+00 -2.429423223E+01  3.280568727E+01  7.539457465E-07  0.00000E+00  9.000E+00
       2     1     1     2   515     0 -2.130077809E+00  1.785219106E+01 -5.578624131E+01  5.861272538E+01  3.300000131E-01  0.00000E+00  9.000E+00
</event>
<event>
      5  10001  2.40292E+09  5.53216E+00 -1.00000E+00  2.31008E-01
      21    -1     0     0   513   515  0.000000000E+00  0.000000000E+00  2.373616576E+02  2.373616576E+02  0.000000000E+00  0.00000E+00  9.000E+00
      21    -1     0     0   511   513  0.000000000E+00  0.000000000E+00 -9.962177503E+00  9.962177503E+00  0.000000000E+00  0.00000E+00  9.000E+00
      21     1     1     2   516   515  5.540564433E+00 -8.269353509E+00  2.335662328E+02  2.337782393E+02  2.697398305E-06  0.00000E+00  9.000E+00
       2     1     1     2   511     0 -4.630056532E+00  1.946638489E+00 -4.900518667E+00  7.025013033E+00  3.300000131E-01  0.00000E+00  9.000E+00
      -2     1     1     2     0   516 -9.105079005E-01  6.322715021E+00 -1.266234117E+00  6.520582698E+00  3.300000131E-01  0.00000E+00  9.000E+00
</event>
<event>
      5  10001  2.40292E+09  5.58509E+00 -1.00000E+00  2.30334E-01
      21    -1     0     0   512   511  0.000000000E+00  0.000000000E+00  6.499693107E+01  6.499693107E+01  0.000000000E+00  0.00000E+00  9.000E+00
      21    -1     0     0   515   513  0.000000000E+00  0.000000000E+00 -2.152533115E+01  2.152533115E+01  0.000000000E+00  0.00000E+00  9.000E+00
      21     1     1     2   512   514  1.113727012E+01 -1.080644088E+00  6.100501062E+01  6.202272082E+01  9.536743164E-07  0.00000E+00  9.000E+00
      21     1     1     2   515   511 -8.109619582E+00  5.773891854E+00 -5.842120558E+00  1.154270893E+01  1.460009660E-07  0.00000E+00  9.000E+00
      21     1     1     2   514   513 -3.027650542E+00 -4.693247765E+00 -1.169129014E+01  1.295683246E+01  1.685873940E-07  0.00000E+00  9.000E+00
</event>
<event>
      5  10001  2.40292E+09  3.08355E+01 -1.00000E+00  1.52181E-01
      21    -1     0     0   516   513  0.000000000E+00  0.000000000E+00  1.318840170E+01  1.318840170E+01  0.000000000E+00  0.00000E+00  9.000E+00
      21    -1     0     0   514   517  0.000000000E+00  0.000000000E+00 -4.094171406E+01  4.094171406E+01  0.000000000E+00  0.00000E+00  9.000E+00
      21     1     1     2   516   517 -2.385426574E+00 -6.037147619E+00  3.123252734E+00  7.203618463E+00  0.000000000E+00  0.00000E+00  9.000E+00
      21     1     1     2   511   513  4.797320878E+00 -5.249066218E+00 -3.418804715E+01  3.491975876E+01  6.743495762E-07  0.00000E+00  9.000E+00
      21     1     1     2   514   511 -2.411894304E+00  1.128621384E+01  3.311482055E+00  1.200673854E+01  2.421152116E-07  0.00000E+00  9.000E+00
</event>
<event>
      5  10001  2.40292E+09  3.86306E+00 -1.00000E+00  2.66975E-01
      21    -1     0     0   514   511  0.000000000E+00  0.000000000E+00  3.406348067E+00  3.406348067E+00  0.000000000E+00  0.00000E+00  9.000E+00
      -3    -1     0     0     0   512  0.000000000E+00  0.000000000E+00 -4.345694056E+01  4.345694056E+01  0.000000000E+00  0.00000E+00  9.000E+00
      -3     1     1     2     0   511  8.199322981E+00  6.121772598E+00 -7.733113429E+00  1.283573295E+01  5.000000000E-01  0.00000E+00  9.000E+00
      21     1     1     2   514   513 -2.511266294E+00 -1.601725445E+00 -1.417202025E+01  1.448164842E+01  1.685873940E-07  0.00000E+00  9.000E+00
      21     1     1     2   513   512 -5.688056686E+00 -4.520047153E+00 -1.814545881E+01  1.954590726E+01  4.129530925E-07  0.00000E+00  9.000E+00
</event>
<event>
      5  10001  2.40292E+09  1.41802E+01 -1.00000E+00  1.79665E-01
       1    -1     0     0   512     0  0.000000000E+00  0.000000000E+00  4.848679570E+02  4.848679570E+02  0.000000000E+00  0.00000E+00  9.000E+00
      21    -1     0     0   514   512  0.000000000E+00  0.000000000E+00 -2.908932155E+02  2.908932155E+02  0.000000000E+00  0.00000E+00  9.000E+00
      21     1     1     2   511   513  6.975178739E+00  1.130081837E+01 -1.415356940E+02  1.421573575E+02  1.907348633E-06  0.00000E+00  9.000E+00
       1     1     1     2   513     0 -1.452486990E+01 -8.978562883E+00  4.843018415E+02  4.846028983E+02  3.300000131E-01  0.00000E+00  9.000E+00
      21     1     1     2   514   511  7.549691160E+00 -2.322255492E+00 -1.487914060E+02  1.490009168E+02  4.264961200E-06  0.00000E+00  9.000E+00
</event>
<event>
      5  10001  2.40292E+09  1.08430E+01 -1.00000E+00  1.91724E-01
      21    -1     0     0   515   513  0.000000000E+00  0.000000000E+00  3.012697056E+01  3.012697056E+01  0.000000000E+00  0.00000E+00  9.000E+00
      21    -1     0     0   514   511  0.000000000E+00  0.000000000E+00 -1.688689480E+02  1.688689480E+02  0.000000000E+00  0.00000E+00  9.000E+00
      21     1     1     2   515   511 -8.387552799E+00 -5.922149236E+00  2.894479783E+01  3.071195557E+01  1.430511475E-06  0.00000E+00  9.000E+00
      21     1     1     2   514   512  2.349068260E+00  7.284924669E+00 -7.462374457E+01  7.501527513E+01  0.000000000E+00  0.00000E+00  9.000E+00
      21     1     1     2   512   513  6.038484539E+00 -1.362775433E+00 -9.306303065E+01  9.326868782E+01  1.907348633E-06  0.00000E+00  9.000E+00
</event>
<event>
      5  10001  2.40292E+09  1.98429E+00 -1.00000E+00  3.64460E-01
      21    -1     0     0   516   512  0.000000000E+00  0.000000000E+00  1.905004119E+00  1.905004119E+00  0.000000000E+00  0.00000E+00  9.000E+00
      21    -1     0     0   513   516  0.000000000E+00  0.000000000E+00 -2.330080655E+02  2.330080655E+02  0.000000000E+00  0.00000E+00  9.000E+00
      21     1     1     2   514   512  9.792668652E+00 -1.283048238E+00 -1.210880610E+01  1.562580421E+01  2.920019320E-07  0.00000E+00  9.000E+00
      21     1     1     2   513   511 -8.128718181E+00  2.571983028E+00 -1.989943352E+02  1.991768978E+02  3.814697266E-06  0.00000E+00  9.000E+00
      21     1     1     2   511   514 -1.663950470E+00 -1.288934789E+00 -1.999992006E+01  2.011036764E+01  0.000000000E+00  0.00000E+00  9.000E+00
</event>
<event>
      5  10001  2.40292E+09  1.12504E+01 -1.00000E+00  1.89968E-01
      21    -1     0     0   515   513  0.000000000E+00  0.000000000E+00  1.941067977E+00  1.941067977E+00  0.000000000E+00  0.00000E+00  9.000E+00
      21    -1     0     0   512   514  0.000000000E+00  0.000000000E+00 -1.651600576E+02  1.651600576E+02  0.000000000E+00  0.00000E+00  9.000E+00
      21     1     1     2   515   514 -1.813670618E-01 -8.680820662E+00 -1.384297512E+01  1.634067017E+01  5.057621821E-07  0.00000E+00  9.000E+00
      21     1     1     2   516   513  5.181550316E+00  8.119827147E+00 -1.378246795E+02  1.381608567E+02  3.303624740E-06  0.00000E+00  9.000E+00
      21     1     1     2   512   516 -5.000183254E+00  5.609935156E-01 -1.155133505E+01  1.259959871E+01  2.384185791E-07  0.00000E+00  9.000E+00
</event>
<event>
      5  10001  2.40292E+09  2.25937E+00 -1.00000E+00  3.39854E-01
      21    -1     0     0   511   512  0.000000000E+00  0.000000000E+00  3.635043372E+00  3.635043372E+00  0.000000000E+00  0.00000E+00  9.000E+00
      21    -1     0     0   513   514  0.000000000E+00  0.000000000E+00 -1.166557280E+02  1.166557280E+02  0.000000000E+00  0.00000E+00  9.000E+00
      21     1     1     2   513   512 -1.462773110E+01  3.430202270E+00 -1.700588207E+01  2.269221959E+01  6.743495762E-07  0.00000E+00  9.000E+00
       3     1     1     2   511     0  1.293194456E+01 -1.939352573E+00 -5.566390134E+01  5.718143223E+01  5.000000000E-01  0.00000E+00  9.000E+00
      -3     1     1     2     0   514  1.695786538E+00 -1.490849697E+00 -4.035090120E+01  4.041711955E+01  5.000000000E-01  0.00000E+00  9.000E+00
</event>
<event>
      5  10001  2.40292E+09  6.05984E+00 -1.00000E+00  2.24727E-01
      21    -1     0     0   515   511  0.000000000E+00  0.000000000E+00  7.856799495E+01  7.856799495E+01  0.000000000E+00  0.00000E+00  9.000E+00
      21    -1     0     0   512   516  0.000000000E+00  0.000000000E+00 -1.564255436E+02  1.564255436E+02  0.000000000E+00  0.00000E+00  9.000E+00
      21     1     1     2   515   516 -6.339211029E-01 -1.149664013E+01  1.543039461E+01  1.925283533E+01  1.420542632E-06  0.00000E+00  9.000E+00
      21     1     1     2   512   513 -1.944488325E+00  1.698056960E+01 -1.538901072E+02  1.548363196E+02  1.907348633E-06  0.00000E+00  9.000E+00
      21     1     1     2   513   511  2.578409428E+00 -5.483929463E+00  6.060216391E+01  6.090438365E+01  1.168007728E-06  0.00000E+00  9.000E+00
</event>
<event>
      5  10001  2.40292E+09  2.83882E+00 -1.00000E+00  3.04194E-01
      21    -1     0     0   514   515  0.000000000E+00  0.000000000E+00  1.078701302E+01  1.078701302E+01  0.000000000E+00  0.00000E+00  9.000E+00
      21    -1     0     0   511   514  0.000000000E+00  0.000000000E+00 -6.031860775E+01  6.031860775E+01  0.000000000E+00  0.00000E+00  9.000E+00
      21     1     1     2   512   513 -1.078748689E+01 -5.408283779E+00 -2.633698108E+00  1.235134699E+01  3.153981341E-07  0.00000E+00  9.000E+00
      21     1     1     2   511   512  1.305090303E+01  7.121712101E+00 -5.135836300E+01  5.346705811E+01  9.536743164E-07  0.00000E+00  9.000E+00
      21     1     1     2   513   515 -2.263416143E+00 -1.713428322E+00  4.460466372E+00  5.287215666E+00  1.576990671E-07  0.00000E+00  9.000E+00
</event>
<event>
      5  10001  2.40292E+09  1.33827E+01 -1.00000E+00  1.82132E-01
      21    -1     0     0   512   515  0.000000000E+00  0.000000000E+00  9.149888931E+01  9.149888931E+01  0.000000000E+00  0.00000E+00  9.000E+00
      21    -1     0     0   515   514  0.000000000E+00  0.000000000E+00 -1.688116363E+00  1.688116363E+00  0.000000000E+00  0.00000E+00  9.000E+00
      21     1     1     2   511   514  2.147698571E+00  2.985142121E+00  2.182592050E+00  4.276375882E+00  0.000000000E+00  0.00000E+00  9.000E+00
       3     1     1     2   512     0  4.282927175E+00 -6.414066089E+00  4.689976392E+01  4.753232127E+01  5.000000000E-01  0.00000E+00  9.000E+00
      -3     1     1     2     0   511 -6.430625746E+00  3.428923969E+00  4.072841698E+01  4.137830853E+01  5.000000000E-01  0.00000E+00  9.000E+00
</event>
<event>
      5  10001  2.40292E+09  1.20460E+01 -1.00000E+00  1.86801E-01
      21    -1     0     0   513   514  0.000000000E+00  0.000000000E+00  2.550700324E+00  2.550700324E+00  0.000000000E+00  0.00000E+00  9.000E+00
      21    -1     0     0   512   511  0.000000000E+00  0.000000000E+00 -2.004874220E+02  2.004874220E+02  0.000000000E+00  0.00000E+00  9.000E+00
      21     1     1     2   513   511 -9.313756926E+00  9.692805576E+00 -4.559034733E+01  4.753079336E+01  6.743495762E-07  0.00000E+00  9.000E+00
      21     1     1     2   515   514  1.035337945E+01  2.308202473E+00 -2.022473467E+01  2.283769159E+01  0.000000000E+00  0.00000E+00  9.000E+00
      21     1     1     2   512   515 -1.039622526E+00 -1.200100805E+01 -1.321216397E+02  1.326696373E+02  2.697398305E-06  0.00000E+00  9.000E+00
</event>
<event>
      5  10001  2.40292E+09  4.19793E+00 -1.00000E+00  2.58520E-01
      21    -1     0     0   515   514  0.000000000E+00  0.000000000E+00  2.305365661E+01  2.305365661E+01  0.000000000E+00  0.00000E+00  9.000E+00
       2    -1     0     0   514     0  0.000000000E+00  0.000000000E+00 -5.521642615E+01  5.521642615E+01  0.000000000E+00  0.00000E+00  9.000E+00
      21     1     1     2   515   512  9.156403023E+00 -5.188147405E+00  2.124468999E+01  2.370850992E+01  5.331201500E-07  0.00000E+00  9.000E+00
       2     1     1     2   511     0 -5.590273097E+00  1.442032813E+00 -2.290287327E+01  2.362162390E+01  3.300000131E-01  0.00000E+00  9.000E+00
      21     1     1     2   512   511 -3.566129926E+00  3.746114592E+00 -3.050458626E+01  3.093994894E+01  6.743495762E-07  0.00000E+00  9.000E+00
</event>
<event>
      5  10001  2.40292E+09  4.29846E+00 -1.00000E+00  2.56215E-01
      21    -1     0     0   516   511  0.000000000E+00  0.000000000E+00  6.102527364E+00  6.102527364E+00  0.000000000E+00  0.00000E+00  9.000E+00
      -2    -1     0     0     0   513  0.000000000E+00  0.000000000E+00 -2.056028032E+01  2.056028032E+01  0.000000000E+00  0.00000E+00  9.000E+00
      21     1     1     2   514   511 -6.052769389E+00 -6.455009167E+00 -5.924251056E+00  1.064893944E+01  8.429369702E-08  0.00000E+00  9.000E+00
      21     1     1     2   516   513  8.338688571E+00  5.220747502E+00 -3.689372678E+00  1.050720716E+01  1.632340424E-07  0.00000E+00  9.000E+00
      -2     1     1     2     0   514 -2.285919182E+00  1.234261665E+00 -4.844129224E+00  5.506661086E+00  3.300000131E-01  0.00000E+00  9.000E+00
</event>
<event>
      5  10001  2.40292E+09  1.33870E+01 -1.00000E+00  1.82118E-01
      21    -1     0     0   512   513  0.000000000E+00  0.000000000E+00  2.165086724E+02  2.165086724E+02  0.000000000E+00  0.00000E+00  9.000E+00
      21    -1     0     0   515   512  0.000000000E+00  0.000000000E+00 -5.581452949E+00  5.581452949E+00  0.000000000E+00  0.00000E+00  9.000E+00
      21     1     1     2   517   513  1.761310391E+01  1.681608429E+01  1.699255062E+02  1.716615268E+02  2.697398305E-06  0.00000E+00  9.000E+00
      21     1     1     2   515   511 -1.349198484E+01 -1.545706828E+01  4.126184628E+01  4.608139075E+01  6.743495762E-07  0.00000E+00  9.000E+00
      21     1     1     2   511   517 -4.121119067E+00 -1.359016009E+00 -2.601330013E-01  4.347207846E+00  4.501285394E-08  0.00000E+00  9.000E+00
</event>
<event>
      5  10001  2.40292E+09  1.08491E+01 -1.00000E+00  1.91697E-01
      21    -1     0     0   514   512  0.000000000E+00  0.000000000E+00  4.401630582E+01  4.401630582E+01  0.000000000E+00  0.00000E+00  9.000E+00
      21    -1     0     0   513   516  0.000000000E+00  0.000000000E+00 -2.007926956E+01  2.007926956E+01  0.000000000E+00  0.00000E+00  9.000E+00
      21     1     1     2   514   516  8.435259050E+00  1.605570547E+01 -5.398343067E+00  1.892303837E+01  1.788139343E-07  0.00000E+00  9.000E+00
      21     1     1     2   513   515 -1.897162933E+00 -7.397978113E+00 -5.023579579E+00  9.141425444E+00  3.209808354E-07  0.00000E+00  9.000E+00
      21     1     1     2   515   512 -6.538096116E+00 -8.657727356E+00  3.435895891E+01  3.603111157E+01  4.768371582E-07  0.00000E+00  9.000E+00
</event>
<event>
      5  10001  2.40292E+09  4.70428E+00 -1.00000E+00  2.47812E-01
      21    -1     0     0   514   513  0.000000000E+00  0.000000000E+00  7.144944499E+01  7.144944499E+01  0.000000000E+00  0.00000E+00  9.000E+00
      21    -1     0     0   517   512  0.000000000E+00  0.000000000E+00 -7.112596938E+00  7.112596938E+00  0.000000000E+00  0.00000E+00  9.000E+00
      21     1     1     2   511   512 -7.741001106E+00  2.836814924E+00  5.524527630E+01  5.585706016E+01  1.168007728E-06  0.00000E+00  9.000E+00
      21     1     1     2   517   513  9.830862444E+00 -7.051405815E+00 -4.072027138E-01  1.210512265E+01  3.504941906E-07  0.00000E+00  9.000E+00
      21     1     1     2   514   511 -2.089861338E+00  4.214590891E+00  9.498774469E+00  1.059985911E+01  1.192092896E-07  0.00000E+00  9.000E+00
</event>
<event>
      5  10001  2.40292E+09  3.08953E+00 -1.00000E+00  2.92910E-01
       1    -1     0     0   511     0  0.000000000E+00  0.000000000E+00  3.583465960E+01  3.583465960E+01  0.000000000E+00  0.00000E+00  9.000E+00
      21    -1     0     0   512   511  0.000000000E+00  0.000000000E+00 -3.690270735E+01  3.690270735E+01  0.000000000E+00  0.00000E+00  9.000E+00
      21     1     1     2   515   514  2.068391084E+01 -6.980972307E+00 -1.825166455E+01  2.845490117E+01  6.307962682E-07  0.00000E+00  9.000E+00
       1     1     1     2   514     0 -1.763035856E+01  6.511302415E+00  2.761374023E+01  3.340440317E+01  3.300000131E-01  0.00000E+00  9.000E+00
      21     1     1     2   512   515 -3.053552286E+00  4.696698920E-01 -1.043012343E+01  1.087806261E+01  1.685873940E-07  0.00000E+00  9.000E+00
</event>
<event>
      5  10001  2.40292E+09  1.34620E+01 -1.00000E+00  1.81877E-01
      -1    -1     0     0     0   513  0.000000000E+00  0.000000000E+00  6.567216361E+01  6.567216361E+01  0.000000000E+00  0.00000E+00  9.000E+00
      21    -1     0     0   515   511  0.000000000E+00  0.000000000E+00 -8.200044159E+01  8.200044159E+01  0.000000000E+00  0.00000E+00  9.000E+00
      -1     1     1     2     0   511 -2.472066401E+01  1.075572904E+01  5.685485981E+01  6.292361178E+01  3.300000131E-01  0.00000E+00  9.000E+00
      21     1     1     2   514   513  1.443986804E+01 -1.422021007E+01 -7.079731015E+01  7.364090771E+01  9.536743164E-07  0.00000E+00  9.000E+00
      21     1     1     2   515   514  1.028079597E+01  3.464481036E+00 -2.385827632E+00  1.110808571E+01  1.332800375E-07  0.00000E+00  9.000E+00
</event>
<event>
      5  10001  2.40292E+09  5.54520E+00 -1.00000E+00  2.30841E-01
      21    -1     0     0   512   513  0.000000000E+00  0.000000000E+00  1.519396406E+02  1.519396406E+02  0.000000000E+00  0.00000E+00  9.000E+00
      -2    -1     0     0     0   512  0.000000000E+00  0.000000000E+00 -1.387033950E+01  1.387033950E+01  0.000000000E+00  0.00000E+00  9.000E+00
      21     1     1     2   514   513  4.003273825E+00 -7.831763189E+00  1.181805728E+02  1.185074281E+02  1.907348633E-06  0.00000E+00  9.000E+00
      21     1     1     2   515   514 -6.746482535E+00  1.265080749E+01  3.140148264E+01  3.451972000E+01  9.536743164E-07  0.00000E+00  9.000E+00
      -2     1     1     2     0   515  2.743208710E+00 -4.819044297E+00 -1.151275436E+01  1.278283204E+01  3.300000131E-01  0.00000E+00  9.000E+00
</event>
<event>
      5  10001  2.40292E+09  5.31550E+00 -1.00000E+00  2.33880E-01
      21    -1     0     0   515   512  0.000000000E+00  0.000000000E+00  1.060561420E+00  1.060561420E+00  0.000000000E+00  0.00000E+00  9.000E+00
       2    -1     0     0   513     0  0.000000000E+00  0.000000000E+00 -1.042525423E+03  1.042525423E+03  0.000000000E+00  0.00000E+00  9.000E+00
      21     1     1     2   515   511 -7.706390983E+00  8.765097747E+00 -1.303517773E+02  1.308732258E+02  3.814697266E-06  0.00000E+00  9.000E+00
       2     1     1     2   511     0  3.148158444E+00 -1.149923140E+01 -9.025851292E+02  9.026639284E+02  3.300000131E-01  0.00000E+00  9.000E+00
      21     1     1     2   513   512  4.558232539E+00  2.734133651E+00 -8.527955163E+00  1.004883028E+01  8.429369702E-07  0.00000E+00  9.000E+00
</event>
<event>
      5  10001  2.40292E+09  2.43120E+00 -1.00000E+00  3.27465E-01
      21    -1     0     0   514   511  0.000000000E+00  0.000000000E+00  3.534493956E+00  3.534493956E+00  0.000000000E+00  0.00000E+00  9.000E+00
      21    -1     0     0   513   515  0.000000000E+00  0.000000000E+00 -4.170051992E+02  4.170051992E+02  0.000000000E+00  0.00000E+00  9.000E+00
      21     1     1     2   514   512 -1.217144142E+00  1.008828045E+01 -2.888557483E+01  3.062076543E+01  3.371747881E-07  0.00000E+00  9.000E+00
      21     1     1     2   513   511  3.645764947E+00 -9.976239353E+00 -7.928274040E+00  1.325422510E+01  3.153981341E-07  0.00000E+00  9.000E+00
      21     1     1     2   512   515 -2.428620805E+00 -1.120410941E-01 -3.766568564E+02  3.766647026E+02  0.000000000E+00  0.00000E+00  9.000E+00
</event>
<event>
      5  10001  2.40292E+09  1.23187E+01 -1.00000E+00  1.85787E-01
       2    -1     0     0   512     0  0.000000000E+00  0.000000000E+00  3.516046223E+02  3.516046223E+02  0.000000000E+00  0.00000E+00  9.000E+00
      21    -1     0     0   516   515  0.000000000E+00  0.000000000E+00 -1.277910813E+00  1.277910813E+00  0.000000000E+00  0.00000E+00  9.000E+00
      21     1     1     2   512   515  8.755097919E+00 -7.701759811E+00  3.216606179E+01  3.421438842E+01  4.768371582E-07  0.00000E+00  9.000E+00
      21     1     1     2   516   511 -6.730247208E+00 -1.731173845E+00  1.973928680E+02  1.975151578E+02  0.000000000E+00  0.00000E+00  9.000E+00
       2     1     1     2   511     0 -2.024850711E+00  9.432933656E+00  1.207677816E+02  1.211529869E+02  3.300000131E-01  0.00000E+00  9.000E+00
</event>
<event>
      5  10001  2.40292E+09  7.48799E+00 -1.00000E+00  2.11430E-01
      21    -1     0     0   511   512  0.000000000E+00  0.000000000E+00  3.779551437E+01  3.779551437E+01  0.000000000E+00  0.00000E+00  9.000E+00
       2    -1     0     0   514     0  0.000000000E+00  0.000000000E+00 -5.629801749E+01  5.629801749E+01  0.000000000E+00  0.00000E+00  9.000E+00
      21     1     1     2   514   513 -5.787993371E+00 -1.271332751E+01  2.555427676E+00  1.420069626E+01  4.020553101E-07  0.00000E+00  9.000E+00
       2     1     1     2   511     0  1.129956100E+01  1.778196656E+01 -4.773825173E+01  5.218168253E+01  3.300000131E-01  0.00000E+00  9.000E+00
      21     1     1     2   513   512 -5.511567628E+00 -5.068639052E+00  2.668032093E+01  2.771115307E+01  0.000000000E+00  0.00000E+00  9.000E+00
</event>
<event>
      5  10001  2.40292E+09  4.78647E+00 -1.00000E+00  2.46265E-01
      21    -1     0     0   515   514  0.000000000E+00  0.000000000E+00  7.031352292E+01  7.031352292E+01  0.000000000E+00  0.00000E+00  9.000E+00
      21    -1     0     0   513   511  0.000000000E+00  0.000000000E+00 -5.327133320E+00  5.327133320E+00  0.000000000E+00  0.00000E+00  9.000E+00
      21     1     1     2   515   512  3.359939168E+00  8.343919646E+00  5.644727417E+01  5.715946945E+01  0.000000000E+00  0.00000E+00  9.000E+00
      21     1     1     2   513   514  2.417973246E-01 -1.149634606E+01  6.958784183E+00  1.344057722E+01  2.528810911E-07  0.00000E+00  9.000E+00
      21     1     1     2   512   511 -3.601736493E+00  3.152426412E+00  1.580331248E+00  5.040609576E+00  8.429369702E-08  0.00000E+00  9.000E+00
</event>
<event>
      5  10001  2.40292E+09  8.99677E+00 -1.00000E+00  2.01157E-01
      21    -1     0     0   516   511  0.000000000E+00  0.000000000E+00  5.091502673E+01  5.091502673E+01  0.000000000E+00  0.00000E+00  9.000E+00
      21    -1     0     0   512   517  0.000000000E+00  0.000000000E+00 -1.053598588E+01  1.053598588E+01  0.000000000E+00  0.00000E+00  9.000E+00
      21     1     1     2   516   517  4.312241280E+00 -1.446521087E+01 -2.275739693E+00  1.526488590E+01  2.250025998E-07  0.00000E+00  9.000E+00
      21     1     1     2   513   511 -2.251980647E+00  1.094810071E+01  1.793712150E+01  2.113463162E+01  2.384185791E-07  0.00000E+00  9.000E+00
      21     1     1     2   512   513 -2.060260633E+00  3.517110155E+00  2.471765905E+01  2.505149509E+01  4.768371582E-07  0.00000E+00  9.000E+00
</event>
<event>
      5  10001  2.40292E+09  1.14113E+01 -1.00000E+00  1.89300E-01
      21    -1     0     0   514   512  0.000000000E+00  0.000000000E+00  9.774383693E+01  9.774383693E+01  0.000000000E+00  0.00000E+00  9.000E+00
      -1    -1     0     0     0   514  0.000000000E+00  0.000000000E+00 -5.421761580E+01  5.421761580E+01  0.000000000E+00  0.00000E+00  9.000E+00
      -1     1     1     2     0   515 -1.570513438E+01  9.860830484E+00 -2.811724143E+01  3.368345869E+01  3.300000131E-01  0.00000E+00  9.000E+00
      21     1     1     2   511   512  1.603175750E+01 -1.290801794E+01  9.373843429E+01  9.597149701E+01  1.348699152E-06  0.00000E+00  9.000E+00
      21     1     1     2   515   511 -3.266231207E-01  3.047187459E+00 -2.209497172E+01  2.230649703E+01  7.539457465E-07  0.00000E+00  9.000E+00
</event>
<event>
      5  10001  2.40292E+09  8.76886E+00 -1.00000E+00  2.02530E-01
      21    -1     0     0   512   511  0.000000000E+00  0.000000000E+00  1.198241798E+01  1.198241798E+01  0.000000000E+00  0.00000E+00  9.000E+00
      21    -1     0     0   515   516  0.000000000E+00  0.000000000E+00 -3.043308420E+01  3.043308420E+01  0.000000000E+00  0.00000E+00  9.000E+00
      21     1     1     2   513   516 -5.763492098E+00 -1.512753698E+01 -1.644472162E+01  2.307572502E+01  0.000000000E+00  0.00000E+00  9.000E+00
      21     1     1     2   515   511  6.621282385E+00  6.400733959E+00 -4.462234107E+00  1.023339185E+01  1.976862425E-07  0.00000E+00  9.000E+00
      21     1     1     2   512   513 -8.577902865E-01  8.726803020E+00  2.456289500E+00  9.106385300E+00  1.788139343E-07  0.00000E+00  9.000E+00
</event>
<event>
      5  10001  2.40292E+09  3.66125E+00 -1.00000E+00  2.72750E-01
      -3    -1     0     0     0   513  0.000000000E+00  0.000000000E+00  6.682876001E+00  6.682876001E+00  0.000000000E+00  0.00000E+00  9.000E+00
      21    -1     0     0   511   514  0.000000000E+00  0.000000000E+00 -9.228743676E+01  9.228743676E+01  0.000000000E+00  0.00000E+00  9.000E+00
      -3     1     1     2     0   512  1.026486287E+01 -6.701793048E+00 -7.671400102E-01  1.229308519E+01  5.000000000E-01  0.00000E+00  9.000E+00
      21     1     1     2   511   513 -7.355727265E+00  8.924122874E+00 -3.860346027E+01  4.029855875E+01  4.768371582E-07  0.00000E+00  9.000E+00
      21     1     1     2   512   514 -2.909135601E+00 -2.222329826E+00 -4.623396048E+01  4.637866882E+01  0.000000000E+00  0.00000E+00  9.000E+00
</event>
<event>
      5  10001  2.40292E+09  6.12964E+00 -1.00000E+00  2.23962E-01
      21    -1     0     0   515   511  0.000000000E+00  0.000000000E+00  7.090385060E+01  7.090385060E+01  0.000000000E+00  0.00000E+00  9.000E+00
      21    -1     0     0   516   515  0.000000000E+00  0.000000000E+00 -1.424473179E+01  1.424473179E+01  0.000000000E+00  0.00000E+00  9.000E+00
      21     1     1     2   516   514  9.101775390E+00 -7.282773035E+00 -1.054378427E+01  1.571790333E+01  3.953724850E-07  0.00000E+00  9.000E+00
      21     1     1     2   514   513 -8.536882571E+00  1.083780561E+01  5.533181716E+01  5.702583962E+01  0.000000000E+00  0.00000E+00  9.000E+00
      21     1     1     2   513   511 -5.648928186E-01 -3.555032575E+00  1.187108591E+01  1.240483943E+01  2.384185791E-07  0.00000E+00  9.000E+00
</event>
<event>
      5  10001  2.40292E+09  1.22606E+01 -1.00000E+00  1.86000E-01
      -2    -1     0     0     0   511  0.000000000E+00  0.000000000E+00  2.261892934E+01  2.261892934E+01  0.000000000E+00  0.00000E+00  9.000E+00
      21    -1     0     0   512   513  0.000000000E+00  0.000000000E+00 -1.772550577E+01  1.772550577E+01  0.000000000E+00  0.00000E+00  9.000E+00
      -2     1     1     2     0   514  7.666652325E+00  1.145994768E+01  9.845301258E+00  1.694540692E+01  3.300000131E-01  0.00000E+00  9.000E+00
      21     1     1     2   512   511 -1.100342834E+01 -1.195297240E+01  1.296720987E+00  1.629817382E+01  2.555016905E-07  0.00000E+00  9.000E+00
      21     1     1     2   514   513  3.336776013E+00  4.930247194E-01 -6.248598668E+00  7.100854374E+00  2.064765462E-07  0.00000E+00  9.000E+00
</event>
<event>
      5  10001  2.40292E+09  1.49214E+01 -1.00000E+00  1.77551E-01
       2    -1     0     0   515     0  0.000000000E+00  0.000000000E+00  3.372453696E+02  3.372453696E+02  0.000000000E+00  0.00000E+00  9.000E+00
      21    -1     0     0   516   515  0.000000000E+00  0.000000000E+00 -2.617763450E+01  2.617763450E+01  0.000000000E+00  0.00000E+00  9.000E+00
      21     1     1     2   516   513 -9.711191182E+00  1.061933180E+00 -2.323384182E+01  2.520409375E+01  1.168007728E-06  0.00000E+00  9.000E+00
      21     1     1     2   513   512  2.448384717E+01  1.039247894E+00  8.476240426E+01  8.823380296E+01  1.348699152E-06  0.00000E+00  9.000E+00
       2     1     1     2   512     0 -1.477265598E+01 -2.101181074E+00  2.495391726E+02  2.499851074E+02  3.300000131E-01  0.00000E+00  9.000E+00
</event>
<event>
      5  10001  2.40292E+09  4.82334E+00 -1.00000E+00  2.45586E-01
      21    -1     0     0   511   513  0.000000000E+00  0.000000000E+00  7.027272275E+00  7.027272275E+00  0.000000000E+00  0.00000E+00  9.000E+00
      21    -1     0     0   515   514  0.000000000E+00  0.000000000E+00 -6.228377834E+01  6.228377834E+01  0.000000000E+00  0.00000E+00  9.000E+00
      21     1     1     2   511   514 -1.144268812E+01  1.027070588E+00 -3.577282437E+00  1.203274428E+01  1.737759082E-07  0.00000E+00  9.000E+00
      21     1     1     2   516   513  8.102517264E+00 -4.506705533E+00 -5.361521346E+00  1.071013968E+01  5.960464478E-08  0.00000E+00  9.000E+00
      21     1     1     2   515   516  3.340170855E+00  3.479634945E+00 -4.631770228E+01  4.656816665E+01  0.000000000E+00  0.00000E+00  9.000E+00
</event>
<event>
      5  10001  2.40292E+09  9.62530E+00 -1.00000E+00  1.97635E-01
      21    -1     0     0   512   511  0.000000000E+00  0.000000000E+00  5.560474776E+01  5.560474776E+01  0.000000000E+00  0.00000E+00  9.000E+00
      21    -1     0     0   515   517  0.000000000E+00  0.000000000E+00 -4.050541924E+01  4.050541924E+01  0.000000000E+00  0.00000E+00  9.000E+00
      21     1     1     2   512   517  8.709624758E+00 -1.171873945E+01 -3.121614716E+01  3.446206989E+01  5.840038640E-07  0.00000E+00  9.000E+00
      21     1     1     2   515   514  1.409858075E-01  7.935467884E+00 -5.037783502E+00  9.400573927E+00  2.980232239E-07  0.00000E+00  9.000E+00
      21     1     1     2   514   511 -8.850610566E+00  3.783271570E+00  5.135325918E+01  5.224752319E+01  6.743495762E-07  0.00000E+00  9.000E+00
</event>
<event>
      5  10001  2.40292E+09  8.27512E+00 -1.00000E+00  2.05704E-01
      21    -1     0     0   513   512  0.000000000E+00  0.000000000E+00  2.044882110E+01  2.044882110E+01  0.000000000E+00  0.00000E+00  9.000E+00
       1    -1     0     0   514     0  0.000000000E+00  0.000000000E+00 -2.359413775E+02  2.359413775E+02  0.000000000E+00  0.00000E+00  9.000E+00
      21     1     1     2   514   511  1.027639623E+01 -6.399385720E+00  9.696375146E+00  1.551051734E+01  2.665600750E-07  0.00000E+00  9.000E+00
       1     1     1     2   513     0 -1.538266531E+01 -1.123644631E-01 -2.305220188E+02  2.310349520E+02  3.300000131E-01  0.00000E+00  9.000E+00
      21     1     1     2   511   512  5.106269073E+00  6.511750184E+00  5.333087223E+00  9.844729231E+00  5.960464478E-08  0.00000E+00  9.000E+00
</event>
<event>
      5  10001  2.40292E+09  3.49834E+00 -1.00000E+00  2.77861E-01
      21    -1     0     0   515   514  0.000000000E+00  0.000000000E+00  3.343674335E+01  3.343674335E+01  0.000000000E+00  0.00000E+00  9.000E+00
      21    -1     0     0   511   512  0.000000000E+00  0.000000000E+00 -6.400206113E+00  6.400206113E+00  0.000000000E+00  0.00000E+00  9.000E+00
      21     1     1     2   515   512 -1.222111260E+01 -4.315536069E+00  2.269002764E+01  2.613076346E+01  3.371747881E-07  0.00000E+00  9.000E+00
      21     1     1     2   511   513  7.513827344E-01  4.839784017E-01  1.519821314E-01  9.065923423E-01  1.569492700E-08  0.00000E+00  9.000E+00
      21     1     1     2   513   514  1.146972986E+01  3.831557667E+00  4.194527463E+00  1.279959366E+01  1.576990671E-07  0.00000E+00  9.000E+00
</event>
<event>
      5  10001  2.40292E+09  4.69415E+00 -1.00000E+00  2.48006E-01
       1    -1     0     0   511     0  0.000000000E+00  0.000000000E+00  1.033344363E+03  1.033344363E+03  0.000000000E+00  0.00000E+00  9.000E+00
      21    -1     0     0   512   516  0.000000000E+00  0.000000000E+00 -3.902095360E+00  3.902095360E+00  0.000000000E+00  0.00000E+00  9.000E+00
      21     1     1     2   511   516 -4.094524245E+00 -1.041094842E+01  3.397396488E+02  3.399237884E+02  8.529922400E-06  0.00000E+00  9.000E+00
       1     1     1     2   513     0 -5.995807211E-01  1.041312601E+01  6.920123879E+02  6.920910681E+02  3.300000131E-01  0.00000E+00  9.000E+00
      21     1     1     2   512   513  4.694104966E+00 -2.177589257E-03 -2.309768926E+00  5.231601921E+00  7.115206949E-07  0.00000E+00  9.000E+00
</event>
<event>
      5  10001  2.40292E+09  1.30853E+01 -1.00000E+00  1.83108E-01
      21    -1     0     0   514   513  0.000000000E+00  0.000000000E+00  1.291627953E+01  1.291627953E+01  0.000000000E+00  0.00000E+00  9.000E+00
      21    -1     0     0   512   515  0.000000000E+00  0.000000000E+00 -1.872249566E+01  1.872249566E+01  0.000000000E+00  0.00000E+00  9.000E+00
      21     1     1     2   514   515 -6.100422129E+00  9.876311267E+00 -5.381343109E+00  1.279513689E+01  1.884864366E-07  0.00000E+00  9.000E+00
      21     1     1     2   511   513  3.787664781E+00 -8.791017787E+00 -6.954592366E+00  1.183193785E+01  2.064765462E-07  0.00000E+00  9.000E+00
      21     1     1     2   512   511  2.312757348E+00 -1.085293480E+00  6.529719344E+00  7.011700450E+00  0.000000000E+00  0.00000E+00  9.000E+00
</event>
<event>
      5  10001  2.40292E+09  6.22120E+00 -1.00000E+00  2.22981E-01
      21    -1     0     0   512   511  0.000000000E+00  0.000000000E+00  8.368708775E+00  8.368708775E+00  0.000000000E+00  0.00000E+00  9.000E+00
       2    -1     0     0   513     0  0.000000000E+00  0.000000000E+00 -4.026557097E+01  4.026557097E+01  0.000000000E+00  0.00000E+00  9.000E+00
      21     1     1     2   513   511  1.249208902E+01 -1.339059514E+00 -3.292624473E+01  3.524177862E+01  0.000000000E+00  0.00000E+00  9.000E+00
      21     1     1     2   512   514 -3.283159841E+00 -1.194188024E+00  1.549174023E+00  3.821670281E+00  1.095007245E-07  0.00000E+00  9.000E+00
       2     1     1     2   514     0 -9.208929179E+00  2.533247538E+00 -5.197914841E-01  9.570830837E+00  3.300000131E-01  0.00000E+00  9.000E+00
</event>
<event>
      5  10001  2.40292E+09  7.15025E+00 -1.00000E+00  2.14188E-01
      21    -1     0     0   511   513  0.000000000E+00  0.000000000E+00  1.577465148E+02  1.577465148E+02  0.000000000E+00  0.00000E+00  9.000E+00
      21    -1     0     0   516   515  0.000000000E+00  0.000000000E+00 -1.093893088E+02  1.093893088E+02  0.000000000E+00  0.00000E+00  9.000E+00
      21     1     1     2   517   513  6.815297814E+00  5.345666512E+00  1.060234631E+01  1.369066040E+01  7.444617746E-07  0.00000E+00  9.000E+00
      21     1     1     2   516   517 -1.306813441E+01 -1.877509489E+00 -1.073527378E+02  1.081615065E+02  1.907348633E-06  0.00000E+00  9.000E+00
      21     1     1     2   511   515  6.252836597E+00 -3.468157022E+00  1.451075974E+02  1.452836567E+02  1.907348633E-06  0.00000E+00  9.000E+00
</event>
<event>
      5  10001  2.40292E+09  4.27353E+00 -1.00000E+00  2.56777E-01
       2    -1     0     0   514     0  0.000000000E+00  0.000000000E+00  1.079310369E+02  1.079310369E+02  0.000000000E+00  0.00000E+00  9.000E+00
      21    -1     0     0   511   512  0.000000000E+00  0.000000000E+00 -9.462309526E+01  9.462309526E+01  0.000000000E+00  0.00000E+00  9.000E+00
      21     1     1     2   514   513  3.799217888E+00  7.906979015E+00 -7.648985561E+01  7.699124875E+01  2.336015456E-06  0.00000E+00  9.000E+00
       2     1     1     2   511     0 -5.745027190E-01 -1.085724670E+01  1.071337102E+02  1.076844957E+02  3.300000131E-01  0.00000E+00  9.000E+00
      21     1     1     2   513   512 -3.224715169E+00  2.950267685E+00 -1.733591297E+01  1.787838767E+01  0.000000000E+00  0.00000E+00  9.000E+00
</event>
<event>
      5  10001  2.40292E+09  1.30166E+01 -1.00000E+00  1.83339E-01
      21    -1     0     0   515   511  0.000000000E+00  0.000000000E+00  2.416539098E+02  2.416539098E+02  0.000000000E+00  0.00000E+00  9.000E+00
      21    -1     0     0   516   515  0.000000000E+00  0.000000000E+00 -4.720640727E+00  4.720640727E+00  0.000000000E+00  0.00000E+00  9.000E+00
      21     1     1     2   516   512 -5.005950449E+00  1.039608156E+01  3.555592883E+00  1.207395099E+01  5.280984982E-07  0.00000E+00  9.000E+00
      21     1     1     2   512   514  3.211579987E+00 -1.479993667E+01  1.434311681E+02  1.442284727E+02  2.697398305E-06  0.00000E+00  9.000E+00
      21     1     1     2   514   511  1.794370462E+00  4.403855115E+00  8.994650818E+01  9.007212687E+01  9.536743164E-07  0.00000E+00  9.000E+00
</event>
<event>
      5  10001  2.40292E+09  7.16723E+00 -1.00000E+00  2.14044E-01
      21    -1     0     0   513   512  0.000000000E+00  0.000000000E+00  7.311658164E+01  7.311658164E+01  0.000000000E+00  0.00000E+00  9.000E+00
      21    -1     0     0   511   513  0.000000000E+00  0.000000000E+00 -8.154148237E+01  8.154148237E+01  0.000000000E+00  0.00000E+00  9.000E+00
      21     1     1     2   517   514  1.387035953E+00  8.952459194E+00  6.604223596E+01  6.666068800E+01  9.536743164E-07  0.00000E+00  9.000E+00
      21     1     1     2   511   517 -3.650534968E+00 -1.575288376E+01 -7.824292497E+01  7.989640204E+01  1.907348633E-06  0.00000E+00  9.000E+00
      21     1     1     2   514   512  2.263499014E+00  6.800424567E+00  3.775788280E+00  8.100973967E+00  0.000000000E+00  0.00000E+00  9.000E+00
</event>
<event>
      5  10001  2.40292E+09  9.07718E+00 -1.00000E+00  2.00685E-01
      21    -1     0     0   515   511  0.000000000E+00  0.000000000E+00  1.897041741E+02  1.897041741E+02  0.000000000E+00  0.00000E+00  9.000E+00
      21    -1     0     0   514   512  0.000000000E+00  0.000000000E+00 -1.104082092E+00  1.104082092E+00  0.000000000E+00  0.00000E+00  9.000E+00
      21     1     1     2   515   512  7.367371941E-02 -8.766541791E+00  3.182405917E+01  3.300952022E+01  6.743495762E-07  0.00000E+00  9.000E+00
      21     1     1     2   513   511  2.411527188E+00  1.054232637E+01  1.497185957E+02  1.501086740E+02  3.303624740E-06  0.00000E+00  9.000E+00
      21     1     1     2   514   513 -2.485200908E+00 -1.775784575E+00  7.057437131E+00  7.690061981E+00  1.460009660E-07  0.00000E+00  9.000E+00
</event>
<event>
      5  10001  2.40292E+09  5.49310E+00 -1.00000E+00  2.31512E-01
      -4    -1     0     0     0   511  0.000000000E+00  0.000000000E+00  2.157965961E+00  2.157965961E+00  0.000000000E+00  0.00000E+00  9.000E+00
      21    -1     0     0   514   516  0.000000000E+00  0.000000000E+00 -5.469827329E+02  5.469827329E+02  0.000000000E+00  0.00000E+00  9.000E+00
      21     1     1     2   513   511  1.178802385E+01 -9.567806215E-01 -6.548072588E+01  6.654020136E+01  9.536743164E-07  0.00000E+00  9.000E+00
      21     1     1     2   514   513 -1.007688758E+01  6.172788742E+00 -4.756918322E+02  4.758385926E+02  1.206313194E-05  0.00000E+00  9.000E+00
      -4     1     1     2     0   516 -1.711136274E+00 -5.216008120E+00 -3.652208813E+00  6.761904855E+00  1.500000000E+00  0.00000E+00  9.000E+00
</event>
<event>
      5  10001  2.40292E+09  6.97427E+00 -1.00000E+00  2.15708E-01
       1    -1     0     0   513     0  0.000000000E+00  0.000000000E+00  2.053305536E+01  2.053305536E+01  0.000000000E+00  0.00000E+00  9.000E+00
      21    -1     0     0   515   513  0.000000000E+00  0.000000000E+00 -2.825198227E+01  2.825198227E+01  0.000000000E+00  0.00000E+00  9.000E+00
      21     1     1     2   515   511  3.848294584E+00  7.314749740E+00 -1.465464612E+01  1.682479087E+01  0.000000000E+00  0.00000E+00  9.000E+00
       1     1     1     2   512     0  6.159459017E-02 -1.006188714E+01  1.759908298E+01  2.027515693E+01  3.300000131E-01  0.00000E+00  9.000E+00
      21     1     1     2   511   512 -3.909889174E+00  2.747137401E+00 -1.066336377E+01  1.168508982E+01  1.685873940E-07  0.00000E+00  9.000E+00
</event>
<event>
      5  10001  2.40292E+09  5.56736E+00 -1.00000E+00  2.30559E-01
      21    -1     0     0   514   511  0.000000000E+00  0.000000000E+00  8.901776990E+02  8.901776990E+02  0.000000000E+00  0.00000E+00  9.000E+00
      21    -1     0     0   513   514  0.000000000E+00  0.000000000E+00 -1.240365528E+01  1.240365528E+01  0.000000000E+00  0.00000E+00  9.000E+00
      21     1     1     2   516   515 -3.039132711E+00  1.292388903E+01  3.541612898E+01  3.782281622E+01  2.739220927E-06  0.00000E+00  9.000E+00
      21     1     1     2   515   511  3.270042155E+00 -7.361315584E+00  8.528461852E+02  8.528842229E+02  0.000000000E+00  0.00000E+00  9.000E+00
      21     1     1     2   513   516 -2.309094435E-01 -5.562573445E+00 -1.048827045E+01  1.187431512E+01  4.768371582E-07  0.00000E+00  9.000E+00
</event>
<event>
      5  10001  2.40292E+09  5.91132E+00 -1.00000E+00  2.26402E-01
      21    -1     0     0   512   511  0.000000000E+00  0.000000000E+00  4.355628752E+01  4.355628752E+01  0.000000000E+00  0.00000E+00  9.000E+00
       1    -1     0     0   513     0  0.000000000E+00  0.000000000E+00 -2.324729292E+01  2.324729292E+01  0.000000000E+00  0.00000E+00  9.000E+00
      21     1     1     2   513   511 -2.597755706E+00 -1.835433184E+01  3.625745636E+01  4.072140683E+01  8.259061849E-07  0.00000E+00  9.000E+00
       1     1     1     2   514     0  1.886999334E-01  1.024499847E+01 -1.408289437E+01  1.741931156E+01  3.300000131E-01  0.00000E+00  9.000E+00
      21     1     1     2   512   514  2.409055773E+00  8.109333366E+00 -1.865567395E+00  8.662862060E+00  2.075491589E-07  0.00000E+00  9.000E+00
</event>
<event>
      5  10001  2.40292E+09  1.01024E+01 -1.00000E+00  1.95189E-01
       2    -1     0     0   514     0  0.000000000E+00  0.000000000E+00  3.784235185E+02  3.784235185E+02  0.000000000E+00  0.00000E+00  9.000E+00
       1    -1     0     0   511     0  0.000000000E+00  0.000000000E+00 -1.461966756E+02  1.461966756E+02  0.000000000E+00  0.00000E+00  9.000E+00
      21     1     1     2   514   515 -2.464853558E+01  1.158686884E+01  5.393723221E+01  6.042376068E+01  6.743495762E-07  0.00000E+00  9.000E+00
       1     1     1     2   515     0  3.345276726E+01 -1.654106584E+01 -1.404361637E+02  1.453104245E+02  3.300000131E-01  0.00000E+00  9.000E+00
       2     1     1     2   511     0 -8.804231672E+00  4.954196998E+00  3.187257744E+02  3.188860090E+02  3.300000131E-01  0.00000E+00  9.000E+00
</event>
<event>
      5  10001  2.40292E+09  2.25025E+01 -1.00000E+00  1.62213E-01
       2    -1     0     0   512     0  0.000000000E+00  0.000000000E+00  1.084370369E+02  1.084370369E+02  0.000000000E+00  0.00000E+00  9.000E+00
      21    -1     0     0   511   513  0.000000000E+00  0.000000000E+00 -2.541773118E+01  2.541773118E+01  0.000000000E+00  0.00000E+00  9.000E+00
      21     1     1     2   512   513 -2.409783334E+01  7.654410698E+00 -1.609079502E-01  2.528480702E+01  3.757745214E-08  0.00000E+00  9.000E+00
      21     1     1     2   511   515  2.572211666E+01  1.478914405E+01  8.931737700E+00  3.098583556E+01  6.078504936E-07  0.00000E+00  9.000E+00
       2     1     1     2   515     0 -1.624283323E+00 -2.244355475E+01  7.424847594E+01  7.758412547E+01  3.300000131E-01  0.00000E+00  9.000E+00
</event>
<event>
      5  10001  2.40292E+09  1.92913E+01 -1.00000E+00  1.67630E-01
      21    -1     0     0   514   511  0.000000000E+00  0.000000000E+00  2.004315486E+02  2.004315486E+02  0.000000000E+00  0.00000E+00  9.000E+00
      21    -1     0     0   517   516  0.000000000E+00  0.000000000E+00 -3.708505966E+00  3.708505966E+00  0.000000000E+00  0.00000E+00  9.000E+00
      21     1     1     2   514   516 -5.654349051E+00  3.771464007E+00  1.299461352E+02  1.301237628E+02  1.907348633E-06  0.00000E+00  9.000E+00
      21     1     1     2   517   512  2.432202921E+00 -8.402068510E-01 -3.085795866E+00  4.017921692E+00  6.650660516E-07  0.00000E+00  9.000E+00
      21     1     1     2   512   511  3.222146130E+00 -2.931257156E+00  6.986270337E+01  6.999837010E+01  9.536743164E-07  0.00000E+00  9.000E+00
</event>
<event>
      5  10001  2.40292E+09  5.75799E+00 -1.00000E+00  2.28205E-01
       2    -1     0     0   513     0  0.000000000E+00  0.000000000E+00  1.349647832E+02  1.349647832E+02  0.000000000E+00  0.00000E+00  9.000E+00
      21    -1     0     0   511   513  0.000000000E+00  0.000000000E+00 -3.101143873E+02  3.101143873E+02  0.000000000E+00  0.00000E+00  9.000E+00
      21     1     1     2   511   515  1.373971875E+01  5.870459091E+00 -2.619428157E+02  2.623685973E+02  0.000000000E+00  0.00000E+00  9.000E+00
      21     1     1     2   515   516 -7.981802109E+00 -5.842268880E+00 -4.738604528E+01  4.840742255E+01  1.348699152E-06  0.00000E+00  9.000E+00
       2     1     1     2   516     0 -5.757916640E+00 -2.819021158E-02  1.341792568E+02  1.343031506E+02  3.300000131E-01  0.00000E+00  9.000E+00
</event>
<event>
      5  10001  2.40292E+09  5.92949E+00 -1.00000E+00  2.26193E-01
      -4    -1     0     0     0   511  0.000000000E+00  0.000000000E+00  3.383193865E+02  3.383193865E+02  0.000000000E+00  0.00000E+00  9.000E+00
      21    -1     0     0   514   512  0.000000000E+00  0.000000000E+00 -1.397056625E+01  1.397056625E+01  0.000000000E+00  0.00000E+00  9.000E+00
      21     1     1     2   517   511 -6.485201588E+00  1.211960661E+01  1.785418674E+01  2.253252512E+01  0.000000000E+00  0.00000E+00  9.000E+00
      21     1     1     2   514   517  7.035451570E+00 -6.216462087E+00 -9.702517715E+00  1.350114179E+01  2.384185791E-07  0.00000E+00  9.000E+00
      -4     1     1     2     0   512 -5.502499823E-01 -5.903144524E+00  3.161971512E+02  3.162562858E+02  1.500000000E+00  0.00000E+00  9.000E+00
</event>
<event>
      5  10001  2.40292E+09  1.04638E+01 -1.00000E+00  1.93451E-01
      21    -1     0     0   513   511  0.000000000E+00  0.000000000E+00  9.053716064E+01  9.053716064E+01  0.000000000E+00  0.00000E+00  9.000E+00
      21    -1     0     0   515   513  0.000000000E+00  0.000000000E+00 -4.202049172E+00  4.202049172E+00  0.000000000E+00  0.00000E+00  9.000E+00
      21     1     1     2   515   512 -3.017279268E+00  1.220020225E+01  8.932608167E+00  1.541883257E+01  1.685873940E-07  0.00000E+00  9.000E+00
      -1     1     1     2     0   511 -1.626088665E+00 -4.276176240E+00  5.374721716E+01  5.394258151E+01  3.300000131E-01  0.00000E+00  9.000E+00
       1     1     1     2   512     0  4.643367933E+00 -7.924026008E+00  2.365528614E+01  2.537779574E+01  3.300000131E-01  0.00000E+00  9.000E+00
</event>
<event>
      5  10001  2.40292E+09  4.97102E+00 -1.00000E+00  2.42955E-01
      21    -1     0     0   513   511  0.000000000E+00  0.000000000E+00  3.662062667E+01  3.662062667E+01  0.000000000E+00  0.00000E+00  9.000E+00
      21    -1     0     0   516   514  0.000000000E+00  0.000000000E+00 -1.731680357E+02  1.731680357E+02  0.000000000E+00  0.00000E+00  9.000E+00
      21     1     1     2   517   511  1.030821487E+01  1.282209332E+01  3.269649394E+01  3.660226888E+01  1.168007728E-06  0.00000E+00  9.000E+00
      21     1     1     2   516   517 -6.422095335E+00 -1.592194521E+01 -1.667378733E+02  1.676194202E+02  0.000000000E+00  0.00000E+00  9.000E+00
      21     1     1     2   513   514 -3.886119533E+00  3.099851888E+00 -2.506029711E+00  5.566973295E+00  8.429369702E-08  0.00000E+00  9.000E+00
</event>
<event>
      5  10001  2.40292E+09  1.58591E+01 -1.00000E+00  1.75089E-01
      21    -1     0     0   512   514  0.000000000E+00  0.000000000E+00  3.479207535E+00  3.479207535E+00  0.000000000E+00  0.00000E+00  9.000E+00
      21    -1     0     0   511   515  0.000000000E+00  0.000000000E+00 -3.495062988E+01  3.495062988E+01  0.000000000E+00  0.00000E+00  9.000E+00
      21     1     1     2   512   515 -4.468694764E+00 -5.511575775E+00 -7.486880116E+00  1.031504117E+01  8.429369702E-08  0.00000E+00  9.000E+00
      21     1     1     2   511   516  8.201488938E-01 -1.645107617E+00 -1.800994483E+01  1.810351170E+01  3.371747881E-07  0.00000E+00  9.000E+00
      21     1     1     2   516   514  3.648545870E+00  7.156683392E+00 -5.974597404E+00  1.001128455E+01  8.429369702E-08  0.00000E+00  9.000E+00
</event>
<event>
      5  10001  2.40292E+09  8.40536E+00 -1.00000E+00  2.04839E-01
       2    -1     0     0   511     0  0.000000000E+00  0.000000000E+00  6.797178843E+02  6.797178843E+02  0.000000000E+00  0.00000E+00  9.000E+00
      21    -1     0     0   513   512  0.000000000E+00  0.000000000E+00 -3.144856167E+00  3.144856167E+00  0.000000000E+00  0.00000E+00  9.000E+00
      21     1     1     2   511   516 -5.031655690E+00  5.455999158E+00  2.575179596E+01  2.680000897E+01  1.066240300E-06  0.00000E+00  9.000E+00
       2     1     1     2   513     0  1.334337497E+01 -4.205545805E+00  6.464263888E+02  6.465778509E+02  3.300000131E-01  0.00000E+00  9.000E+00
      21     1     1     2   516   512 -8.311719284E+00 -1.250453353E+00  4.394843365E+00  9.484880561E+00  7.468440584E-07  0.00000E+00  9.000E+00
</event>
<event>
      5  10001  2.40292E+09  4.34077E+01 -1.00000E+00  1.42642E-01
      21    -1     0     0   513   515  0.000000000E+00  0.000000000E+00  2.008897312E+02  2.008897312E+02  0.000000000E+00  0.00000E+00  9.000E+00
       1    -1     0     0   515     0  0.000000000E+00  0.000000000E+00 -2.959079607E+01  2.959079607E+01  0.000000000E+00  0.00000E+00  9.000E+00
      21     1     1     2   513   514 -8.707417597E+00  6.983808994E+00  1.988211703E+02  1.991342523E+02  2.697398305E-06  0.00000E+00  9.000E+00
      21     1     1     2   514   511 -6.493032046E-01 -2.151300025E+00 -4.441984387E-01  2.290632817E+00  4.942156062E-08  0.00000E+00  9.000E+00
       1     1     1     2   511     0  9.356720801E+00 -4.832508969E+00 -2.707803670E+01  2.905564211E+01  3.300000131E-01  0.00000E+00  9.000E+00
</event>
<event>
      5  10001  2.40292E+09  8.36998E+00 -1.00000E+00  2.05072E-01
      21    -1     0     0   513   512  0.000000000E+00  0.000000000E+00  9.286737320E+01  9.286737320E+01  0.000000000E+00  0.00000E+00  9.000E+00
       1    -1     0     0   514     0  0.000000000E+00  0.000000000E+00 -3.197037282E+01  3.197037282E+01  0.000000000E+00  0.00000E+00  9.000E+00
      21     1     1     2   514   512 -1.946364395E+01  1.247184043E+01  6.090221127E+00  2.390546032E+01  5.127385418E-07  0.00000E+00  9.000E+00
       1     1     1     2   511     0  1.683359043E+01 -2.041776784E+01 -1.513828205E+01  3.048821893E+01  3.300000131E-01  0.00000E+00  9.000E+00
      21     1     1     2   513   511  2.630053529E+00  7.945927406E+00  6.994506130E+01  7.044406677E+01  0.000000000E+00  0.00000E+00  9.000E+00
</event>
<event>
      5  10001  2.40292E+09  4.02261E+00 -1.00000E+00  2.62787E-01
      21    -1     0     0   514   511  0.000000000E+00  0.000000000E+00  9.674270337E+00  9.674270337E+00  0.000000000E+00  0.00000E+00  9.000E+00
      -4    -1     0     0     0   515  0.000000000E+00  0.000000000E+00 -3.549221063E+01  3.549221063E+01  0.000000000E+00  0.00000E+00  9.000E+00
      -4     1     1     2     0   512 -1.172230564E+01  5.994794267E+00 -2.372398948E+01  2.717402592E+01  1.500000000E+00  0.00000E+00  9.000E+00
      21     1     1     2   514   515  1.162475070E+01 -3.872991896E+00  2.877471553E+00  1.258629166E+01  2.763753681E-07  0.00000E+00  9.000E+00
      21     1     1     2   512   511  9.755493754E-02 -2.121802371E+00 -4.971422371E+00  5.406163395E+00  1.192092896E-07  0.00000E+00  9.000E+00
</event>
<event>
      5  10001  2.40292E+09  1.22600E+01 -1.00000E+00  1.86002E-01
      21    -1     0     0   512   511  0.000000000E+00  0.000000000E+00  6.792218885E+00  6.792218885E+00  0.000000000E+00  0.00000E+00  9.000E+00
       1    -1     0     0   511     0  0.000000000E+00  0.000000000E+00 -4.207013599E+02  4.207013599E+02  0.000000000E+00  0.00000E+00  9.000E+00
      21     1     1     2   512   513 -1.102964342E+01 -1.300246366E+00  1.925129491E+00  1.127163688E+01  1.976862425E-07  0.00000E+00  9.000E+00
       1     1     1     2   514     0  9.795868390E+00  6.745123017E+00 -2.343780214E+02  2.346798278E+02  3.300000131E-01  0.00000E+00  9.000E+00
      21     1     1     2   513   514  1.233775026E+00 -5.444876652E+00 -1.814562490E+02  1.815421141E+02  0.000000000E+00  0.00000E+00  9.000E+00
</event>
<event>
      5  10001  2.40292E+09  6.60073E+00 -1.00000E+00  2.19149E-01
      21    -1     0     0   515   512  0.000000000E+00  0.000000000E+00  2.658093153E+00  2.658093153E+00  0.000000000E+00  0.00000E+00  9.000E+00
      21    -1     0     0   511   515  0.000000000E+00  0.000000000E+00 -1.072393913E+03  1.072393913E+03  0.000000000E+00  0.00000E+00  9.000E+00
      21     1     1     2   511   516 -1.732516308E+01  4.810782828E+00 -9.086780594E+02  9.088559405E+02  0.000000000E+00  0.00000E+00  9.000E+00
      21     1     1     2   516   513  1.208369583E+01 -7.987217349E-01 -1.587384619E+02  1.591997266E+02  6.877043296E-06  0.00000E+00  9.000E+00
      21     1     1     2   513   512  5.241467253E+00 -4.012061093E+00 -2.319298376E+00  6.996338909E+00  6.063875541E-07  0.00000E+00  9.000E+00
</event>
<event>
      5  10001  2.40292E+09  6.03254E+00 -1.00000E+00  2.25029E-01
      21    -1     0     0   514   516  0.000000000E+00  0.000000000E+00  4.464104553E+00  4.464104553E+00  0.000000000E+00  0.00000E+00  9.000E+00
      21    -1     0     0   511   512  0.000000000E+00  0.000000000E+00 -4.865599870E+01  4.865599870E+01  0.000000000E+00  0.00000E+00  9.000E+00
      21     1     1     2   514   512 -8.256231351E+00  7.319398661E+00 -9.528053525E+00  1.457816027E+01  0.000000000E+00  0.00000E+00  9.000E+00
      21     1     1     2   515   516  8.318853063E+00 -8.873116499E+00 -3.490950664E+01  3.696767732E+01  4.768371582E-07  0.00000E+00  9.000E+00
      21     1     1     2   511   515 -6.262171218E-02  1.553717838E+00  2.456660122E-01  1.574265667E+00  5.686408848E-08  0.00000E+00  9.000E+00
</event>
<event>
      5  10001  2.40292E+09  8.14257E+00 -1.00000E+00  2.06607E-01
       1    -1     0     0   512     0  0.000000000E+00  0.000000000E+00  3.913434124E+02  3.913434124E+02  0.000000000E+00  0.00000E+00  9.000E+00
      21    -1     0     0   515   514  0.000000000E+00  0.000000000E+00 -1.395695689E+01  1.395695689E+01  0.000000000E+00  0.00000E+00  9.000E+00
      21     1     1     2   515   513 -6.900269445E-01  8.321047540E+00 -8.125426537E+00  1.165068778E+01  6.307962682E-07  0.00000E+00  9.000E+00
       1     1     1     2   513     0 -2.345758477E+00 -1.587649457E+01  3.851654324E+02  3.854997858E+02  3.300000131E-01  0.00000E+00  9.000E+00
      21     1     1     2   512   514  3.035785421E+00  7.555447030E+00  3.464496921E-01  8.149895726E+00  1.595363997E-07  0.00000E+00  9.000E+00
</event>
<event>
      5  10001  2.40292E+09  3.76504E+01 -1.00000E+00  1.46458E-01
      21    -1     0     0   511   513  0.000000000E+00  0.000000000E+00  5.745748951E+01  5.745748951E+01  0.000000000E+00  0.00000E+00  9.000E+00
      21    -1     0     0   515   516  0.000000000E+00  0.000000000E+00 -2.314899401E+01  2.314899401E+01  0.000000000E+00  0.00000E+00  9.000E+00
      21     1     1     2   511   516 -8.481611524E+00  1.904313258E-01  3.796070067E+01  3.889715662E+01  6.743495762E-07  0.00000E+00  9.000E+00
      21     1     1     2   515   517  9.380094300E+00  1.956210260E+01 -3.213903496E+00  2.193151164E+01  2.795705652E-07  0.00000E+00  9.000E+00
      21     1     1     2   517   513 -8.984827758E-01 -1.975253393E+01 -4.383016662E-01  1.977781525E+01  5.736221308E-07  0.00000E+00  9.000E+00
</event>
<event>
      5  10001  2.40292E+09  2.08936E+00 -1.00000E+00  3.54236E-01
      -1    -1     0     0     0   512  0.000000000E+00  0.000000000E+00  2.841772971E+00  2.841772971E+00  0.000000000E+00  0.00000E+00  9.000E+00
      21    -1     0     0   511   514  0.000000000E+00  0.000000000E+00 -4.896909726E+01  4.896909726E+01  0.000000000E+00  0.00000E+00  9.000E+00
      -1     1     1     2     0   513 -8.098883724E+00  6.735304918E+00 -2.011469099E+01  2.270827919E+01  3.300000131E-01  0.00000E+00  9.000E+00
      21     1     1     2   511   512  9.497747239E+00 -5.183953070E+00 -2.003054349E+01  2.276627428E+01  2.384185791E-07  0.00000E+00  9.000E+00
      21     1     1     2   513   514 -1.398863514E+00 -1.551351848E+00 -5.982089804E+00  6.336316762E+00  8.429369702E-08  0.00000E+00  9.000E+00
</event>
<event>
      5  10001  2.40292E+09  6.30431E+00 -1.00000E+00  2.22110E-01
      21    -1     0     0   515   512  0.000000000E+00  0.000000000E+00  1.576258006E+01  1.576258006E+01  0.000000000E+00  0.00000E+00  9.000E+00
      21    -1     0     0   516   515  0.000000000E+00  0.000000000E+00 -7.059608147E+01  7.059608147E+01  0.000000000E+00  0.00000E+00  9.000E+00
      21     1     1     2   511   512  8.544103422E+00 -6.205422920E+00  1.318391464E+01  1.689155358E+01  2.920019320E-07  0.00000E+00  9.000E+00
      21     1     1     2   516   517 -4.770061574E+00  8.466805982E+00 -4.682284782E+01  4.782070022E+01  6.743495762E-07  0.00000E+00  9.000E+00
      21     1     1     2   517   511 -3.774041848E+00 -2.261383063E+00 -2.119456823E+01  2.164640773E+01  2.384185791E-07  0.00000E+00  9.000E+00
</event>
<event>
      5  10001  2.40292E+09  2.86812E+01 -1.00000E+00  1.54373E-01
      -4    -1     0     0     0   511  0.000000000E+00  0.000000000E+00  5.391012069E+01  5.391012069E+01  0.000000000E+00  0.00000E+00  9.000E+00
      21    -1     0     0   511   513  0.000000000E+00  0.000000000E+00 -1.176978453E+01  1.176978453E+01  0.000000000E+00  0.00000E+00  9.000E+00
      -4     1     1     2     0   514  1.030401855E+01  1.073362612E+00  4.553526345E+01  4.672296142E+01  1.500000000E+00  0.00000E+00  9.000E+00
      21     1     1     2   514   512 -6.178006680E+00  7.130772817E-01  5.937278496E+00  8.598111519E+00  0.000000000E+00  0.00000E+00  9.000E+00
      21     1     1     2   512   513 -4.126011874E+00 -1.786439894E+00 -9.332205786E+00  1.035883229E+01  3.153981341E-07  0.00000E+00  9.000E+00
</event>
<event>
      5  10001  2.40292E+09  3.94022E+00 -1.00000E+00  2.64911E-01
      21    -1     0     0   512   511  0.000000000E+00  0.000000000E+00  1.634064858E+00  1.634064858E+00  0.000000000E+00  0.00000E+00  9.000E+00
       1    -1     0     0   514     0  0.000000000E+00  0.000000000E+00 -3.719134806E+02  3.719134806E+02  0.000000000E+00  0.00000E+00  9.000E+00
      21     1     1     2   514   511 -1.270956776E+01  2.389304718E+00 -2.656604307E+01  2.954651476E+01  1.066240300E-06  0.00000E+00  9.000E+00
       1     1     1     2   515     0  7.201927099E+00  3.822247755E-01 -2.367902145E+02  2.369002500E+02  3.300000131E-01  0.00000E+00  9.000E+00
      21     1     1     2   512   515  5.507640665E+00 -2.771529493E+00 -1.069231581E+02  1.071007807E+02  1.348699152E-06  0.00000E+00  9.000E+00
</event>
<event>
      5  10001  2.40292E+09  1.52411E+01 -1.00000E+00  1.76687E-01
      21    -1     0     0   513   514  0.000000000E+00  0.000000000E+00  5.872932863E+00  5.872932863E+00  0.000000000E+00  0.00000E+00  9.000E+00
      21    -1     0     0   516   513  0.000000000E+00  0.000000000E+00 -1.485737185E+02  1.485737185E+02  0.000000000E+00  0.00000E+00  9.000E+00
      21     1     1     2   515   514  4.801481184E+00  2.361296086E+01 -3.736138850E+01  4.445783950E+01  4.768371582E-07  0.00000E+00  9.000E+00
      21     1     1     2   511   515  8.167771670E-01 -1.487154171E+01 -9.138343200E+01  9.258920845E+01  0.000000000E+00  0.00000E+00  9.000E+00
      21     1     1     2   516   511 -5.618258352E+00 -8.741419150E+00 -1.395596508E+01  1.739960336E+01  2.384185791E-07  0.00000E+00  9.000E+00
</event>
<event>
      5  10001  2.40292E+09  2.34230E+01 -1.00000E+00  1.60861E-01
      21    -1     0     0   512   511  0.000000000E+00  0.000000000E+00  1.761562807E+00  1.761562807E+00  0.000000000E+00  0.00000E+00  9.000E+00
      21    -1     0     0   514   517  0.000000000E+00  0.000000000E+00 -2.974867025E+02  2.974867025E+02  0.000000000E+00  0.00000E+00  9.000E+00
      21     1     1     2   512   517 -1.088882504E+01 -1.043154099E+01 -9.123784251E+01  9.247555063E+01  1.348699152E-06  0.00000E+00  9.000E+00
      21     1     1     2   513   511  1.589894094E+01  8.470832354E-01 -6.721119520E+01  6.907125765E+01  2.132480600E-06  0.00000E+00  9.000E+00
      21     1     1     2   514   513 -5.010115900E+00  9.584457756E+00 -1.372761020E+02  1.377014570E+02  1.907348633E-06  0.00000E+00  9.000E+00
</event>
<event>
      5  10001  2.40292E+09  1.62719E+00 -1.00000E+00  4.10526E-01
       2    -1     0     0   512     0  0.000000000E+00  0.000000000E+00  7.159985193E+02  7.159985193E+02  0.000000000E+00  0.00000E+00  9.000E+00
      -4    -1     0     0     0   515  0.000000000E+00  0.000000000E+00 -5.762305171E+00  5.762305171E+00  0.000000000E+00  0.00000E+00  9.000E+00
      -4     1     1     2     0   511  5.465750526E+00  1.425454931E+01  8.865696909E+01  8.997430062E+01  1.500000000E+00  0.00000E+00  9.000E+00
       2     1     1     2   511     0 -6.784214564E+00 -1.330252988E+01  6.264620198E+02  6.266400514E+02  3.300000131E-01  0.00000E+00  9.000E+00
      21     1     1     2   512   515  1.318464038E+00 -9.520194238E-01 -4.882774803E+00  5.146472402E+00  5.495276724E-07  0.00000E+00  9.000E+00
</event>
<event>
      5  10001  2.40292E+09  1.29512E+01 -1.00000E+00  1.83560E-01
      21    -1     0     0   513   511  0.000000000E+00  0.000000000E+00  1.460228528E+02  1.460228528E+02  0.000000000E+00  0.00000E+00  9.000E+00
      21    -1     0     0   516   514  0.000000000E+00  0.000000000E+00 -1.197832031E+01  1.197832031E+01  0.000000000E+00  0.00000E+00  9.000E+00
      21     1     1     2   513   514 -2.111320087E+00 -1.405426080E+01  1.236739896E+02  1.244878934E+02  0.000000000E+00  0.00000E+00  9.000E+00
      21     1     1     2   516   517  1.005735061E+01  1.475014950E+01 -2.844234609E+00  1.807780081E+01  3.068336886E-07  0.00000E+00  9.000E+00
      21     1     1     2   517   511 -7.946030523E+00 -6.958887017E-01  1.321477755E+01  1.543547887E+01  2.384185791E-07  0.00000E+00  9.000E+00
</event>
<event>
      5  10001  2.40292E+09  5.26999E+00 -1.00000E+00  2.34508E-01
      21    -1     0     0   512   514  0.000000000E+00  0.000000000E+00  1.927177146E+01  1.927177146E+01  0.000000000E+00  0.00000E+00  9.000E+00
      21    -1     0     0   515   511  0.000000000E+00  0.000000000E+00 -7.526625417E+00  7.526625417E+00  0.000000000E+00  0.00000E+00  9.000E+00
      21     1     1     2   512   511  1.081213498E+01  3.766552086E+00  3.697409783E+00  1.203162568E+01  7.300048300E-08  0.00000E+00  9.000E+00
      -3     1     1     2     0   514 -5.281655528E+00 -4.044522144E-01  1.458340698E+00  5.516903507E+00  5.000000000E-01  0.00000E+00  9.000E+00
       3     1     1     2   515     0 -5.530479447E+00 -3.362099872E+00  6.589395564E+00  9.249867694E+00  5.000000000E-01  0.00000E+00  9.000E+00
</event>
<event>
      5  10001  2.40292E+09  1.77945E+01 -1.00000E+00  1.70624E-01
      21    -1     0     0   513   514  0.000000000E+00  0.000000000E+00  2.903538622E+00  2.903538622E+00  0.000000000E+00  0.00000E+00  9.000E+00
      21    -1     0     0   515   513  0.000000000E+00  0.000000000E+00 -1.158608861E+02  1.158608861E+02  0.000000000E+00  0.00000E+00  9.000E+00
      21     1     1     2   516   514 -2.036602757E+00 -9.070777918E+00 -6.488375657E+00  1.133692116E+01  1.192092896E-07  0.00000E+00  9.000E+00
      21     1     1     2   515   511  3.371331918E+00  4.258798375E+00 -1.761768166E+01  1.843599603E+01  4.768371582E-07  0.00000E+00  9.000E+00
      21     1     1     2   511   516 -1.334729161E+00  4.811979543E+00 -8.885129014E+01  8.899150750E+01  9.536743164E-07  0.00000E+00  9.000E+00
</event>
<event>
      5  10001  2.40292E+09  7.86187E+00 -1.00000E+00  2.08598E-01
      21    -1     0     0   512   514  0.000000000E+00  0.000000000E+00  5.333317422E+01  5.333317422E+01  0.000000000E+00  0.00000E+00  9.000E+00
      21    -1     0     0   517   512  0.000000000E+00  0.000000000E+00 -2.049903858E+01  2.049903858E+01  0.000000000E+00  0.00000E+00  9.000E+00
      21     1     1     2   517   516 -9.519632108E+00  2.683543714E+00 -1.776279374E+01  2.033080529E+01  4.768371582E-07  0.00000E+00  9.000E+00
       2     1     1     2   516     0  3.028599451E+00 -5.168429141E+00  4.207031121E+01  4.249594168E+01  3.300000131E-01  0.00000E+00  9.000E+00
      -2     1     1     2     0   514  6.491032657E+00  2.484885427E+00  8.526618180E+00  1.100546583E+01  3.300000131E-01  0.00000E+00  9.000E+00
</event>
<event>
      5  10001  2.40292E+09  3.85676E+01 -1.00000E+00  1.45797E-01
      21    -1     0     0   513   514  0.000000000E+00  0.000000000E+00  3.031235345E+02  3.031235345E+02  0.000000000E+00  0.00000E+00  9.000E+00
      -2    -1     0     0     0   511  0.000000000E+00  0.000000000E+00 -1.380756434E+01  1.380756434E+01  0.000000000E+00  0.00000E+00  9.000E+00
      -2     1     1     2     0   514  1.618709488E+01 -1.422494691E+01 -9.418446373E-01  2.157236951E+01  3.300000131E-01  0.00000E+00  9.000E+00
      21     1     1     2   513   512 -2.726988787E+01 -7.354448640E+00  1.962163985E+02  1.982387695E+02  2.697398305E-06  0.00000E+00  9.000E+00
      21     1     1     2   512   511  1.108279299E+01  2.157939555E+01  9.404141632E+01  9.711995983E+01  0.000000000E+00  0.00000E+00  9.000E+00
</event>
<event>
      5  10001  2.40292E+09  2.41578E+00 -1.00000E+00  3.28502E-01
      21    -1     0     0   512   515  0.000000000E+00  0.000000000E+00  5.328090672E+01  5.328090672E+01  0.000000000E+00  0.00000E+00  9.000E+00
       1    -1     0     0   514     0  0.000000000E+00  0.000000000E+00 -4.554290834E+00  4.554290834E+00  0.000000000E+00  0.00000E+00  9.000E+00
      21     1     1     2   513   515  1.302182708E+01 -8.709465314E-01  3.050611130E+01  3.318055688E+01  5.840038640E-07  0.00000E+00  9.000E+00
       1     1     1     2   512     0 -1.402696294E+01 -1.325487504E+00  1.451472882E+01  2.023113588E+01  3.300000131E-01  0.00000E+00  9.000E+00
      21     1     1     2   514   513  1.005135866E+00  2.196434035E+00  3.705775766E+00  4.423504788E+00  8.429369702E-08  0.00000E+00  9.000E+00
</event>
<event>
      5  10001  2.40292E+09  9.24953E+00 -1.00000E+00  1.99696E-01
       2    -1     0     0   514     0  0.000000000E+00  0.000000000E+00  5.994827060E+00  5.994827060E+00  0.000000000E+00  0.00000E+00  9.000E+00
      21    -1     0     0   511   512  0.000000000E+00  0.000000000E+00 -7.493683856E+01  7.493683856E+01  0.000000000E+00  0.00000E+00  9.000E+00
      21     1     1     2   514   512  3.424733258E+00 -1.631380866E+01 -5.498707779E+01  5.745822722E+01  6.743495762E-07  0.00000E+00  9.000E+00
      21     1     1     2   511   515 -5.750177242E+00  7.948538905E+00 -9.710003108E+00  1.380318693E+01  2.665600750E-07  0.00000E+00  9.000E+00
       2     1     1     2   515     0  2.325443984E+00  8.365269756E+00 -4.244930605E+00  9.670251479E+00  3.300000131E-01  0.00000E+00  9.000E+00
</event>
<event>
      5  10001  2.40292E+09  3.19265E+00 -1.00000E+00  2.88768E-01
      21    -1     0     0   513   511  0.000000000E+00  0.000000000E+00  1.667502234E+01  1.667502234E+01  0.000000000E+00  0.00000E+00  9.000E+00
      21    -1     0     0   516   513  0.000000000E+00  0.000000000E+00 -2.264113225E+01  2.264113225E+01  0.000000000E+00  0.00000E+00  9.000E+00
      21     1     1     2   516   517  1.344119826E-01  1.239690763E+01 -1.790361808E+01  2.177707339E+01  4.129530925E-07  0.00000E+00  9.000E+00
      -2     1     1     2     0   511  5.746175287E-01 -5.271704196E+00  7.195267451E+00  8.944373882E+00  3.300000131E-01  0.00000E+00  9.000E+00
       2     1     1     2   517     0 -7.090295113E-01 -7.125203430E+00  4.742240716E+00  8.594707312E+00  3.300000131E-01  0.00000E+00  9.000E+00
</event>
<event>
      5  10001  2.40292E+09  1.28229E+01 -1.00000E+00  1.83998E-01
      21    -1     0     0   512   516  0.000000000E+00  0.000000000E+00  1.058529902E+02  1.058529902E+02  0.000000000E+00  0.00000E+00  9.000E+00
      21    -1     0     0   515   514  0.000000000E+00  0.000000000E+00 -1.122853454E+03  1.122853454E+03  0.000000000E+00  0.00000E+00  9.000E+00
      21     1     1     2   512   514 -8.609811930E+00 -1.339258666E+01 -1.122012107E+03  1.122125064E+03  2.642899792E-05  0.00000E+00  9.000E+00
      -2     1     1     2     0   516  1.651749805E+00  8.287414002E+00  3.353568335E+01  3.458555286E+01  3.300000131E-01  0.00000E+00  9.000E+00
       2     1     1     2   515     0  6.958062125E+00  5.105172659E+00  7.147596006E+01  7.199582754E+01  3.300000131E-01  0.00000E+00  9.000E+00
</event>
<event>
      5  10001  2.40292E+09  5.45684E+00 -1.00000E+00  2.31985E-01
      21    -1     0     0   511   512  0.000000000E+00  0.000000000E+00  3.647232029E+00  3.647232029E+00  0.000000000E+00  0.00000E+00  9.000E+00
      21    -1     0     0   515   513  0.000000000E+00  0.000000000E+00 -4.910881588E+02  4.910881588E+02  0.000000000E+00  0.00000E+00  9.000E+00
      21     1     1     2   511   513  1.286615986E+01  4.843361766E+00 -4.596943895E+02  4.598999109E+02  9.344061824E-06  0.00000E+00  9.000E+00
      21     1     1     2   515   514 -1.367077341E+01  5.538369611E-01 -2.549122385E+01  2.893093974E+01  1.348699152E-06  0.00000E+00  9.000E+00
      21     1     1     2   514   512  8.046135497E-01 -5.397198727E+00 -2.255313390E+00  5.904540249E+00  8.429369702E-08  0.00000E+00  9.000E+00
</event>
<event>
      5  10001  2.40292E+09  4.64535E+00 -1.00000E+00  2.48951E-01
      21    -1     0     0   511   513  0.000000000E+00  0.000000000E+00  1.341434235E+01  1.341434235E+01  0.000000000E+00  0.00000E+00  9.000E+00
      21    -1     0     0   517   512  0.000000000E+00  0.000000000E+00 -4.181778487E+01  4.181778487E+01  0.000000000E+00  0.00000E+00  9.000E+00
      21     1     1     2   516   512  9.850898011E+00 -9.112093008E+00 -1.753991695E+01  2.208436364E+01  4.129530925E-07  0.00000E+00  9.000E+00
      21     1     1     2   517   513 -6.748097219E+00  5.654939024E+00 -2.057657232E+01  2.238102946E+01  2.384185791E-07  0.00000E+00  9.000E+00
      21     1     1     2   511   516 -3.102800793E+00  3.457153984E+00  9.713046751E+00  1.076673412E+01  2.384185791E-07  0.00000E+00  9.000E+00
</event>
<event>
      5  10001  2.40292E+09  6.95841E+00 -1.00000E+00  2.15848E-01
      21    -1     0     0   514   512  0.000000000E+00  0.000000000E+00  2.587539384E+01  2.587539384E+01  0.000000000E+00  0.00000E+00  9.000E+00
      21    -1     0     0   515   514  0.000000000E+00  0.000000000E+00 -5.853809644E+02  5.853809644E+02  0.000000000E+00  0.00000E+00  9.000E+00
      21     1     1     2   515   516  5.794745447E+00  9.884962840E+00 -5.801661906E+02  5.802793295E+02  0.000000000E+00  0.00000E+00  9.000E+00
      21     1     1     2   513   512 -1.562700902E+00 -4.117478185E+00  2.302531763E+01  2.344271556E+01  1.907348633E-06  0.00000E+00  9.000E+00
      21     1     1     2   516   513 -4.232044544E+00 -5.767484654E+00 -2.364697627E+00  7.534313182E+00  3.009887021E-07  0.00000E+00  9.000E+00
</event>
<event>
      5  10001  2.40292E+09  8.17022E+00 -1.00000E+00  2.06417E-01
      21    -1     0     0   511   514  0.000000000E+00  0.000000000E+00  1.418505185E+01  1.418505185E+01  0.000000000E+00  0.00000E+00  9.000E+00
       1    -1     0     0   513     0  0.000000000E+00  0.000000000E+00 -2.999349642E+02  2.999349642E+02  0.000000000E+00  0.00000E+00  9.000E+00
      21     1     1     2   513   512 -2.054848306E+01 -2.079146916E+00 -3.122942132E+01  3.744115068E+01  1.390207266E-06  0.00000E+00  9.000E+00
       1     1     1     2   511     0  1.237898604E+01  1.975057383E+00 -2.639240578E+02  2.642217957E+02  3.300000131E-01  0.00000E+00  9.000E+00
      21     1     1     2   512   514  8.169497018E+00  1.040895322E-01  9.403566777E+00  1.245706965E+01  4.129530925E-07  0.00000E+00  9.000E+00
</event>
<event>
      5  10001  2.40292E+09  7.52230E+00 -1.00000E+00  2.11161E-01
      21    -1     0     0   515   513  0.000000000E+00  0.000000000E+00  1.157649533E+01  1.157649533E+01  0.000000000E+00  0.00000E+00  9.000E+00
      21    -1     0     0   512   514  0.000000000E+00  0.000000000E+00 -1.985271069E+01  1.985271069E+01  0.000000000E+00  0.00000E+00  9.000E+00
      21     1     1     2   515   514  9.037037481E-01 -8.970912849E+00 -1.215580467E+01  1.513464717E+01  1.685873940E-07  0.00000E+00  9.000E+00
      21     1     1     2   511   513 -4.511723490E+00  7.159419100E+00  7.165902634E+00  1.108887241E+01  4.768371582E-07  0.00000E+00  9.000E+00
      21     1     1     2   512   511  3.608019742E+00  1.811493749E+00 -3.286313318E+00  5.205686437E+00  7.300048300E-08  0.00000E+00  9.000E+00
</event>
<event>
      5  10001  2.40292E+09  9.17566E+00 -1.00000E+00  2.00117E-01
      21    -1     0     0   516   511  0.000000000E+00  0.000000000E+00  1.780377084E+01  1.780377084E+01  0.000000000E+00  0.00000E+00  9.000E+00
      21    -1     0     0   512   516  0.000000000E+00  0.000000000E+00 -6.276780545E+00  6.276780545E+00  0.000000000E+00  0.00000E+00  9.000E+00
      21     1     1     2   512   517  7.958265421E+00  4.652534967E-01  1.764372521E+00  8.164769423E+00  2.980232239E-08  0.00000E+00  9.000E+00
      21     1     1     2   513   511 -3.084645376E+00 -5.746293922E-01  1.052403581E+01  1.098182889E+01  2.064765462E-07  0.00000E+00  9.000E+00
      21     1     1     2   517   513 -4.873620046E+00  1.093758955E-01 -7.614180413E-01  4.933953067E+00  6.989264130E-08  0.00000E+00  9.000E+00
</event>
<event>
      5  10001  2.40292E+09  1.36336E+01 -1.00000E+00  1.81333E-01
      21    -1     0     0   514   511  0.000000000E+00  0.000000000E+00  2.007940316E+02  2.007940316E+02  0.000000000E+00  0.00000E+00  9.000E+00
      21    -1     0     0   515   514  0.000000000E+00  0.000000000E+00 -1.098617198E+01  1.098617198E+01  0.000000000E+00  0.00000E+00  9.000E+00
      21     1     1     2   513   511 -4.327566768E+00  2.298827365E+01  1.628991199E+02  1.645700818E+02  2.697398305E-06  0.00000E+00  9.000E+00
      21     1     1     2   512   513 -3.421000543E+00 -2.148717678E+01  2.915743578E+00  2.195230218E+01  6.222907608E-07  0.00000E+00  9.000E+00
      21     1     1     2   515   512  7.748567311E+00 -1.501096872E+00  2.399299614E+01  2.525781960E+01  3.371747881E-07  0.00000E+00  9.000E+00
</event>
<event>
      5  10001  2.40292E+09  2.31052E+00 -1.00000E+00  3.35965E-01
      21    -1     0     0   516   511  0.000000000E+00  0.000000000E+00  5.651014957E+00  5.651014957E+00  0.000000000E+00  0.00000E+00  9.000E+00
      21    -1     0     0   515   516  0.000000000E+00  0.000000000E+00 -1.808003384E+01  1.808003384E+01  0.000000000E+00  0.00000E+00  9.000E+00
      21     1     1     2   515   517 -9.336956634E+00  2.908723879E+00 -6.472384395E+00  1.172736942E+01  1.685873940E-07  0.00000E+00  9.000E+00
      21     1     1     2   513   511  7.360766120E+00 -6.262662593E-01 -4.517207421E+00  8.658998221E+00  2.230201594E-07  0.00000E+00  9.000E+00
      21     1     1     2   517   513  1.976190515E+00 -2.282457619E+00 -1.439427063E+00  3.344681151E+00  6.322027277E-08  0.00000E+00  9.000E+00
</event>
<event>
      5  10001  2.40292E+09  4.34659E+00 -1.00000E+00  2.55146E-01
      21    -1     0     0   512   513  0.000000000E+00  0.000000000E+00  2.367157243E+01  2.367157243E+01  0.000000000E+00  0.00000E+00  9.000E+00
      21    -1     0     0   511   512  0.000000000E+00  0.000000000E+00 -4.150413621E+01  4.150413621E+01  0.000000000E+00  0.00000E+00  9.000E+00
      21     1     1     2   514   515  1.477218433E+00  1.295084587E+01 -8.525399811E-01  1.306267229E+01  3.162769269E-07  0.00000E+00  9.000E+00
      21     1     1     2   515   513 -1.568286767E+00 -8.605211431E+00  1.632762549E+01  1.852297334E+01  4.129530925E-07  0.00000E+00  9.000E+00
      21     1     1     2   511   514  9.106833451E-02 -4.345634435E+00 -3.330764929E+01  3.359006301E+01  0.000000000E+00  0.00000E+00  9.000E+00
</event>
<event>
      5  10001  2.40292E+09  3.76146E+00 -1.00000E+00  2.69811E-01
       2    -1     0     0   511     0  0.000000000E+00  0.000000000E+00  1.193317918E+02  1.193317918E+02  0.000000000E+00  0.00000E+00  9.000E+00
      21    -1     0     0   516   512  0.000000000E+00  0.000000000E+00 -6.821217927E+00  6.821217927E+00  0.000000000E+00  0.00000E+00  9.000E+00
      21     1     1     2   511   513  1.381409150E+01 -7.465615505E+00  1.132713460E+01  1.936152156E+01  5.057621821E-07  0.00000E+00  9.000E+00
       2     1     1     2   516     0 -1.719712060E+01  8.481274092E+00  1.014523878E+02  1.032490623E+02  3.300000131E-01  0.00000E+00  9.000E+00
      21     1     1     2   513   512  3.383029099E+00 -1.015658587E+00 -2.689484980E-01  3.542425941E+00  2.039405062E-07  0.00000E+00  9.000E+00
</event>
<event>
      5  10001  2.40292E+09  7.61295E+00 -1.00000E+00  2.10459E-01
      21    -1     0     0   514   513  0.000000000E+00  0.000000000E+00  2.441145057E+02  2.441145057E+02  0.000000000E+00  0.00000E+00  9.000E+00
      21    -1     0     0   515   514  0.000000000E+00  0.000000000E+00 -8.168395201E-01  8.168395201E-01  0.000000000E+00  0.00000E+00  9.000E+00
      21     1     1     2   515   512 -3.013569136E+00 -8.715002996E+00  3.283214125E+01  3.410252740E+01  0.000000000E+00  0.00000E+00  9.000E+00
      21     1     1     2   511   513 -3.611457156E-02  2.462157213E+00  1.397967994E+02  1.398184847E+02  1.907348633E-06  0.00000E+00  9.000E+00
      21     1     1     2   512   511  3.049683708E+00  6.252845783E+00  7.066872552E+01  7.101033318E+01  1.651812370E-06  0.00000E+00  9.000E+00
</event>
<event>
      5  10001  2.40292E+09  5.73981E+00 -1.00000E+00  2.28423E-01
      21    -1     0     0   516   513  0.000000000E+00  0.000000000E+00  7.775950355E+00  7.775950355E+00  0.000000000E+00  0.00000E+00  9.000E+00
      21    -1     0     0   512   517  0.000000000E+00  0.000000000E+00 -2.226354434E+02  2.226354434E+02  0.000000000E+00  0.00000E+00  9.000E+00
      21     1     1     2   516   517  1.473036470E+01  4.536063706E+00 -1.737426279E+01  2.322551454E+01  6.307962682E-07  0.00000E+00  9.000E+00
      21     1     1     2   512   511 -2.011847989E+01 -6.514361255E+00 -1.998589496E+02  2.009746000E+02  4.672030912E-06  0.00000E+00  9.000E+00
      21     1     1     2   511   513  5.388115192E+00  1.978297549E+00  2.373719268E+00  6.211279230E+00  3.345302391E-07  0.00000E+00  9.000E+00
</event>
<event>
      5  10001  2.40292E+09  1.21776E+01 -1.00000E+00  1.86307E-01
       2    -1     0     0   515     0  0.000000000E+00  0.000000000E+00  7.160129877E+02  7.160129877E+02  0.000000000E+00  0.00000E+00  9.000E+00
      21    -1     0     0   512   515  0.000000000E+00  0.000000000E+00 -7.244362080E+01  7.244362080E+01  0.000000000E+00  0.00000E+00  9.000E+00
      21     1     1     2   514   511  4.403132781E+00  1.785949644E+01 -1.641894236E+01  2.465625397E+01  1.862108630E-06  0.00000E+00  9.000E+00
       2     1     1     2   511     0 -6.515386485E+00 -5.866504859E+00  7.111526602E+02  7.112067781E+02  3.300000131E-01  0.00000E+00  9.000E+00
      21     1     1     2   512   514  2.112253704E+00 -1.199299159E+01 -5.116435102E+01  5.259357639E+01  0.000000000E+00  0.00000E+00  9.000E+00
</event>
<event>
      5  10001  2.40292E+09  1.47187E+01 -1.00000E+00  1.78114E-01
      21    -1     0     0   512   514  0.000000000E+00  0.000000000E+00  1.961718861E+02  1.961718861E+02  0.000000000E+00  0.00000E+00  9.000E+00
      -4    -1     0     0     0   513  0.000000000E+00  0.000000000E+00 -6.470283894E+00  6.470283894E+00  0.000000000E+00  0.00000E+00  9.000E+00
      -4     1     1     2     0   514 -2.732004231E+01  1.656877252E+01  6.671485076E+01  7.398668966E+01  1.500000000E+00  0.00000E+00  9.000E+00
      21     1     1     2   512   511  1.434350240E+01 -1.963652014E+01  8.416958996E+01  8.761192189E+01  9.536743164E-07  0.00000E+00  9.000E+00
      21     1     1     2   511   513  1.297653991E+01  3.067747622E+00  3.881716144E+01  4.104355840E+01  8.259061849E-07  0.00000E+00  9.000E+00
</event>
<event>
      5  10001  2.40292E+09  7.38455E+00 -1.00000E+00  2.12253E-01
       3    -1     0     0   513     0  0.000000000E+00  0.000000000E+00  9.344827187E+01  9.344827187E+01  0.000000000E+00  0.00000E+00  9.000E+00
      21    -1     0     0   512   513  0.000000000E+00  0.000000000E+00 -2.443811210E+01  2.443811210E+01  0.000000000E+00  0.00000E+00  9.000E+00
      21     1     1     2   514   511 -1.030009177E+01 -7.693056460E+00 -1.944909838E+01  2.331399657E+01  1.238859277E-06  0.00000E+00  9.000E+00
       3     1     1     2   511     0  5.723894025E+00  1.141450331E+01  8.769907852E+01  8.862523468E+01  5.000000000E-01  0.00000E+00  9.000E+00
      21     1     1     2   512   514  4.576197746E+00 -3.721446846E+00  7.601796287E-01  5.947152723E+00  1.100065042E-07  0.00000E+00  9.000E+00
</event>
<event>
      5  10001  2.40292E+09  1.57462E+01 -1.00000E+00  1.75374E-01
      21    -1     0     0   512   515  0.000000000E+00  0.000000000E+00  6.377251373E+01  6.377251373E+01  0.000000000E+00  0.00000E+00  9.000E+00
      -2    -1     0     0     0   514  0.000000000E+00  0.000000000E+00 -2.385303830E+00  2.385303830E+00  0.000000000E+00  0.00000E+00  9.000E+00
      -2     1     1     2     0   511 -6.888675644E+00 -2.704490173E+00  1.237429794E+01  1.442221442E+01  3.300000131E-01  0.00000E+00  9.000E+00
      21     1     1     2   512   514  6.041633359E+00 -2.976196808E+00  8.633284899E+00  1.094955201E+01  1.192092896E-07  0.00000E+00  9.000E+00
      21     1     1     2   511   515  8.470422849E-01  5.680686981E+00  4.037962706E+01  4.078605113E+01  9.536743164E-07  0.00000E+00  9.000E+00
</event>
<event>
      5  10001  2.40292E+09  1.00239E+01 -1.00000E+00  1.95579E-01
      21    -1     0     0   511   515  0.000000000E+00  0.000000000E+00  1.915347832E+01  1.915347832E+01  0.000000000E+00  0.00000E+00  9.000E+00
       1    -1     0     0   515     0  0.000000000E+00  0.000000000E+00 -6.499730687E+02  6.499730687E+02  0.000000000E+00  0.00000E+00  9.000E+00
      21     1     1     2   511   513 -6.622782839E+00  7.430547627E+00  1.751187082E+01  2.014298663E+01  1.192092896E-06  0.00000E+00  9.000E+00
       1     1     1     2   512     0  5.451224093E+00  1.682811080E+00 -5.809940806E+02  5.810221840E+02  3.300000131E-01  0.00000E+00  9.000E+00
      21     1     1     2   513   512  1.171558746E+00 -9.113358707E+00 -6.733738055E+01  6.796137636E+01  1.651812370E-06  0.00000E+00  9.000E+00
</event>
<event>
      5  10001  2.40292E+09  9.10214E+00 -1.00000E+00  2.00540E-01
      21    -1     0     0   514   512  0.000000000E+00  0.000000000E+00  1.238863435E+00  1.238863435E+00  0.000000000E+00  0.00000E+00  9.000E+00
      21    -1     0     0   515   514  0.000000000E+00  0.000000000E+00 -1.608125556E+02  1.608125556E+02  0.000000000E+00  0.00000E+00  9.000E+00
      21     1     1     2   515   516  8.587472508E+00  3.275958323E+00 -1.026217558E+02  1.030325257E+02  1.907348633E-06  0.00000E+00  9.000E+00
      21     1     1     2   511   512 -5.659937847E+00  1.044578448E+00 -8.372729290E+00  1.016014942E+01  4.915124924E-07  0.00000E+00  9.000E+00
      21     1     1     2   516   511 -2.927534661E+00 -4.320536770E+00 -4.857920712E+01  4.885874396E+01  9.536743164E-07  0.00000E+00  9.000E+00
</event>
<event>
      5  10001  2.40292E+09  1.83010E+01 -1.00000E+00  1.69571E-01
       1    -1     0     0   514     0  0.000000000E+00  0.000000000E+00  9.105073313E+01  9.105073313E+01  0.000000000E+00  0.00000E+00  9.000E+00
       4    -1     0     0   513     0  0.000000000E+00  0.000000000E+00 -2.027677886E+00  2.027677886E+00  0.000000000E+00  0.00000E+00  9.000E+00
       1     1     1     2   512     0  3.939959292E+00  3.048789059E-01  7.431479502E+01  7.442052062E+01  3.300000131E-01  0.00000E+00  9.000E+00
       4     1     1     2   514     0 -5.165336419E+00  2.637530750E+00  1.422388142E+01  1.543392598E+01  1.500000000E+00  0.00000E+00  9.000E+00
      21     1     1     2   513   512  1.225377128E+00 -2.942409656E+00  4.843788065E-01  3.223964410E+00  1.301187962E-07  0.00000E+00  9.000E+00
</event>
<event>
      5  10001  2.40292E+09  3.91965E+00 -1.00000E+00  2.65454E-01
      21    -1     0     0   511   515  0.000000000E+00  0.000000000E+00  2.677556406E+01  2.677556406E+01  0.000000000E+00  0.00000E+00  9.000E+00
      21    -1     0     0   513   511  0.000000000E+00  0.000000000E+00 -8.264303305E+00  8.264303305E+00  0.000000000E+00  0.00000E+00  9.000E+00
      21     1     1     2   513   512 -7.886102237E+00  6.969764018E+00 -2.785964665E+00  1.088714003E+01  2.795705652E-07  0.00000E+00  9.000E+00
      21     1     1     2   514   515  2.578590068E+00 -4.514280288E+00  1.300648062E+01  1.400701222E+01  2.384185791E-07  0.00000E+00  9.000E+00
      21     1     1     2   512   514  5.307512169E+00 -2.455483730E+00  8.290744804E+00  1.014571511E+01  2.064765462E-07  0.00000E+00  9.000E+00
</event>
<event>
      5  10001  2.40292E+09  1.14517E+01 -1.00000E+00  1.89135E-01
      21    -1     0     0   512   513  0.000000000E+00  0.000000000E+00  4.277892552E+00  4.277892552E+00  0.000000000E+00  0.00000E+00  9.000E+00
       2    -1     0     0   513     0  0.000000000E+00  0.000000000E+00 -3.451239506E+01  3.451239506E+01  0.000000000E+00  0.00000E+00  9.000E+00
      21     1     1     2   512   511  1.285359770E+00 -5.874162340E+00 -5.077889541E+00  7.870380876E+00  1.332800375E-07  0.00000E+00  9.000E+00
       2     1     1     2   516     0 -7.929311202E+00  5.509076222E+00 -8.085860828E+00  1.259817218E+01  3.300000131E-01  0.00000E+00  9.000E+00
      21     1     1     2   511   516  6.643951431E+00  3.650861180E-01 -1.707075214E+01  1.832173455E+01  0.000000000E+00  0.00000E+00  9.000E+00
</event>
<event>
      5  10001  2.40292E+09  2.84698E+01 -1.00000E+00  1.54600E-01
      21    -1     0     0   514   513  0.000000000E+00  0.000000000E+00  4.188208012E+01  4.188208012E+01  0.000000000E+00  0.00000E+00  9.000E+00
      21    -1     0     0   511   515  0.000000000E+00  0.000000000E+00 -3.022613241E+01  3.022613241E+01  0.000000000E+00  0.00000E+00  9.000E+00
      21     1     1     2   514   515 -9.068225778E+00  3.726172532E+00  2.309032298E+01  2.508545586E+01  5.840038640E-07  0.00000E+00  9.000E+00
      21     1     1     2   511   512  9.519371923E+00 -9.095929584E+00 -2.727717863E+01  3.028859275E+01  3.371747881E-07  0.00000E+00  9.000E+00
      21     1     1     2   512   513 -4.511461447E-01  5.369757052E+00  1.584280336E+01  1.673416392E+01  0.000000000E+00  0.00000E+00  9.000E+00
</event>
<event>
      5  10001  2.40292E+09  4.34532E+00 -1.00000E+00  2.55174E-01
      21    -1     0     0   511   513  0.000000000E+00  0.000000000E+00  2.776356858E+01  2.776356858E+01  0.000000000E+00  0.00000E+00  9.000E+00
       1    -1     0     0   513     0  0.000000000E+00  0.000000000E+00 -1.493788337E+01  1.493788337E+01  0.000000000E+00  0.00000E+00  9.000E+00
      21     1     1     2   514   512 -4.830580681E+00 -7.346205932E+00  1.314717466E+01  1.581611371E+01  2.920019320E-07  0.00000E+00  9.000E+00
       1     1     1     2   512     0  4.750635468E+00  1.014908515E+01 -1.108310985E+01  1.576441216E+01  3.300000131E-01  0.00000E+00  9.000E+00
      21     1     1     2   511   514  7.994521278E-02 -2.802879223E+00  1.076162041E+01  1.112092608E+01  0.000000000E+00  0.00000E+00  9.000E+00
</event>
<event>
      5  10001  2.40292E+09  1.38056E+01 -1.00000E+00  1.80798E-01
      21    -1     0     0   515   513  0.000000000E+00  0.000000000E+00  2.981766562E+01  2.981766562E+01  0.000000000E+00  0.00000E+00  9.000E+00
      21    -1     0     0   514   515  0.000000000E+00  0.000000000E+00 -4.651172013E+00  4.651172013E+00  0.000000000E+00  0.00000E+00  9.000E+00
      -5     1     1     2     0   513  2.443902319E+00 -6.783169143E+00  1.079835973E+01  1.384299884E+01  4.800000191E+00  0.00000E+00  9.000E+00
       5     1     1     2   512     0 -9.308323510E-02  3.461653590E+00  1.533991231E+01  1.644215988E+01  4.800000191E+00  0.00000E+00  9.000E+00
      21     1     1     2   514   512 -2.350819084E+00  3.321515553E+00 -9.717784320E-01  4.183678914E+00  1.032382731E-07  0.00000E+00  9.000E+00
</event>
<event>
      5  10001  2.40292E+09  7.58239E+00 -1.00000E+00  2.10694E-01
      21    -1     0     0   513   512  0.000000000E+00  0.000000000E+00  2.131124173E+00  2.131124173E+00  0.000000000E+00  0.00000E+00  9.000E+00
      21    -1     0     0   514   511  0.000000000E+00  0.000000000E+00 -3.786255865E+02  3.786255865E+02  0.000000000E+00  0.00000E+00  9.000E+00
      21     1     1     2   514   516 -8.909188829E-01 -9.117584388E+00 -2.899911491E+02  2.901358141E+02  5.394796609E-06  0.00000E+00  9.000E+00
      21     1     1     2   516   512 -4.973047958E+00  1.392451512E+01 -7.727608975E+01  7.867793448E+01  1.907348633E-06  0.00000E+00  9.000E+00
      21     1     1     2   513   511  5.863966841E+00 -4.806930729E+00 -9.227223533E+00  1.194296212E+01  6.529361695E-07  0.00000E+00  9.000E+00
</event>
<event>
      5  10001  2.40292E+09  6.83591E+00 -1.00000E+00  2.16948E-01
       3    -1     0     0   515     0  0.000000000E+00  0.000000000E+00  6.306192080E+01  6.306192080E+01  0.000000000E+00  0.00000E+00  9.000E+00
      21    -1     0     0   513   512  0.000000000E+00  0.000000000E+00 -2.002019349E+01  2.002019349E+01  0.000000000E+00  0.00000E+00  9.000E+00
      21     1     1     2   515   511 -1.461186071E+01  8.970704012E+00 -1.227703734E+01  2.108804518E+01  6.078504936E-07  0.00000E+00  9.000E+00
       3     1     1     2   513     0  1.010754310E+01 -3.829141838E+00  5.394809345E+01  5.502246397E+01  5.000000000E-01  0.00000E+00  9.000E+00
      21     1     1     2   511   512  4.504317606E+00 -5.141562174E+00  1.370671192E+00  6.971605138E+00  1.482646819E-07  0.00000E+00  9.000E+00
</event>
<event>
      5  10001  2.40292E+09  6.06745E+00 -1.00000E+00  2.24643E-01
      21    -1     0     0   514   511  0.000000000E+00  0.000000000E+00  1.151460016E+02  1.151460016E+02  0.000000000E+00  0.00000E+00  9.000E+00
      21    -1     0     0   513   514  0.000000000E+00  0.000000000E+00 -9.076996927E+00  9.076996927E+00  0.000000000E+00  0.00000E+00  9.000E+00
      21     1     1     2   516   512  1.021049590E+01 -7.948175845E+00  2.567958819E+01  2.875532951E+01  4.768371582E-07  0.00000E+00  9.000E+00
      21     1     1     2   512   511 -7.097088550E+00  1.315592181E+01  8.594844594E+01  8.723865143E+01  1.348699152E-06  0.00000E+00  9.000E+00
      21     1     1     2   513   516 -3.113407346E+00 -5.207745966E+00 -5.559029403E+00  8.229017636E+00  2.230201594E-07  0.00000E+00  9.000E+00
</event>
<event>
      5  10001  2.40292E+09  3.00606E+00 -1.00000E+00  2.96463E-01
      21    -1     0     0   515   512  0.000000000E+00  0.000000000E+00  1.299397515E+01  1.299397515E+01  0.000000000E+00  0.00000E+00  9.000E+00
      21    -1     0     0   513   515  0.000000000E+00  0.000000000E+00 -5.615247690E+01  5.615247690E+01  0.000000000E+00  0.00000E+00  9.000E+00
      21     1     1     2   513   516  9.919472427E+00 -6.091794671E+00 -5.203713968E+01  5.332325760E+01  6.743495762E-07  0.00000E+00  9.000E+00
      21     1     1     2   516   511 -9.611170975E+00  3.162546763E+00  7.340198621E+00  1.250019301E+01  5.527507362E-07  0.00000E+00  9.000E+00
      21     1     1     2   511   512 -3.083014522E-01  2.929247908E+00  1.538439306E+00  3.323001443E+00  8.940696716E-08  0.00000E+00  9.000E+00
</event>
<event>
      5  10001  2.40292E+09  1.33016E+01 -1.00000E+00  1.82395E-01
      21    -1     0     0   514   515  0.000000000E+00  0.000000000E+00  8.939197944E+01  8.939197944E+01  0.000000000E+00  0.00000E+00  9.000E+00
      21    -1     0     0   513   512  0.000000000E+00  0.000000000E+00 -1.769820049E+02  1.769820049E+02  0.000000000E+00  0.00000E+00  9.000E+00
      21     1     1     2   514   512 -2.682257988E+01 -2.409871973E+01 -1.703470655E+02  1.741215719E+02  2.697398305E-06  0.00000E+00  9.000E+00
      21     1     1     2   513   516  1.833820508E+01  1.385427111E+01  2.970470899E+01  3.755795961E+01  1.168007728E-06  0.00000E+00  9.000E+00
      21     1     1     2   516   515  8.484374805E+00  1.024444862E+01  5.305233103E+01  5.469445283E+01  1.168007728E-06  0.00000E+00  9.000E+00
</event>
<event>
      5  10001  2.40292E+09  1.00567E+01 -1.00000E+00  1.95415E-01
      21    -1     0     0   511   512  0.000000000E+00  0.000000000E+00  1.392100504E+02  1.392100504E+02  0.000000000E+00  0.00000E+00  9.000E+00
      21    -1     0     0   515   511  0.000000000E+00  0.000000000E+00 -7.958317385E-01  7.958317385E-01  0.000000000E+00  0.00000E+00  9.000E+00
      21     1     1     2   515   517  8.825674104E+00 -1.234959414E+00  5.277472434E+01  5.352185701E+01  1.168007728E-06  0.00000E+00  9.000E+00
      21     1     1     2   513   512 -2.055256611E+00  3.718540469E+00  4.583754580E+01  4.603403337E+01  0.000000000E+00  0.00000E+00  9.000E+00
      21     1     1     2   517   513 -6.770417493E+00 -2.483581055E+00  3.980194854E+01  4.044999178E+01  4.768371582E-07  0.00000E+00  9.000E+00
</event>
<event>
      5  10001  2.40292E+09  5.82134E+00 -1.00000E+00  2.27450E-01
      -1    -1     0     0     0   514  0.000000000E+00  0.000000000E+00  6.488053251E+02  6.488053251E+02  0.000000000E+00  0.00000E+00  9.000E+00
      21    -1     0     0   515   511  0.000000000E+00  0.000000000E+00 -1.667470887E+00  1.667470887E+00  0.000000000E+00  0.00000E+00  9.000E+00
      -1     1     1     2     0   512 -7.401561709E+00 -1.275546592E+01  5.762335583E+02  5.764223344E+02  3.300000131E-01  0.00000E+00  9.000E+00
      21     1     1     2   512   511  1.221376037E+01  9.479964030E+00  4.866970988E+01  5.106648921E+01  2.611744678E-06  0.00000E+00  9.000E+00
      21     1     1     2   515   514 -4.812198663E+00  3.275501890E+00  2.223458612E+01  2.298397242E+01  4.768371582E-07  0.00000E+00  9.000E+00
</event>
<event>
      5  10001  2.40292E+09  2.92326E+01 -1.00000E+00  1.53790E-01
      21    -1     0     0   512   513  0.000000000E+00  0.000000000E+00  3.625664277E+01  3.625664277E+01  0.000000000E+00  0.00000E+00  9.000E+00
      -1    -1     0     0     0   511  0.000000000E+00  0.000000000E+00 -1.625579080E+02  1.625579080E+02  0.000000000E+00  0.00000E+00  9.000E+00
      -1     1     1     2     0   511 -2.845021623E+01 -2.164668998E+01 -2.675659203E+01  4.465442988E+01  3.300000131E-01  0.00000E+00  9.000E+00
      -1     1     1     2     0   513  3.793763817E+01  4.929619340E+01 -1.071998037E+02  1.239406547E+02  3.300000131E-01  0.00000E+00  9.000E+00
       1     1     1     2   512     0 -9.487421940E+00 -2.764950342E+01  7.655130500E+00  3.021946620E+01  3.300000131E-01  0.00000E+00  9.000E+00
</event>
<event>
      5  10001  2.40292E+09  7.04635E+00 -1.00000E+00  2.15078E-01
       1    -1     0     0   511     0  0.000000000E+00  0.000000000E+00  7.881563431E+02  7.881563431E+02  0.000000000E+00  0.00000E+00  9.000E+00
      21    -1     0     0   512   514  0.000000000E+00  0.000000000E+00 -4.439039813E-01  4.439039813E-01  0.000000000E+00  0.00000E+00  9.000E+00
      21     1     1     2   511   513  2.071026028E-01 -1.174669786E+01  2.801579045E+02  2.804041356E+02  0.000000000E+00  0.00000E+00  9.000E+00
       1     1     1     2   512     0  5.524197326E+00  1.681654296E+01  3.801336882E+02  3.805457170E+02  3.300000131E-01  0.00000E+00  9.000E+00
      21     1     1     2   513   514 -5.731299929E+00 -5.069845103E+00  1.274208464E+02  1.276503945E+02  2.697398305E-06  0.00000E+00  9.000E+00
</event>
<event>
      5  10001  2.40292E+09  4.09954E+00 -1.00000E+00  2.60874E-01
       1    -1     0     0   511     0  0.000000000E+00  0.000000000E+00  1.557869164E+02  1.557869164E+02  0.000000000E+00  0.00000E+00  9.000E+00
      21    -1     0     0   513   511  0.000000000E+00  0.000000000E+00 -1.368174900E+01  1.368174900E+01  0.000000000E+00  0.00000E+00  9.000E+00
      21     1     1     2   512   515 -1.656112686E+01 -1.563457774E+01  3.851542014E-01  2.277848300E+01  1.021314000E-06  0.00000E+00  9.000E+00
       1     1     1     2   515     0  1.525468123E+01  1.957964394E+01  1.400148063E+02  1.421981809E+02  3.300000131E-01  0.00000E+00  9.000E+00
      21     1     1     2   513   512  1.306445628E+00 -3.945066198E+00  1.705206937E+00  4.492001579E+00  1.210576058E-07  0.00000E+00  9.000E+00
</event>
<event>
      5  10001  2.40292E+09  1.82817E+01 -1.00000E+00  1.69610E-01
      21    -1     0     0   513   514  0.000000000E+00  0.000000000E+00  5.784836194E-01  5.784836194E-01  0.000000000E+00  0.00000E+00  9.000E+00
       2    -1     0     0   515     0  0.000000000E+00  0.000000000E+00 -3.500257637E+02  3.500257637E+02  0.000000000E+00  0.00000E+00  9.000E+00
      21     1     1     2   515   514  6.965615940E+00 -3.822543936E+00 -2.091946532E+02  2.093454910E+02  0.000000000E+00  0.00000E+00  9.000E+00
       2     1     1     2   511     0 -6.276895786E+00 -1.584861348E-01 -1.311402206E+02  1.312908637E+02  3.300000131E-01  0.00000E+00  9.000E+00
      21     1     1     2   513   511 -6.887201541E-01  3.981030071E+00 -9.112406303E+00  9.967892681E+00  4.129530925E-07  0.00000E+00  9.000E+00
</event>
<event>
      5  10001  2.40292E+09  1.07991E+01 -1.00000E+00  1.91919E-01
      21    -1     0     0   514   511  0.000000000E+00  0.000000000E+00  1.316529822E+02  1.316529822E+02  0.000000000E+00  0.00000E+00  9.000E+00
      21    -1     0     0   516   512  0.000000000E+00  0.000000000E+00 -1.368236293E+01  1.368236293E+01  0.000000000E+00  0.00000E+00  9.000E+00
      21     1     1     2   516   515  1.535084335E+00 -6.409908161E+00 -1.034618316E+01  1.226731073E+01  2.384185791E-07  0.00000E+00  9.000E+00
      21     1     1     2   515   511 -1.199102723E+01  9.110642668E+00  2.497853233E+01  2.916702969E+01  4.768371582E-07  0.00000E+00  9.000E+00
      21     1     1     2   514   512  1.045594289E+01 -2.700734507E+00  1.033382701E+02  1.039010047E+02  0.000000000E+00  0.00000E+00  9.000E+00
</event>
<event>
      5  10001  2.40292E+09  8.07933E+00 -1.00000E+00  2.07046E-01
      -2    -1     0     0     0   513  0.000000000E+00  0.000000000E+00  3.071487970E+00  3.071487970E+00  0.000000000E+00  0.00000E+00  9.000E+00
      21    -1     0     0   511   515  0.000000000E+00  0.000000000E+00 -9.829432292E+02  9.829432292E+02  0.000000000E+00  0.00000E+00  9.000E+00
      -2     1     1     2     0   512 -1.301865878E+01 -5.588055494E+00 -1.453170277E+01  2.029756454E+01  3.300000131E-01  0.00000E+00  9.000E+00
      21     1     1     2   511   513  4.986014733E+00  6.454645892E+00 -8.691914128E+02  8.692296790E+02  1.078959322E-05  0.00000E+00  9.000E+00
      21     1     1     2   512   515  8.032644046E+00 -8.665903979E-01 -9.614862567E+01  9.648747363E+01  1.348699152E-06  0.00000E+00  9.000E+00
</event>
<event>
      5  10001  2.40292E+09  6.30154E+00 -1.00000E+00  2.22139E-01
      21    -1     0     0   514   513  0.000000000E+00  0.000000000E+00  2.811895710E+01  2.811895710E+01  0.000000000E+00  0.00000E+00  9.000E+00
      21    -1     0     0   516   514  0.000000000E+00  0.000000000E+00 -3.192000322E+01  3.192000322E+01  0.000000000E+00  0.00000E+00  9.000E+00
      21     1     1     2   511   513  2.350497829E+01  4.714075281E+00 -1.953080220E+01  3.092181665E+01  4.768371582E-07  0.00000E+00  9.000E+00
      21     1     1     2   517   511 -1.018726810E+01  2.587722818E-01  5.305968722E+00  1.148915569E+01  2.064765462E-07  0.00000E+00  9.000E+00
      21     1     1     2   516   517 -1.331771019E+01 -4.972847563E+00  1.042378736E+01  1.762798799E+01  3.953724850E-07  0.00000E+00  9.000E+00
</event>
<event>
      5  10001  2.40292E+09  3.20926E+00 -1.00000E+00  2.88125E-01
      21    -1     0     0   513   511  0.000000000E+00  0.000000000E+00  3.918788392E+01  3.918788392E+01  0.000000000E+00  0.00000E+00  9.000E+00
      21    -1     0     0   515   512  0.000000000E+00  0.000000000E+00 -9.952091450E+01  9.952091450E+01  0.000000000E+00  0.00000E+00  9.000E+00
      21     1     1     2   516   511  1.618437452E+01  8.072802756E+00  7.686477318E+00  1.965161715E+01  3.371747881E-07  0.00000E+00  9.000E+00
      21     1     1     2   515   516 -1.349115440E+01 -6.327541574E+00 -9.284091300E+01  9.402916652E+01  1.907348633E-06  0.00000E+00  9.000E+00
      21     1     1     2   513   512 -2.693220117E+00 -1.745261182E+00  2.482140511E+01  2.502801476E+01  4.768371582E-07  0.00000E+00  9.000E+00
</event>
<event>
      5  10001  2.40292E+09  1.49575E+01 -1.00000E+00  1.77452E-01
      21    -1     0     0   514   515  0.000000000E+00  0.000000000E+00  2.234228953E+02  2.234228953E+02  0.000000000E+00  0.00000E+00  9.000E+00
      21    -1     0     0   517   511  0.000000000E+00  0.000000000E+00 -2.505746037E+01  2.505746037E+01  0.000000000E+00  0.00000E+00  9.000E+00
      21     1     1     2   512   515 -1.820380390E+01 -1.795190337E+01  1.846433491E+02  1.864049776E+02  0.000000000E+00  0.00000E+00  9.000E+00
      21     1     1     2   517   512  3.912482126E+00  2.236605191E+01  3.150749905E+01  3.883645569E+01  9.536743164E-07  0.00000E+00  9.000E+00
      21     1     1     2   514   511  1.429132178E+01 -4.414148532E+00 -1.778541328E+01  2.323892232E+01  5.331201500E-07  0.00000E+00  9.000E+00
</event>
<event>
      5  10001  2.40292E+09  6.72159E+00 -1.00000E+00  2.18002E-01
       3    -1     0     0   511     0  0.000000000E+00  0.000000000E+00  2.360724136E+01  2.360724136E+01  0.000000000E+00  0.00000E+00  9.000E+00
      21    -1     0     0   514   511  0.000000000E+00  0.000000000E+00 -1.218769210E+02  1.218769210E+02  0.000000000E+00  0.00000E+00  9.000E+00
      21     1     1     2   514   512  4.199931425E+00 -5.771706897E+00 -1.066477074E+02  1.068863205E+02  1.348699152E-06  0.00000E+00  9.000E+00
       3     1     1     2   513     0 -1.056871308E+01  7.199344598E+00  2.088278522E+01  2.449222279E+01  5.000000000E-01  0.00000E+00  9.000E+00
      21     1     1     2   512   513  6.368781653E+00 -1.427637701E+00 -1.250475749E+01  1.410561906E+01  1.685873940E-07  0.00000E+00  9.000E+00
</event>
<event>
      5  10001  2.40292E+09  1.28498E+01 -1.00000E+00  1.83906E-01
      21    -1     0     0   515   514  0.000000000E+00  0.000000000E+00  6.144570449E+02  6.144570449E+02  0.000000000E+00  0.00000E+00  9.000E+00
      21    -1     0     0   516   515  0.000000000E+00  0.000000000E+00 -7.063712467E-01  7.063712467E-01  0.000000000E+00  0.00000E+00  9.000E+00
      21     1     1     2   513   514  8.606465881E+00  7.719953345E+00  4.662727560E+02  4.664160717E+02  5.394796609E-06  0.00000E+00  9.000E+00
      21     1     1     2   516   511  2.411249962E-01 -9.554613630E+00  5.453074446E+01  5.536199847E+01  6.743495762E-07  0.00000E+00  9.000E+00
      21     1     1     2   511   513 -8.847590877E+00  1.834660285E+00  9.294717320E+01  9.338534601E+01  0.000000000E+00  0.00000E+00  9.000E+00
</event>
<event>
      5  10001  2.40292E+09  7.79889E+00 -1.00000E+00  2.09060E-01
      21    -1     0     0   514   511  0.000000000E+00  0.000000000E+00  2.250640339E+02  2.250640339E+02  0.000000000E+00  0.00000E+00  9.000E+00
      21    -1     0     0   517   512  0.000000000E+00  0.000000000E+00 -2.089398552E+01  2.089398552E+01  0.000000000E+00  0.00000E+00  9.000E+00
      21     1     1     2   516   511  1.499384710E+01  4.300864379E-01 -1.447728750E+01  2.084687695E+01  4.129530925E-07  0.00000E+00  9.000E+00
      21     1     1     2   517   516 -1.175040861E+01  6.662362199E+00  1.128285407E+01  1.760005592E+01  3.576278687E-07  0.00000E+00  9.000E+00
      21     1     1     2   514   512 -3.243438488E+00 -7.092448637E+00  2.073644818E+02  2.075110865E+02  2.697398305E-06  0.00000E+00  9.000E+00
</event>
<event>
      5  10001  2.40292E+09  9.61212E+00 -1.00000E+00  1.97705E-01
      21    -1     0     0   513   515  0.000000000E+00  0.000000000E+00  4.292689474E+02  4.292689474E+02  0.000000000E+00  0.00000E+00  9.000E+00
       1    -1     0     0   511     0  0.000000000E+00  0.000000000E+00 -2.778672472E+02  2.778672472E+02  0.000000000E+00  0.00000E+00  9.000E+00
      21     1     1     2   516   515 -4.551492006E+00 -1.294099613E+00  3.890142096E+02  3.890429874E+02  1.078959322E-05  0.00000E+00  9.000E+00
       1     1     1     2   513     0  9.853882587E+00  9.608018842E+00 -2.770752862E+02  2.774170797E+02  3.300000131E-01  0.00000E+00  9.000E+00
      21     1     1     2   511   516 -5.302390581E+00 -8.313919230E+00  3.946277679E+01  4.067612753E+01  6.743495762E-07  0.00000E+00  9.000E+00
</event>
<event>
      5  10001  2.40292E+09  5.87042E+00 -1.00000E+00  2.26875E-01
      21    -1     0     0   512   513  0.000000000E+00  0.000000000E+00  1.814925287E+01  1.814925287E+01  0.000000000E+00  0.00000E+00  9.000E+00
      -2    -1     0     0     0   512  0.000000000E+00  0.000000000E+00 -1.778319703E+02  1.778319703E+02  0.000000000E+00  0.00000E+00  9.000E+00
      -2     1     1     2     0   514  1.864055892E+00 -8.410583097E+00 -1.602641688E+02  1.604958732E+02  3.300000131E-01  0.00000E+00  9.000E+00
      21     1     1     2   514   511 -6.722311787E+00  1.170582067E+01 -1.419312726E+01  1.958725542E+01  6.307962682E-07  0.00000E+00  9.000E+00
      21     1     1     2   511   513  4.858255895E+00 -3.295237573E+00  1.477457856E+01  1.589809462E+01  2.384185791E-07  0.00000E+00  9.000E+00
</event>
<event>
      5  10001  2.40292E+09  4.80297E+00 -1.00000E+00  2.45960E-01
      21    -1     0     0   515   514  0.000000000E+00  0.000000000E+00  1.319147448E+00  1.319147448E+00  0.000000000E+00  0.00000E+00  9.000E+00
      21    -1     0     0   513   515  0.000000000E+00  0.000000000E+00 -1.303446790E+02  1.303446790E+02  0.000000000E+00  0.00000E+00  9.000E+00
      21     1     1     2   513   516  7.135733919E+00  6.785651193E+00 -8.850721872E+01  8.905330721E+01  9.536743164E-07  0.00000E+00  9.000E+00
      21     1     1     2   516   512 -4.043359091E+00 -7.425079632E+00 -1.817577869E+01  2.004593454E+01  5.331201500E-07  0.00000E+00  9.000E+00
      21     1     1     2   512   514 -3.092374827E+00  6.394284389E-01 -2.234253416E+01  2.256458472E+01  0.000000000E+00  0.00000E+00  9.000E+00
</event>
<event>
      5  10001  2.40292E+09  5.87126E+00 -1.00000E+00  2.26865E-01
      21    -1     0     0   511   512  0.000000000E+00  0.000000000E+00  1.098582913E-01  1.098582913E-01  0.000000000E+00  0.00000E+00  9.000E+00
       1    -1     0     0   514     0  0.000000000E+00  0.000000000E+00 -1.255445448E+03  1.255445448E+03  0.000000000E+00  0.00000E+00  9.000E+00
      -2     1     1     2     0   512 -5.390586384E+00  2.915028572E+00 -1.548831751E+02  1.550047181E+02  3.300000131E-01  0.00000E+00  9.000E+00
       1     1     1     2   511     0  8.310331299E+00 -6.018472189E+00 -6.981959675E+02  6.982714383E+02  3.300000131E-01  0.00000E+00  9.000E+00
       2     1     1     2   514     0 -2.919744914E+00  3.103443618E+00 -4.022564469E+02  4.022791497E+02  3.300000131E-01  0.00000E+00  9.000E+00
</event>
<event>
      5  10001  2.40292E+09  4.07766E+00 -1.00000E+00  2.61411E-01
      21    -1     0     0   513   516  0.000000000E+00  0.000000000E+00  1.354618308E+02  1.354618308E+02  0.000000000E+00  0.00000E+00  9.000E+00
      21    -1     0     0   514   513  0.000000000E+00  0.000000000E+00 -4.357632244E+00  4.357632244E+00  0.000000000E+00  0.00000E+00  9.000E+00
      21     1     1     2   515   516  8.949207763E+00 -1.451138631E+01  1.140811816E+02  1.153481020E+02  0.000000000E+00  0.00000E+00  9.000E+00
      21     1     1     2   511   515 -2.905612761E+00  8.790312717E+00  9.013088051E+00  1.292083354E+01  3.153981341E-07  0.00000E+00  9.000E+00
      21     1     1     2   514   511 -6.043595002E+00  5.721073592E+00  8.009928949E+00  1.155052749E+01  3.153981341E-07  0.00000E+00  9.000E+00
</event>
<event>
      5  10001  2.40292E+09  8.60924E+00 -1.00000E+00  2.03525E-01
      21    -1     0     0   514   511  0.000000000E+00  0.000000000E+00  5.352903473E+00  5.352903473E+00  0.000000000E+00  0.00000E+00  9.000E+00
      -4    -1     0     0     0   513  0.000000000E+00  0.000000000E+00 -6.885510343E+02  6.885510343E+02  0.000000000E+00  0.00000E+00  9.000E+00
      -4     1     1     2     0   511  1.864947723E+01 -9.499730130E+00 -5.137115605E+02  5.141399277E+02  1.500000000E+00  0.00000E+00  9.000E+00
      21     1     1     2   514   512 -1.035720460E+01  1.180806299E+01 -7.250006686E+00  1.729926691E+01  1.258773332E-06  0.00000E+00  9.000E+00
      21     1     1     2   512   513 -8.292272629E+00 -2.308332861E+00 -1.622365637E+02  1.624647432E+02  2.697398305E-06  0.00000E+00  9.000E+00
</event>
<event>
      5  10001  2.40292E+09  3.46732E+00 -1.00000E+00  2.78885E-01
      21    -1     0     0   515   514  0.000000000E+00  0.000000000E+00  4.322006151E+01  4.322006151E+01  0.000000000E+00  0.00000E+00  9.000E+00
      21    -1     0     0   516   515  0.000000000E+00  0.000000000E+00 -7.184688786E+01  7.184688786E+01  0.000000000E+00  0.00000E+00  9.000E+00
      21     1     1     2   516   513  2.116050192E+00  1.161131859E+01 -5.855049074E+01  5.972822075E+01  9.536743164E-07  0.00000E+00  9.000E+00
      21     1     1     2   513   511 -5.032454278E-01 -1.468071189E+01 -8.357790856E+00  1.690056880E+01  2.384185791E-07  0.00000E+00  9.000E+00
      21     1     1     2   511   514 -1.612804765E+00  3.069393306E+00  3.828145525E+01  3.843815982E+01  0.000000000E+00  0.00000E+00  9.000E+00
</event>
<event>
      5  10001  2.40292E+09  5.76216E+00 -1.00000E+00  2.28154E-01
      21    -1     0     0   512   513  0.000000000E+00  0.000000000E+00  6.918551619E+01  6.918551619E+01  0.000000000E+00  0.00000E+00  9.000E+00
      21    -1     0     0   514   512  0.000000000E+00  0.000000000E+00 -5.300669000E+00  5.300669000E+00  0.000000000E+00  0.00000E+00  9.000E+00
      21     1     1     2   517   511 -1.190735259E+01 -1.855042661E+00  1.978596498E+01  2.316701619E+01  5.331201500E-07  0.00000E+00  9.000E+00
      21     1     1     2   514   517  8.500727003E+00 -2.792261104E+00  2.454630044E+00  9.278162011E+00  2.289159819E-07  0.00000E+00  9.000E+00
      21     1     1     2   511   513  3.406625588E+00  4.647303765E+00  4.164425216E+01  4.204100698E+01  0.000000000E+00  0.00000E+00  9.000E+00
</event>
<event>
      5  10001  2.40292E+09  4.89665E+00 -1.00000E+00  2.44263E-01
      21    -1     0     0   515   513  0.000000000E+00  0.000000000E+00  7.240732407E+00  7.240732407E+00  0.000000000E+00  0.00000E+00  9.000E+00
      21    -1     0     0   513   512  0.000000000E+00  0.000000000E+00 -1.724104100E+01  1.724104100E+01  0.000000000E+00  0.00000E+00  9.000E+00
      -4     1     1     2     0   512 -7.189921492E+00 -4.476112505E+00 -6.829683700E+00  1.098294740E+01  1.500000000E+00  0.00000E+00  9.000E+00
      21     1     1     2   515   514  9.390464405E+00  4.177686161E+00 -3.357910738E+00  1.081246725E+01  1.032382731E-07  0.00000E+00  9.000E+00
       4     1     1     2   514     0 -2.200542913E+00  2.984263442E-01  1.872858446E-01  2.686358759E+00  1.500000000E+00  0.00000E+00  9.000E+00
</event>
<event>
      5  10001  2.40292E+09  6.76772E+00 -1.00000E+00  2.17573E-01
      -4    -1     0     0     0   511  0.000000000E+00  0.000000000E+00  2.262879819E+02  2.262879819E+02  0.000000000E+00  0.00000E+00  9.000E+00
      21    -1     0     0   514   512  0.000000000E+00  0.000000000E+00 -2.694967617E+01  2.694967617E+01  0.000000000E+00  0.00000E+00  9.000E+00
      -4     1     1     2     0   515  6.487962320E+00  1.256244153E+01  2.205780734E+02  2.210358457E+02  1.500000000E+00  0.00000E+00  9.000E+00
      21     1     1     2   514   511 -6.430803387E+00 -5.795600583E+00 -2.351862426E+01  2.506132290E+01  4.768371582E-07  0.00000E+00  9.000E+00
      21     1     1     2   515   512 -5.715893250E-02 -6.766840944E+00  2.278856603E+00  7.140489544E+00  1.490116119E-07  0.00000E+00  9.000E+00
</event>
<event>
      5  10001  2.40292E+09  6.72418E+00 -1.00000E+00  2.17978E-01
      21    -1     0     0   513   512  0.000000000E+00  0.000000000E+00  1.866509020E+00  1.866509020E+00  0.000000000E+00  0.00000E+00  9.000E+00
      21    -1     0     0   515   516  0.000000000E+00  0.000000000E+00 -1.923092932E+02  1.923092932E+02  0.000000000E+00  0.00000E+00  9.000E+00
      21     1     1     2   513   516 -1.334693357E+01 -1.156884639E+01 -7.415973674E+01  7.623414849E+01  1.348699152E-06  0.00000E+00  9.000E+00
      21     1     1     2   515   511  7.546649043E+00  7.993785335E+00 -9.398734959E+01  9.462808462E+01  1.348699152E-06  0.00000E+00  9.000E+00
      21     1     1     2   511   512  5.800284524E+00  3.575061053E+00 -2.229569785E+01  2.331356911E+01  4.129530925E-07  0.00000E+00  9.000E+00
</event>
<event>
      5  10001  2.40292E+09  4.05288E+00 -1.00000E+00  2.62026E-01
      21    -1     0     0   514   515  0.000000000E+00  0.000000000E+00  7.961961033E+01  7.961961033E+01  0.000000000E+00  0.00000E+00  9.000E+00
      -2    -1     0     0     0   514  0.000000000E+00  0.000000000E+00 -1.931794528E+01  1.931794528E+01  0.000000000E+00  0.00000E+00  9.000E+00
      21     1     1     2   512   517  1.744802179E+01 -1.072016995E+01  1.783538244E+01  2.715614801E+01  4.129530925E-07  0.00000E+00  9.000E+00
      21     1     1     2   517   515 -1.571889455E+01  7.054779827E+00  5.550800666E+01  5.812049869E+01  6.743495762E-07  0.00000E+00  9.000E+00
      -2     1     1     2     0   512 -1.729127242E+00  3.665390121E+00 -1.304172406E+01  1.366090891E+01  3.300000131E-01  0.00000E+00  9.000E+00
</event>
<event>
      5  10001  2.40292E+09  9.70008E+00 -1.00000E+00  1.97239E-01
      21    -1     0     0   511   512  0.000000000E+00  0.000000000E+00  5.482473281E+01  5.482473281E+01  0.000000000E+00  0.00000E+00  9.000E+00
      21    -1     0     0   513   511  0.000000000E+00  0.000000000E+00 -6.710599513E+00  6.710599513E+00  0.000000000E+00  0.00000E+00  9.000E+00
      21     1     1     2   516   512  1.524113122E-01 -9.924606590E+00  4.800553284E+01  4.902093664E+01  6.743495762E-07  0.00000E+00  9.000E+00
      -2     1     1     2     0   516 -1.466017351E+00  6.411640878E+00  3.490728589E+00  7.453350368E+00  3.300000131E-01  0.00000E+00  9.000E+00
       2     1     1     2   513     0  1.313606039E+00  3.512965712E+00 -3.382128139E+00  5.061045315E+00  3.300000131E-01  0.00000E+00  9.000E+00
</event>
<event>
      5  10001  2.40292E+09  8.52719E+00 -1.00000E+00  2.04048E-01
      21    -1     0     0   514   512  0.000000000E+00  0.000000000E+00  1.293204775E+01  1.293204775E+01  0.000000000E+00  0.00000E+00  9.000E+00
       2    -1     0     0   512     0  0.000000000E+00  0.000000000E+00 -2.358822762E+02  2.358822762E+02  0.000000000E+00  0.00000E+00  9.000E+00
      21     1     1     2   511   513  2.215338786E+00 -1.418552426E+01  6.055689517E+00  1.558230407E+01  5.654593098E-07  0.00000E+00  9.000E+00
       2     1     1     2   513     0 -4.482487488E+00  8.853332715E+00 -2.268231453E+02  2.270403540E+02  3.300000131E-01  0.00000E+00  9.000E+00
      21     1     1     2   514   511  2.267148701E+00  5.332191550E+00 -2.182772648E+00  6.191665882E+00  2.995096332E-07  0.00000E+00  9.000E+00
</event>
<event>
      5  10001  2.40292E+09  1.34294E+01 -1.00000E+00  1.81981E-01
       2    -1     0     0   511     0  0.000000000E+00  0.000000000E+00  6.039481430E+02  6.039481430E+02  0.000000000E+00  0.00000E+00  9.000E+00
      21    -1     0     0   513   511  0.000000000E+00  0.000000000E+00 -1.547808248E+01  1.547808248E+01  0.000000000E+00  0.00000E+00  9.000E+00
      21     1     1     2   513   514 -6.818195207E+00  6.956405832E+00 -1.300711948E+01  1.625006231E+01  1.719260824E-06  0.00000E+00  9.000E+00
       2     1     1     2   512     0  1.348044043E+01 -1.604450749E+00  5.785306222E+02  5.786899742E+02  3.300000131E-01  0.00000E+00  9.000E+00
      21     1     1     2   514   512 -6.662245225E+00 -5.351955083E+00  2.294655786E+01  2.448618901E+01  5.840038640E-07  0.00000E+00  9.000E+00
</event>
<event>
      5  10001  2.40292E+09  7.79234E+00 -1.00000E+00  2.09108E-01
      21    -1     0     0   511   512  0.000000000E+00  0.000000000E+00  1.987646153E+01  1.987646153E+01  0.000000000E+00  0.00000E+00  9.000E+00
       3    -1     0     0   514     0  0.000000000E+00  0.000000000E+00 -5.909268697E+01  5.909268697E+01  0.000000000E+00  0.00000E+00  9.000E+00
      21     1     1     2   514   512  1.933113737E+01  1.973734401E+01 -3.695919324E+01  4.614366246E+01  8.259061849E-07  0.00000E+00  9.000E+00
       3     1     1     2   515     0 -1.777472454E+01 -1.210268741E+01 -8.206592912E+00  2.302203385E+01  5.000000000E-01  0.00000E+00  9.000E+00
      21     1     1     2   511   515 -1.556412830E+00 -7.634656602E+00  5.949560708E+00  9.803452195E+00  1.192092896E-07  0.00000E+00  9.000E+00
</event>
<event>
      5  10001  2.40292E+09  5.85779E+00 -1.00000E+00  2.27022E-01
      -1    -1     0     0     0   513  0.000000000E+00  0.000000000E+00  3.151960820E+00  3.151960820E+00  0.000000000E+00  0.00000E+00  9.000E+00
      21    -1     0     0   511   515  0.000000000E+00  0.000000000E+00 -2.419500773E+02  2.419500773E+02  0.000000000E+00  0.00000E+00  9.000E+00
      -1     1     1     2     0   515 -1.250462669E+01 -1.071123680E+01 -2.150490233E+01  2.708626971E+01  3.300000131E-01  0.00000E+00  9.000E+00
      21     1     1     2   512   513  4.716276078E+00  4.776022118E+00 -1.303830874E+02  1.305557472E+02  2.697398305E-06  0.00000E+00  9.000E+00
      21     1     1     2   511   512  7.788350614E+00  5.935214680E+00 -8.691012668E+01  8.746002114E+01  1.348699152E-06  0.00000E+00  9.000E+00
</event>
<event>
      5  10001  2.40292E+09  8.96702E+00 -1.00000E+00  2.01333E-01
      -2    -1     0     0     0   514  0.000000000E+00  0.000000000E+00  1.503348880E+02  1.503348880E+02  0.000000000E+00  0.00000E+00  9.000E+00
      21    -1     0     0   514   516  0.000000000E+00  0.000000000E+00 -1.761159766E+02  1.761159766E+02  0.000000000E+00  0.00000E+00  9.000E+00
      -2     1     1     2     0   511  8.220730803E+00 -8.233840325E+00  1.495574745E+02  1.500097451E+02  3.300000131E-01  0.00000E+00  9.000E+00
      -3     1     1     2     0   516 -6.949787401E+00  1.299041514E+01 -1.328325424E+02  1.336479882E+02  5.000000000E-01  0.00000E+00  9.000E+00
       3     1     1     2   511     0 -1.270943403E+00 -4.756574812E+00 -4.250602062E+01  4.279313134E+01  5.000000000E-01  0.00000E+00  9.000E+00
</event>
<event>
      5  10001  2.40292E+09  3.70830E+00 -1.00000E+00  2.71352E-01
      -3    -1     0     0     0   512  0.000000000E+00  0.000000000E+00  5.556414317E+01  5.556414317E+01  0.000000000E+00  0.00000E+00  9.000E+00
       2    -1     0     0   513     0  0.000000000E+00  0.000000000E+00 -1.412344785E+01  1.412344785E+01  0.000000000E+00  0.00000E+00  9.000E+00
      -3     1     1     2     0   515  1.721977094E+01 -2.481350861E+00  2.606273670E+01  3.133997220E+01  5.000000000E-01  0.00000E+00  9.000E+00
      21     1     1     2   513   512 -1.717819067E+01 -1.226087178E+00  2.366198029E+01  2.926572800E+01  6.743495762E-07  0.00000E+00  9.000E+00
       2     1     1     2   515     0 -4.158027033E-02  3.707438039E+00 -8.284021668E+00  9.081890813E+00  3.300000131E-01  0.00000E+00  9.000E+00
</event>
<event>
      5  10001  2.40292E+09  6.56099E+00 -1.00000E+00  2.19533E-01
      21    -1     0     0   512   513  0.000000000E+00  0.000000000E+00  1.451922206E+01  1.451922206E+01  0.000000000E+00  0.00000E+00  9.000E+00
      21    -1     0     0   515   514  0.000000000E+00  0.000000000E+00 -1.343435246E+02  1.343435246E+02  0.000000000E+00  0.00000E+00  9.000E+00
      21     1     1     2   511   514 -1.216292960E+01  8.910377072E+00 -2.051046618E+01  2.545605819E+01  5.840038640E-07  0.00000E+00  9.000E+00
      21     1     1     2   515   513  5.786339819E+00 -1.045496589E+01 -1.101190643E+02  1.107655017E+02  1.907348633E-06  0.00000E+00  9.000E+00
      21     1     1     2   512   511  6.376589777E+00  1.544588818E+00  1.080522796E+01  1.264118677E+01  2.665600750E-07  0.00000E+00  9.000E+00
</event>
<event>
      5  10001  2.40292E+09  6.01917E+00 -1.00000E+00  2.25179E-01
      21    -1     0     0   516   513  0.000000000E+00  0.000000000E+00  4.249507504E+00  4.249507504E+00  0.000000000E+00  0.00000E+00  9.000E+00
       2    -1     0     0   514     0  0.000000000E+00  0.000000000E+00 -5.152454552E+02  5.152454552E+02  0.000000000E+00  0.00000E+00  9.000E+00
      21     1     1     2   512   513 -1.022723878E+01 -1.407246515E+00 -2.537351432E+00  1.063084701E+01  7.941074726E-07  0.00000E+00  9.000E+00
       2     1     1     2   516     0  1.141574099E+01  7.307781223E+00 -2.822640333E+02  2.825894835E+02  3.300000131E-01  0.00000E+00  9.000E+00
      21     1     1     2   514   512 -1.188502212E+00 -5.900534708E+00 -2.261945629E+02  2.262746321E+02  3.814697266E-06  0.00000E+00  9.000E+00
</event>
<event>
      5  10001  2.40292E+09  6.04283E+00 -1.00000E+00  2.24915E-01
      21    -1     0     0   512   513  0.000000000E+00  0.000000000E+00  1.653434993E+02  1.653434993E+02  0.000000000E+00  0.00000E+00  9.000E+00
      -1    -1     0     0     0   511  0.000000000E+00  0.000000000E+00 -3.447958032E+00  3.447958032E+00  0.000000000E+00  0.00000E+00  9.000E+00
      -1     1     1     2     0   514 -1.176432857E+01  3.369158580E+00  1.792593530E+01  2.170711202E+01  3.300000131E-01  0.00000E+00  9.000E+00
      21     1     1     2   512   511  1.498524823E+01 -8.481516039E+00  4.927081614E+01  5.219297943E+01  9.536743164E-07  0.00000E+00  9.000E+00
      21     1     1     2   514   513 -3.220919665E+00  5.112357459E+00  9.469878984E+01  9.489136589E+01  1.348699152E-06  0.00000E+00  9.000E+00
</event>
<event>
      5  10001  2.40292E+09  7.67163E+00 -1.00000E+00  2.10012E-01
      21    -1     0     0   515   514  0.000000000E+00  0.000000000E+00  1.751945966E+00  1.751945966E+00  0.000000000E+00  0.00000E+00  9.000E+00
      21    -1     0     0   513   515  0.000000000E+00  0.000000000E+00 -1.728115409E+02  1.728115409E+02  0.000000000E+00  0.00000E+00  9.000E+00
      21     1     1     2   513   516  4.021497236E+00  1.109523561E+01 -1.416000450E+02  1.420909900E+02  0.000000000E+00  0.00000E+00  9.000E+00
      21     1     1     2   511   514  4.759901112E-01 -7.064777302E+00 -2.031569794E+01  2.151430287E+01  0.000000000E+00  0.00000E+00  9.000E+00
      21     1     1     2   516   511 -4.497487347E+00 -4.030458313E+00 -9.143851996E+00  1.095819401E+01  0.000000000E+00  0.00000E+00  9.000E+00
</event>
<event>
      5  10001  2.40292E+09  1.44088E+01 -1.00000E+00  1.78996E-01
      21    -1     0     0   512   511  0.000000000E+00  0.000000000E+00  4.155146779E+01  4.155146779E+01  0.000000000E+00  0.00000E+00  9.000E+00
      21    -1     0     0   513   517  0.000000000E+00  0.000000000E+00 -4.587955504E+01  4.587955504E+01  0.000000000E+00  0.00000E+00  9.000E+00
      21     1     1     2   512   517  5.328484001E+00 -1.837459406E+01 -4.086758235E+01  4.512402615E+01  0.000000000E+00  0.00000E+00  9.000E+00
      21     1     1     2   513   514 -3.716150219E+00  1.872468643E+00  1.191326206E+01  1.261910156E+01  2.384185791E-07  0.00000E+00  9.000E+00
      21     1     1     2   514   511 -1.612333782E+00  1.650212542E+01  2.462623304E+01  2.968789513E+01  1.066240300E-06  0.00000E+00  9.000E+00
</event>
<event>
      5  10001  2.40292E+09  6.38057E+00 -1.00000E+00  2.21327E-01
      21    -1     0     0   512   514  0.000000000E+00  0.000000000E+00  4.655093079E+01  4.655093079E+01  0.000000000E+00  0.00000E+00  9.000E+00
      21    -1     0     0   511   515  0.000000000E+00  0.000000000E+00 -2.176684301E+02  2.176684301E+02  0.000000000E+00  0.00000E+00  9.000E+00
      21     1     1     2   513   514 -1.147645344E+01 -5.748557625E+00  9.156656247E+00  1.576703054E+01  9.461944024E-07  0.00000E+00  9.000E+00
      21     1     1     2   511   513  5.124790797E+00  6.355208272E+00 -2.139861503E+02  2.141418330E+02  2.697398305E-06  0.00000E+00  9.000E+00
      21     1     1     2   512   515  6.351662643E+00 -6.066506471E-01  3.371199467E+01  3.431049735E+01  0.000000000E+00  0.00000E+00  9.000E+00
</event>
<event>
      5  10001  2.40292E+09  4.62148E+00 -1.00000E+00  2.49420E-01
      21    -1     0     0   511   513  0.000000000E+00  0.000000000E+00  3.949844356E+02  3.949844356E+02  0.000000000E+00  0.00000E+00  9.000E+00
       2    -1     0     0   513     0  0.000000000E+00  0.000000000E+00 -3.027910407E-01  3.027910407E-01  0.000000000E+00  0.00000E+00  9.000E+00
      21     1     1     2   511   516  8.119794937E+00  4.105496173E+00  1.676933181E+02  1.679399747E+02  0.000000000E+00  0.00000E+00  9.000E+00
       2     1     1     2   514     0 -9.107049150E+00 -3.452102231E+00  1.349820966E+02  1.353334056E+02  3.300000131E-01  0.00000E+00  9.000E+00
      21     1     1     2   516   514  9.872542134E-01 -6.533939422E-01  9.200622978E+01  9.201384631E+01  0.000000000E+00  0.00000E+00  9.000E+00
</event>
<event>
      5  10001  2.40292E+09  1.26315E+01 -1.00000E+00  1.84664E-01
      -4    -1     0     0     0   512  0.000000000E+00  0.000000000E+00  4.047833767E+01  4.047833767E+01  0.000000000E+00  0.00000E+00  9.000E+00
      21    -1     0     0   511   514  0.000000000E+00  0.000000000E+00 -3.435163358E+01  3.435163358E+01  0.000000000E+00  0.00000E+00  9.000E+00
      -4     1     1     2     0   514 -9.921255829E+00  5.303860598E+00  3.825325394E+01  3.990142468E+01  1.500000000E+00  0.00000E+00  9.000E+00
      21     1     1     2   513   512 -6.771661208E-01 -1.134636605E+00 -9.560423886E+00  9.651303490E+00  2.064765462E-07  0.00000E+00  9.000E+00
      21     1     1     2   511   513  1.059842195E+01 -4.169223993E+00 -2.256612596E+01  2.527724307E+01  2.384185791E-07  0.00000E+00  9.000E+00
</event>
<event>
      5  10001  2.40292E+09  1.27373E+01 -1.00000E+00  1.84294E-01
      21    -1     0     0   515   513  0.000000000E+00  0.000000000E+00  3.796886680E+01  3.796886680E+01  0.000000000E+00  0.00000E+00  9.000E+00
      21    -1     0     0   511   516  0.000000000E+00  0.000000000E+00 -9.631795269E+00  9.631795269E+00  0.000000000E+00  0.00000E+00  9.000E+00
      21     1     1     2   515   516  2.793650169E+00 -9.652033746E+00  3.045096548E+01  3.206598721E+01  3.371747881E-07  0.00000E+00  9.000E+00
      21     1     1     2   511   512 -5.978302762E+00  1.115648674E+00 -2.067904989E+00  6.423473120E+00  4.214684851E-08  0.00000E+00  9.000E+00
      21     1     1     2   512   513  3.184652593E+00  8.536385072E+00 -4.598896152E-02  9.111201744E+00  1.691831474E-08  0.00000E+00  9.000E+00
</event>
<event>
      5  10001  2.40292E+09  1.05672E+01 -1.00000E+00  1.92971E-01
      21    -1     0     0   514   511  0.000000000E+00  0.000000000E+00  3.795057371E+01  3.795057371E+01  0.000000000E+00  0.00000E+00  9.000E+00
       2    -1     0     0   513     0  0.000000000E+00  0.000000000E+00 -1.827116123E+02  1.827116123E+02  0.000000000E+00  0.00000E+00  9.000E+00
      21     1     1     2   513   517  3.857201475E+00  8.869048317E+00 -2.137673452E+01  2.346279609E+01  6.307962682E-07  0.00000E+00  9.000E+00
      21     1     1     2   517   511 -3.262886984E+00 -1.941951837E+01  3.409102839E+01  3.936956111E+01  0.000000000E+00  0.00000E+00  9.000E+00
       2     1     1     2   514     0 -5.943144910E-01  1.055047005E+01 -1.574753325E+02  1.578298288E+02  3.300000131E-01  0.00000E+00  9.000E+00
</event>
<event>
      5  10001  2.40292E+09  8.87819E+00 -1.00000E+00  2.01865E-01
       2    -1     0     0   513     0  0.000000000E+00  0.000000000E+00  1.061432024E+00  1.061432024E+00  0.000000000E+00  0.00000E+00  9.000E+00
       2    -1     0     0   512     0  0.000000000E+00  0.000000000E+00 -6.076963213E+02  6.076963213E+02  0.000000000E+00  0.00000E+00  9.000E+00
       2     1     1     2   512     0  5.087334381E+00  1.912652356E+01 -1.176487013E+02  1.193022661E+02  3.300000131E-01  0.00000E+00  9.000E+00
       2     1     1     2   511     0 -3.118794004E+00 -6.137120911E+00 -2.610775784E+02  2.611685317E+02  3.300000131E-01  0.00000E+00  9.000E+00
      21     1     1     2   513   511 -1.968540377E+00 -1.298940265E+01 -2.279086095E+02  2.282869554E+02  2.697398305E-06  0.00000E+00  9.000E+00
</event>
<event>
      5  10001  2.40292E+09  1.07192E+01 -1.00000E+00  1.92278E-01
      21    -1     0     0   514   511  0.000000000E+00  0.000000000E+00  1.932092036E+00  1.932092036E+00  0.000000000E+00  0.00000E+00  9.000E+00
      21    -1     0     0   515   514  0.000000000E+00  0.000000000E+00 -6.643680366E+01  6.643680366E+01  0.000000000E+00  0.00000E+00  9.000E+00
      21     1     1     2   515   512 -6.596953288E+00  7.194931782E-01 -3.033755389E+01  3.105486498E+01  6.743495762E-07  0.00000E+00  9.000E+00
      21     1     1     2   516   511  3.902467931E+00 -2.058324541E+00 -1.732296931E+00  4.739916510E+00  2.502330486E-07  0.00000E+00  9.000E+00
      21     1     1     2   512   516  2.694485357E+00  1.338831363E+00 -3.243486080E+01  3.257411420E+01  4.768371582E-07  0.00000E+00  9.000E+00
</event>
<event>
      5  10001 -2.40292E+09  5.46125E+00 -1.00000E+00  2.31927E-01
      21    -1     0     0   513   512  0.000000000E+00  0.000000000E+00  1.799512909E+01  1.799512909E+01  0.000000000E+00  0.00000E+00  9.000E+00
      21    -1     0     0   517   513  0.000000000E+00  0.000000000E+00 -2.822646340E+01  2.822646340E+01  0.000000000E+00  0.00000E+00  9.000E+00
      21     1     1     2   517   515  7.351247398E+00 -7.446628210E+00 -2.383604837E+01  2.603171742E+01  4.768371582E-07  0.00000E+00  9.000E+00
      21     1     1     2   511   512 -2.668343983E+00  7.809475734E+00  1.307701418E+01  1.546338484E+01  6.078504936E-07  0.00000E+00  9.000E+00
      21     1     1     2   515   511 -4.682903415E+00 -3.628475235E-01  5.276998748E-01  4.726490228E+00  1.032382731E-07  0.00000E+00  9.000E+00
</event>
<event>
      5  10001  2.40292E+09  3.99411E+00 -1.00000E+00  2.63513E-01
      21    -1     0     0   511   512  0.000000000E+00  0.000000000E+00  4.895523409E-01  4.895523409E-01  0.000000000E+00  0.00000E+00  9.000E+00
       2    -1     0     0   513     0  0.000000000E+00  0.000000000E+00 -7.963849897E+02  7.963849897E+02  0.000000000E+00  0.00000E+00  9.000E+00
      21     1     1     2   511   514 -5.630659889E+00 -9.749521262E+00 -7.854249625E+01  7.934532887E+01  1.907348633E-06  0.00000E+00  9.000E+00
       2     1     1     2   514     0  1.805984556E+00  1.089905645E+01 -4.051545400E+02  4.053052692E+02  3.300000131E-01  0.00000E+00  9.000E+00
      21     1     1     2   513   512  3.824675332E+00 -1.149535190E+00 -3.121984011E+02  3.122239440E+02  5.394796609E-06  0.00000E+00  9.000E+00
</event>
<event>
      5  10001  2.40292E+09  1.02828E+01 -1.00000E+00  1.94310E-01
      21    -1     0     0   511   514  0.000000000E+00  0.000000000E+00  8.118755263E+01  8.118755263E+01  0.000000000E+00  0.00000E+00  9.000E+00
      21    -1     0     0   513   512  0.000000000E+00  0.000000000E+00 -1.408913662E+01  1.408913662E+01  0.000000000E+00  0.00000E+00  9.000E+00
      21     1     1     2   515   512 -6.078374132E+00  7.726974985E+00  6.474497732E-01  9.852510630E+00  1.967009721E-07  0.00000E+00  9.000E+00
      21     1     1     2   513   514  1.400540134E+01 -1.427660985E+01  1.933667834E+00  2.009258388E+01  3.244212427E-07  0.00000E+00  9.000E+00
      21     1     1     2   511   515 -7.927027210E+00  6.549634865E+00  6.451729841E+01  6.533159474E+01  0.000000000E+00  0.00000E+00  9.000E+00
</event>
<event>
      5  10001  2.40292E+09  1.01921E+01 -1.00000E+00  1.94749E-01
      21    -1     0     0   513   512  0.000000000E+00  0.000000000E+00  1.777872179E+02  1.777872179E+02  0.000000000E+00  0.00000E+00  9.000E+00
      21    -1     0     0   517   515  0.000000000E+00  0.000000000E+00 -1.601979356E+01  1.601979356E+01  0.000000000E+00  0.00000E+00  9.000E+00
      21     1     1     2   516   515 -6.602731050E+00  2.056379291E+01  1.283351139E+01  2.512299048E+01  3.769728732E-07  0.00000E+00  9.000E+00
      21     1     1     2   517   512 -3.411304414E+00 -1.866681794E+01 -4.220993682E-01  1.898065483E+01  6.106976908E-07  0.00000E+00  9.000E+00
      21     1     1     2   513   516  1.001403546E+01 -1.896974970E+00  1.493560123E+02  1.497033662E+02  0.000000000E+00  0.00000E+00  9.000E+00
</event>
<event>
      5  10001  2.40292E+09  3.41597E+00 -1.00000E+00  2.80618E-01
      21    -1     0     0   512   515  0.000000000E+00  0.000000000E+00  6.455069037E+01  6.455069037E+01  0.000000000E+00  0.00000E+00  9.000E+00
      21    -1     0     0   516   514  0.000000000E+00  0.000000000E+00 -6.379746962E+02  6.379746962E+02  0.000000000E+00  0.00000E+00  9.000E+00
      21     1     1     2   511   514 -1.863654977E+00 -1.501003975E+01 -2.683314382E+01  3.080246922E+01  2.477718555E-06  0.00000E+00  9.000E+00
      21     1     1     2   516   515 -5.689952669E-01  1.261189608E+01 -6.090447980E+02  6.091756312E+02  1.078959322E-05  0.00000E+00  9.000E+00
      21     1     1     2   512   511  2.432650244E+00  2.398143675E+00  6.245393600E+01  6.254728613E+01  1.348699152E-06  0.00000E+00  9.000E+00
</event>
<event>
      5  10001  2.40292E+09  4.98028E+00 -1.00000E+00  2.42795E-01
      -1    -1     0     0     0   511  0.000000000E+00  0.000000000E+00  3.930586803E+02  3.930586803E+02  0.000000000E+00  0.00000E+00  9.000E+00
      21    -1     0     0   512   514  0.000000000E+00  0.000000000E+00 -3.744969355E+01  3.744969355E+01  0.000000000E+00  0.00000E+00  9.000E+00
      -1     1     1     2     0   513 -8.271801126E+00 -2.321014625E+01  3.648782239E+02  3.657093938E+02  3.300000131E-01  0.00000E+00  9.000E+00
      21     1     1     2   512   511  1.325039568E+01  2.308087013E+01  2.113776143E+01  3.398682847E+01  2.384185791E-07  0.00000E+00  9.000E+00
      21     1     1     2   513   514 -4.978594556E+00  1.292761173E-01 -3.040699859E+01  3.081215149E+01  1.685873940E-06  0.00000E+00  9.000E+00
</event>
<event>
      5  10001  2.40292E+09  4.74212E+00 -1.00000E+00  2.47094E-01
       4    -1     0     0   511     0  0.000000000E+00  0.000000000E+00  2.349354511E+01  2.349354511E+01  0.000000000E+00  0.00000E+00  9.000E+00
      21    -1     0     0   513   514  0.000000000E+00  0.000000000E+00 -9.226077158E+01  9.226077158E+01  0.000000000E+00  0.00000E+00  9.000E+00
      21     1     1     2   513   515  1.208445299E+01 -2.236109100E+00 -8.728311178E+01  8.814406270E+01  9.536743164E-07  0.00000E+00  9.000E+00
       4     1     1     2   515     0 -1.399878949E+01  6.573056063E+00  1.573768128E+01  2.211551006E+01  1.500000000E+00  0.00000E+00  9.000E+00
      21     1     1     2   511   514  1.914336503E+00 -4.336946963E+00  2.778204029E+00  5.494743928E+00  6.664001875E-08  0.00000E+00  9.000E+00
</event>
<event>
      5  10001  2.40292E+09  1.58910E+01 -1.00000E+00  1.75008E-01
       2    -1     0     0   514     0  0.000000000E+00  0.000000000E+00  1.482846968E+03  1.482846968E+03  0.000000000E+00  0.00000E+00  9.000E+00
      21    -1     0     0   511   512  0.000000000E+00  0.000000000E+00 -8.415644525E-02  8.415644525E-02  0.000000000E+00  0.00000E+00  9.000E+00
      21     1     1     2   514   512 -4.002977084E+00  7.186172508E-01  1.855285211E+02  1.855730917E+02  0.000000000E+00  0.00000E+00  9.000E+00
       2     1     1     2   513     0  2.948124513E+00  2.088120475E+00  1.259364486E+03  1.259369711E+03  3.300000131E-01  0.00000E+00  9.000E+00
      21     1     1     2   511   513  1.054852571E+00 -2.806737726E+00  3.786980468E+01  3.798832185E+01  1.430511475E-06  0.00000E+00  9.000E+00
</event>
<event>
      5  10001  2.40292E+09  6.07371E+00 -1.00000E+00  2.24574E-01
      21    -1     0     0   511   512  0.000000000E+00  0.000000000E+00  1.091982697E+02  1.091982697E+02  0.000000000E+00  0.00000E+00  9.000E+00
       3    -1     0     0   515     0  0.000000000E+00  0.000000000E+00 -3.512460075E+02  3.512460075E+02  0.000000000E+00  0.00000E+00  9.000E+00
      21     1     1     2   515   513  1.094035161E+01 -9.401828846E+00  9.957730964E+00  1.752832237E+01  5.331201500E-07  0.00000E+00  9.000E+00
       3     1     1     2   511     0 -1.698043833E+01  1.003990106E+01 -3.470835691E+02  3.476440548E+02  5.000000000E-01  0.00000E+00  9.000E+00
      21     1     1     2   513   512  6.040086718E+00 -6.380722115E-01  9.507810027E+01  9.527190003E+01  1.348699152E-06  0.00000E+00  9.000E+00
</event>
<event>
      5  10001  2.40292E+09  9.35980E+00 -1.00000E+00  1.99078E-01
      21    -1     0     0   514   511  0.000000000E+00  0.000000000E+00  9.786194537E+00  9.786194537E+00  0.000000000E+00  0.00000E+00  9.000E+00
      21    -1     0     0   512   514  0.000000000E+00  0.000000000E+00 -2.953868089E+02  2.953868089E+02  0.000000000E+00  0.00000E+00  9.000E+00
      21     1     1     2   512   515  5.753557008E+00  7.416713723E+00 -2.736596961E+02  2.738206353E+02  0.000000000E+00  0.00000E+00  9.000E+00
      21     1     1     2   515   513 -1.311321896E+01 -1.633873509E+00 -1.633628543E+01  2.101190795E+01  3.371747881E-07  0.00000E+00  9.000E+00
      21     1     1     2   513   511  7.359661949E+00 -5.782840214E+00  4.395367129E+00  1.034046020E+01  5.870376707E-07  0.00000E+00  9.000E+00
</event>
<event>
      5  10001  2.40292E+09  1.33346E+01 -1.00000E+00  1.82288E-01
      21    -1     0     0   516   515  0.000000000E+00  0.000000000E+00  1.337373071E+01  1.337373071E+01  0.000000000E+00  0.00000E+00  9.000E+00
      21    -1     0     0   511   514  0.000000000E+00  0.000000000E+00 -1.266809805E+02  1.266809805E+02  0.000000000E+00  0.00000E+00  9.000E+00
      21     1     1     2   511   512 -1.500190936E+01  1.500258841E+00 -2.749920902E-01  1.507924672E+01  4.580289492E-07  0.00000E+00  9.000E+00
      21     1     1     2   512   515  2.832181099E+01 -2.126953033E+00 -3.172002937E+01  4.257709678E+01  8.259061849E-07  0.00000E+00  9.000E+00
      21     1     1     2   516   514 -1.331990163E+01  6.266941919E-01 -8.131222837E+01  8.239836775E+01  9.536743164E-07  0.00000E+00  9.000E+00
</event>
<event>
      5  10001  2.40292E+09  5.78770E+00 -1.00000E+00  2.27849E-01
      21    -1     0     0   511   515  0.000000000E+00  0.000000000E+00  1.888524317E+00  1.888524317E+00  0.000000000E+00  0.00000E+00  9.000E+00
       2    -1     0     0   512     0  0.000000000E+00  0.000000000E+00 -6.752756257E+02  6.752756257E+02  0.000000000E+00  0.00000E+00  9.000E+00
      21     1     1     2   512   515 -2.902431503E+00  1.706316895E+01 -1.896063603E+02  1.903947156E+02  2.697398305E-06  0.00000E+00  9.000E+00
       2     1     1     2   513     0  2.669156749E+00 -1.128033726E+01 -4.793253138E+02  4.794655730E+02  3.300000131E-01  0.00000E+00  9.000E+00
      21     1     1     2   511   513  2.332747536E-01 -5.782831693E+00 -4.455427356E+00  7.303861473E+00  4.578319638E-07  0.00000E+00  9.000E+00
</event>
<event>
      5  10001  2.40292E+09  6.19329E+00 -1.00000E+00  2.23277E-01
       2    -1     0     0   514     0  0.000000000E+00  0.000000000E+00  1.575570934E+02  1.575570934E+02  0.000000000E+00  0.00000E+00  9.000E+00
      21    -1     0     0   513   514  0.000000000E+00  0.000000000E+00 -1.564398335E+00  1.564398335E+00  0.000000000E+00  0.00000E+00  9.000E+00
      21     1     1     2   513   511  1.088977258E+01 -8.878803591E+00  5.074916529E+01  5.265831442E+01  6.743495762E-07  0.00000E+00  9.000E+00
      21     1     1     2   511   512 -8.892480723E+00  4.981768057E+00  4.902522856E+01  5.007361842E+01  9.536743164E-07  0.00000E+00  9.000E+00
       2     1     1     2   512     0 -1.997291855E+00  3.897035534E+00  5.621830121E+01  5.638955889E+01  3.300000131E-01  0.00000E+00  9.000E+00
</event>
<event>
      5  10001  2.40292E+09  7.37327E+00 -1.00000E+00  2.12344E-01
      -2    -1     0     0     0   515  0.000000000E+00  0.000000000E+00  8.419636830E+01  8.419636830E+01  0.000000000E+00  0.00000E+00  9.000E+00
      -4    -1     0     0     0   511  0.000000000E+00  0.000000000E+00 -1.245772348E+02  1.245772348E+02  0.000000000E+00  0.00000E+00  9.000E+00
      -4     1     1     2     0   515  2.954992435E+00 -1.096650423E+01 -1.218792438E+02  1.224164869E+02  1.500000000E+00  0.00000E+00  9.000E+00
      -2     1     1     2     0   513 -8.890967944E+00  1.162480834E+01  7.815189406E+01  7.951108681E+01  3.300000131E-01  0.00000E+00  9.000E+00
      21     1     1     2   513   511  5.935975509E+00 -6.583041079E-01  3.346483180E+00  6.846029449E+00  1.115100797E-07  0.00000E+00  9.000E+00
</event>
<event>
      5  10001  2.40292E+09  1.91446E+01 -1.00000E+00  1.67908E-01
      21    -1     0     0   512   511  0.000000000E+00  0.000000000E+00  3.043376890E+00  3.043376890E+00  0.000000000E+00  0.00000E+00  9.000E+00
      21    -1     0     0   515   514  0.000000000E+00  0.000000000E+00 -7.643759865E+01  7.643759865E+01  0.000000000E+00  0.00000E+00  9.000E+00
      21     1     1     2   512   514  1.733092582E+00 -8.531943880E+00 -2.053872335E+01  2.230777517E+01  0.000000000E+00  0.00000E+00  9.000E+00
      21     1     1     2   515   516  9.773818168E-01  6.010831273E+00 -2.342539932E+00  6.524788206E+00  3.264680848E-07  0.00000E+00  9.000E+00
      21     1     1     2   516   511 -2.710474399E+00  2.521112607E+00 -5.051295848E+01  5.064841216E+01  0.000000000E+00  0.00000E+00  9.000E+00
</event>
<event>
      5  10001  2.40292E+09  1.17300E+01 -1.00000E+00  1.88019E-01
       1    -1     0     0   513     0  0.000000000E+00  0.000000000E+00  8.034240073E+01  8.034240073E+01  0.000000000E+00  0.00000E+00  9.000E+00
      21    -1     0     0   517   511  0.000000000E+00  0.000000000E+00 -2.838021295E+01  2.838021295E+01  0.000000000E+00  0.00000E+00  9.000E+00
      21     1     1     2   513   511  1.088214302E+01  1.171563052E+01 -2.417062287E+01  2.898096004E+01  4.768371582E-07  0.00000E+00  9.000E+00
      21     1     1     2   517   514 -1.141639660E+01  1.875880271E-03  4.623290194E+01  4.762158477E+01  0.000000000E+00  0.00000E+00  9.000E+00
       1     1     1     2   514     0  5.342535792E-01 -1.171750640E+01  2.989990871E+01  3.212006886E+01  3.300000131E-01  0.00000E+00  9.000E+00
</event>
<event>
      5  10001  2.40292E+09  6.39490E+00 -1.00000E+00  2.21181E-01
      21    -1     0     0   512   511  0.000000000E+00  0.000000000E+00  1.196915253E+02  1.196915253E+02  0.000000000E+00  0.00000E+00  9.000E+00
      21    -1     0     0   513   515  0.000000000E+00  0.000000000E+00 -3.497459163E+01  3.497459163E+01  0.000000000E+00  0.00000E+00  9.000E+00
      21     1     1     2   512   515  9.172716182E+00  1.236067577E+01  5.133591960E+01  5.359385850E+01  6.743495762E-07  0.00000E+00  9.000E+00
      21     1     1     2   516   511 -1.054317770E+01 -6.114345747E+00  6.636459790E+01  6.747446684E+01  1.348699152E-06  0.00000E+00  9.000E+00
      21     1     1     2   513   516  1.370461515E+00 -6.246330028E+00 -3.298358378E+01  3.359779164E+01  6.743495762E-07  0.00000E+00  9.000E+00
</event>
<event>
      5  10001  2.40292E+09  8.81967E+00 -1.00000E+00  2.02219E-01
      21    -1     0     0   514   515  0.000000000E+00  0.000000000E+00  7.485743731E+01  7.485743731E+01  0.000000000E+00  0.00000E+00  9.000E+00
      21    -1     0     0   513   517  0.000000000E+00  0.000000000E+00 -3.546354589E+01  3.546354589E+01  0.000000000E+00  0.00000E+00  9.000E+00
      21     1     1     2   514   517 -9.573399824E+00 -3.818957693E+00 -3.341282056E+01  3.496642675E+01  4.768371582E-07  0.00000E+00  9.000E+00
      21     1     1     2   513   511  6.067174483E+00  9.559049824E+00  5.795710264E+01  5.905261880E+01  6.743495762E-07  0.00000E+00  9.000E+00
      21     1     1     2   511   515  3.506225341E+00 -5.740092131E+00  1.484960933E+01  1.630193765E+01  1.685873940E-07  0.00000E+00  9.000E+00
</event>
<event>
      5  10001  2.40292E+09  1.16593E+01 -1.00000E+00  1.88299E-01
      21    -1     0     0   512   513  0.000000000E+00  0.000000000E+00  1.494113342E+01  1.494113342E+01  0.000000000E+00  0.00000E+00  9.000E+00
      21    -1     0     0   516   515  0.000000000E+00  0.000000000E+00 -1.161339472E+01  1.161339472E+01  0.000000000E+00  0.00000E+00  9.000E+00
      21     1     1     2   512   515  3.406426612E+00  9.906958013E+00  8.833562035E+00  1.370340752E+01  2.920019320E-07  0.00000E+00  9.000E+00
      21     1     1     2   514   513 -1.846111537E+00 -1.054355779E+00  3.045484656E-01  2.147683330E+00  4.423537138E-08  0.00000E+00  9.000E+00
      21     1     1     2   516   514 -1.560315075E+00 -8.852602234E+00 -5.810371805E+00  1.070343730E+01  3.153981341E-07  0.00000E+00  9.000E+00
</event>
<event>
      5  10001  2.40292E+09  2.72356E+00 -1.00000E+00  3.10065E-01
      21    -1     0     0   512   513  0.000000000E+00  0.000000000E+00  5.041074311E+00  5.041074311E+00  0.000000000E+00  0.00000E+00  9.000E+00
       2    -1     0     0   513     0  0.000000000E+00  0.000000000E+00 -5.042082085E+02  5.042082085E+02  0.000000000E+00  0.00000E+00  9.000E+00
      21     1     1     2   514   511 -9.309146563E+00  5.339304351E+00 -1.750075529E+02  1.753362825E+02  2.697398305E-06  0.00000E+00  9.000E+00
       2     1     1     2   511     0  1.155332905E+01 -3.796201225E+00 -3.285344702E+02  3.287596349E+02  3.300000131E-01  0.00000E+00  9.000E+00
      21     1     1     2   512   514 -2.244182491E+00 -1.543103126E+00  4.374888891E+00  5.153365416E+00  4.129530925E-07  0.00000E+00  9.000E+00
</event>
<event>
      5  10001  2.40292E+09  1.27360E+01 -1.00000E+00  1.84299E-01
       1    -1     0     0   511     0  0.000000000E+00  0.000000000E+00  6.151486931E+01  6.151486931E+01  0.000000000E+00  0.00000E+00  9.000E+00
      21    -1     0     0   512   515  0.000000000E+00  0.000000000E+00 -5.774466861E+01  5.774466861E+01  0.000000000E+00  0.00000E+00  9.000E+00
      21     1     1     2   511   513  1.352250758E+01 -7.609457703E+00 -3.204980024E+01  3.560831017E+01  4.768371582E-07  0.00000E+00  9.000E+00
       1     1     1     2   512     0 -1.896952574E+01  3.316299407E-01  5.728216965E+01  6.034325766E+01  3.300000131E-01  0.00000E+00  9.000E+00
      21     1     1     2   513   515  5.447018164E+00  7.277827762E+00 -2.146216870E+01  2.330797008E+01  3.371747881E-07  0.00000E+00  9.000E+00
</event>
<event>
      5  10001  2.40292E+09  8.65213E+00 -1.00000E+00  2.03255E-01
      21    -1     0     0   514   515  0.000000000E+00  0.000000000E+00  9.221001696E+01  9.221001696E+01  0.000000000E+00  0.00000E+00  9.000E+00
      21    -1     0     0   511   514  0.000000000E+00  0.000000000E+00 -9.405765347E+01  9.405765347E+01  0.000000000E+00  0.00000E+00  9.000E+00
      21     1     1     2   512   515  9.641568669E+00  1.110871070E+01  8.942936932E+01  9.063098475E+01  9.536743164E-07  0.00000E+00  9.000E+00
      21     1     1     2   516   512 -1.516845160E+01 -4.451921696E+00 -3.157732603E+01  3.531329849E+01  1.011524364E-06  0.00000E+00  9.000E+00
      21     1     1     2   511   516  5.526882929E+00 -6.656789008E+00 -5.969967979E+01  6.032338719E+01  6.743495762E-07  0.00000E+00  9.000E+00
</event>
<event>
      5  10001  2.40292E+09  2.51518E+00 -1.00000E+00  3.22046E-01
      21    -1     0     0   512   513  0.000000000E+00  0.000000000E+00  9.342295035E+01  9.342295035E+01  0.000000000E+00  0.00000E+00  9.000E+00
       2    -1     0     0   515     0  0.000000000E+00  0.000000000E+00 -6.858480659E+02  6.858480659E+02  0.000000000E+00  0.00000E+00  9.000E+00
      21     1     1     2   515   513 -4.511865269E+00 -9.598341914E+00 -5.820547220E+00  1.209809347E+01  4.042583694E-07  0.00000E+00  9.000E+00
       2     1     1     2   511     0  3.434269036E+00  1.187098655E+01 -6.768147725E+02  6.769276621E+02  3.300000131E-01  0.00000E+00  9.000E+00
      21     1     1     2   512   511  1.077596233E+00 -2.272644636E+00  9.021020420E+01  9.024526065E+01  1.651812370E-06  0.00000E+00  9.000E+00
</event>
<event>
      5  10001  2.40292E+09  9.00504E+00 -1.00000E+00  2.01108E-01
      21    -1     0     0   514   511  0.000000000E+00  0.000000000E+00  4.325206437E+02  4.325206437E+02  0.000000000E+00  0.00000E+00  9.000E+00
      21    -1     0     0   516   514  0.000000000E+00  0.000000000E+00 -1.991400984E+00  1.991400984E+00  0.000000000E+00  0.00000E+00  9.000E+00
      21     1     1     2   516   515 -1.582722653E+01 -5.118118255E+00  3.809196310E+01  4.156553725E+01  1.784161275E-06  0.00000E+00  9.000E+00
      21     1     1     2   515   513  6.004986579E+00  9.032702064E-01  2.625441708E+02  2.626143892E+02  3.814697266E-06  0.00000E+00  9.000E+00
      21     1     1     2   513   511  9.822239951E+00  4.214848049E+00  1.298931087E+02  1.303321182E+02  2.697398305E-06  0.00000E+00  9.000E+00
</event>
<event>
      5  10001  2.40292E+09  6.16479E+00 -1.00000E+00  2.23583E-01
      21    -1     0     0   514   511  0.000000000E+00  0.000000000E+00  9.372679016E+00  9.372679016E+00  0.000000000E+00  0.00000E+00  9.000E+00
       3    -1     0     0   513     0  0.000000000E+00  0.000000000E+00 -9.549411732E+01  9.549411732E+01  0.000000000E+00  0.00000E+00  9.000E+00
      21     1     1     2   513   511 -1.221453120E+01  1.196161477E+01 -5.262043440E+00  1.788754040E+01  6.019774043E-07  0.00000E+00  9.000E+00
       3     1     1     2   512     0  1.578090891E+01 -6.933700555E+00 -7.851145705E+01  8.038290973E+01  5.000000000E-01  0.00000E+00  9.000E+00
      21     1     1     2   514   512 -3.566377708E+00 -5.027914213E+00 -2.347937820E+00  6.596346208E+00  1.812804499E-07  0.00000E+00  9.000E+00
</event>
<event>
      5  10001  2.40292E+09  5.36956E+00 -1.00000E+00  2.33146E-01
      21    -1     0     0   511   513  0.000000000E+00  0.000000000E+00  3.292455621E+01  3.292455621E+01  0.000000000E+00  0.00000E+00  9.000E+00
      21    -1     0     0   516   515  0.000000000E+00  0.000000000E+00 -2.971423353E+02  2.971423353E+02  0.000000000E+00  0.00000E+00  9.000E+00
      21     1     1     2   512   513  2.741862789E+01  7.246702309E+00  2.108553711E+01  3.533971881E+01  1.599360450E-06  0.00000E+00  9.000E+00
      21     1     1     2   516   512 -2.244835754E+01 -9.278589478E+00 -2.877875233E+02  2.888108024E+02  3.814697266E-06  0.00000E+00  9.000E+00
      21     1     1     2   511   515 -4.970270354E+00  2.031887169E+00  2.484207133E+00  5.916370334E+00  1.115100797E-07  0.00000E+00  9.000E+00
</event>
<event>
      5  10001  2.40292E+09  9.53430E+00 -1.00000E+00  1.98122E-01
      21    -1     0     0   516   512  0.000000000E+00  0.000000000E+00  8.345410867E+00  8.345410867E+00  0.000000000E+00  0.00000E+00  9.000E+00
       2    -1     0     0   512     0  0.000000000E+00  0.000000000E+00 -4.706731456E+01  4.706731456E+01  0.000000000E+00  0.00000E+00  9.000E+00
      21     1     1     2   513   514  5.303390029E+00 -1.839291775E+00  2.171540174E+00  6.018681480E+00  1.115100797E-07  0.00000E+00  9.000E+00
       2     1     1     2   514     0 -8.492954260E+00 -5.418486166E+00 -4.019053367E+01  4.143522850E+01  3.300000131E-01  0.00000E+00  9.000E+00
      21     1     1     2   516   513  3.189564231E+00  7.257777941E+00 -7.029102038E-01  7.958815451E+00  1.056302106E-07  0.00000E+00  9.000E+00
</event>
<event>
      5  10001  2.40292E+09  4.59459E+00 -1.00000E+00  2.49953E-01
      21    -1     0     0   511   514  0.000000000E+00  0.000000000E+00  4.720036633E+01  4.720036633E+01  0.000000000E+00  0.00000E+00  9.000E+00
      21    -1     0     0   512   515  0.000000000E+00  0.000000000E+00 -1.483044938E+01  1.483044938E+01  0.000000000E+00  0.00000E+00  9.000E+00
      21     1     1     2   511   513  1.468829351E+01 -3.975705210E+00  2.163684416E+01  2.645194177E+01  3.371747881E-07  0.00000E+00  9.000E+00
      21     1     1     2   512   514 -1.435877917E+01  8.558466512E+00  1.949808595E+01  2.568262533E+01  2.384185791E-07  0.00000E+00  9.000E+00
      21     1     1     2   513   515 -3.295143395E-01 -4.582761301E+00 -8.765013161E+00  9.896248610E+00  2.064765462E-07  0.00000E+00  9.000E+00
</event>
<event>
      5  10001  2.40292E+09  9.50758E+00 -1.00000E+00  1.98267E-01
      21    -1     0     0   516   514  0.000000000E+00  0.000000000E+00  1.141200220E+01  1.141200220E+01  0.000000000E+00  0.00000E+00  9.000E+00
      21    -1     0     0   517   516  0.000000000E+00  0.000000000E+00 -1.798440461E+01  1.798440461E+01  0.000000000E+00  0.00000E+00  9.000E+00
      21     1     1     2   512   514  1.068854337E+01  2.323416298E+00  1.942924277E+00  1.110937340E+01  4.712160915E-08  0.00000E+00  9.000E+00
      21     1     1     2   517   511 -9.430194802E+00 -3.710549050E+00 -5.983938261E-01  1.015159216E+01  3.395536204E-07  0.00000E+00  9.000E+00
      21     1     1     2   511   512 -1.258348568E+00  1.387132752E+00 -7.916932860E+00  8.135441248E+00  1.884864366E-07  0.00000E+00  9.000E+00
</event>
<event>
      5  10001  2.40292E+09  6.37863E+00 -1.00000E+00  2.21347E-01
      -1    -1     0     0     0   514  0.000000000E+00  0.000000000E+00  1.290793661E+01  1.290793661E+01  0.000000000E+00  0.00000E+00  9.000E+00
      21    -1     0     0   511   513  0.000000000E+00  0.000000000E+00 -2.544606895E+01  2.544606895E+01  0.000000000E+00  0.00000E+00  9.000E+00
      -1     1     1     2     0   513 -7.426874217E+00 -6.778921812E+00 -5.856038208E+00  1.164106203E+01  3.300000131E-01  0.00000E+00  9.000E+00
      21     1     1     2   511   512  1.359175512E+01  8.412702117E+00 -1.064451952E+01  1.920456091E+01  4.616955931E-07  0.00000E+00  9.000E+00
      21     1     1     2   512   514 -6.164880902E+00 -1.633780305E+00  3.962425380E+00  7.508382617E+00  1.460009660E-07  0.00000E+00  9.000E+00
</event>
<event>
      5  10001  2.40292E+09  1.12140E+01 -1.00000E+00  1.90121E-01
      21    -1     0     0   515   512  0.000000000E+00  0.000000000E+00  5.956894417E+01  5.956894417E+01  0.000000000E+00  0.00000E+00  9.000E+00
      21    -1     0     0   514   515  0.000000000E+00  0.000000000E+00 -6.886464365E+00  6.886464365E+00  0.000000000E+00  0.00000E+00  9.000E+00
      21     1     1     2   511   512 -1.233782401E+01  3.327334965E+00  3.431000116E+01  3.661241918E+01  4.768371582E-07  0.00000E+00  9.000E+00
      21     1     1     2   513   511  1.168703593E+01 -7.944338966E+00  3.931876574E+00  1.466829860E+01  4.616955931E-07  0.00000E+00  9.000E+00
      21     1     1     2   514   513  6.507880794E-01  4.617004001E+00  1.444060207E+01  1.517469075E+01  1.685873940E-07  0.00000E+00  9.000E+00
</event>
<event>
      5  10001  2.40292E+09  7.79560E+00 -1.00000E+00  2.09084E-01
      21    -1     0     0   516   513  0.000000000E+00  0.000000000E+00  1.605718782E+02  1.605718782E+02  0.000000000E+00  0.00000E+00  9.000E+00
       2    -1     0     0   512     0  0.000000000E+00  0.000000000E+00 -5.347010924E+01  5.347010924E+01  0.000000000E+00  0.00000E+00  9.000E+00
      21     1     1     2   516   517  4.698976968E+00  5.909077530E+00  1.145657378E+02  1.148142232E+02  2.336015456E-06  0.00000E+00  9.000E+00
      21     1     1     2   512   513 -1.249120407E+01 -6.137638076E+00  4.452862340E+01  4.665296434E+01  4.768371582E-07  0.00000E+00  9.000E+00
       2     1     1     2   517     0  7.792227099E+00  2.285605453E-01 -5.199259219E+01  5.257479991E+01  3.300000131E-01  0.00000E+00  9.000E+00
</event>
<event>
      5  10001  2.40292E+09  1.01376E+01 -1.00000E+00  1.95016E-01
      -2    -1     0     0     0   511  0.000000000E+00  0.000000000E+00  5.343956900E+01  5.343956900E+01  0.000000000E+00  0.00000E+00  9.000E+00
      21    -1     0     0   511   514  0.000000000E+00  0.000000000E+00 -5.288418125E+00  5.288418125E+00  0.000000000E+00  0.00000E+00  9.000E+00
      -2     1     1     2     0   513 -7.061372544E+00  7.245909840E+00  4.580341944E+01  4.690872333E+01  3.300000131E-01  0.00000E+00  9.000E+00
      21     1     1     2   513   512  2.259785398E+00 -3.175503041E+00  3.707650490E+00  5.379323541E+00  1.032382731E-07  0.00000E+00  9.000E+00
      21     1     1     2   512   514  4.801587146E+00 -4.070406799E+00 -1.359919060E+00  6.439940254E+00  1.931411236E-07  0.00000E+00  9.000E+00
</event>
<event>
      5  10001  2.40292E+09  4.25632E+01 -1.00000E+00  1.43156E-01
      21    -1     0     0   512   511  0.000000000E+00  0.000000000E+00  6.890242793E+00  6.890242793E+00  0.000000000E+00  0.00000E+00  9.000E+00
       1    -1     0     0   513     0  0.000000000E+00  0.000000000E+00 -2.528129767E+02  2.528129767E+02  0.000000000E+00  0.00000E+00  9.000E+00
      21     1     1     2   513   511  8.087567920E+00  1.561736174E+01 -1.446644317E+01  2.277254313E+01  8.596304120E-07  0.00000E+00  9.000E+00
       1     1     1     2   515     0  1.648603019E+01 -1.534849071E+01 -1.548250928E+02  1.564553726E+02  3.300000131E-01  0.00000E+00  9.000E+00
      21     1     1     2   512   515 -2.457359811E+01 -2.688710325E-01 -7.663119791E+01  8.047530373E+01  1.348699152E-06  0.00000E+00  9.000E+00
</event>
<event>
      5  10001  2.40292E+09  1.77033E+00 -1.00000E+00  3.89496E-01
      21    -1     0     0   513   511  0.000000000E+00  0.000000000E+00  6.104861317E+01  6.104861317E+01  0.000000000E+00  0.00000E+00  9.000E+00
       1    -1     0     0   511     0  0.000000000E+00  0.000000000E+00 -5.728547145E+02  5.728547145E+02  0.000000000E+00  0.00000E+00  9.000E+00
      21     1     1     2   515   514  7.349739852E+00  1.028313498E+01 -5.401735912E+01  5.547645111E+01  3.234066955E-06  0.00000E+00  9.000E+00
       1     1     1     2   514     0 -7.673568939E+00 -1.202359115E+01 -5.179965738E+02  5.181930236E+02  3.300000131E-01  0.00000E+00  9.000E+00
      21     1     1     2   513   515  3.238290874E-01  1.740456169E+00  6.020783158E+01  6.023385291E+01  2.523185073E-06  0.00000E+00  9.000E+00
</event>
<event>
      5  10001  2.40292E+09  9.58744E+00 -1.00000E+00  1.97837E-01
      21    -1     0     0   512   514  0.000000000E+00  0.000000000E+00  3.618669377E+00  3.618669377E+00  0.000000000E+00  0.00000E+00  9.000E+00
      21    -1     0     0   511   515  0.000000000E+00  0.000000000E+00 -8.954779649E+01  8.954779649E+01  0.000000000E+00  0.00000E+00  9.000E+00
      21     1     1     2   512   515 -6.930871731E+00  7.163782128E+00 -4.519381681E+00  1.094447660E+01  1.884864366E-07  0.00000E+00  9.000E+00
      21     1     1     2   511   516  3.370552606E+00 -2.955352937E+00 -1.714769240E+01  1.772394117E+01  2.384185791E-07  0.00000E+00  9.000E+00
      21     1     1     2   516   514  3.560319125E+00 -4.208429191E+00 -6.426205304E+01  6.449804810E+01  9.536743164E-07  0.00000E+00  9.000E+00
</event>
<event>
      5  10001  2.40292E+09  5.42670E+00 -1.00000E+00  2.32382E-01
      21    -1     0     0   513   511  0.000000000E+00  0.000000000E+00  5.247070522E+00  5.247070522E+00  0.000000000E+00  0.00000E+00  9.000E+00
       2    -1     0     0   512     0  0.000000000E+00  0.000000000E+00 -2.182499769E+02  2.182499769E+02  0.000000000E+00  0.00000E+00  9.000E+00
      21     1     1     2   514   511 -4.503618178E+00 -9.381258558E+00 -2.286504151E+00  1.065451501E+01  3.068336886E-07  0.00000E+00  9.000E+00
       2     1     1     2   513     0  1.993658448E+00  1.419227721E+01 -4.947890381E+01  5.151374796E+01  3.300000131E-01  0.00000E+00  9.000E+00
      21     1     1     2   512   514  2.509959731E+00 -4.811018654E+00 -1.612374984E+02  1.613287844E+02  2.697398305E-06  0.00000E+00  9.000E+00
</event>
<event>
      5  10001  2.40292E+09  7.65097E+00 -1.00000E+00  2.10169E-01
      21    -1     0     0   514   515  0.000000000E+00  0.000000000E+00  8.076868249E+01  8.076868249E+01  0.000000000E+00  0.00000E+00  9.000E+00
      21    -1     0     0   511   513  0.000000000E+00  0.000000000E+00 -9.079693127E+01  9.079693127E+01  0.000000000E+00  0.00000E+00  9.000E+00
      -3     1     1     2     0   513  3.552838726E+00 -6.731090154E+00  2.795200986E+00  8.123631345E+00  5.000000000E-01  0.00000E+00  9.000E+00
       3     1     1     2   514     0 -5.735377010E+00  1.406338167E+01  7.437349807E+01  7.591008146E+01  5.000000000E-01  0.00000E+00  9.000E+00
      21     1     1     2   511   515  2.182538284E+00 -7.332291514E+00 -8.719694783E+01  8.753190095E+01  9.536743164E-07  0.00000E+00  9.000E+00
</event>
<event>
      5  10001  2.40292E+09  3.18843E+01 -1.00000E+00  1.51191E-01
      21    -1     0     0   512   513  0.000000000E+00  0.000000000E+00  1.258570142E+01  1.258570142E+01  0.000000000E+00  0.00000E+00  9.000E+00
      21    -1     0     0   511   512  0.000000000E+00  0.000000000E+00 -5.536495731E+01  5.536495731E+01  0.000000000E+00  0.00000E+00  9.000E+00
      21     1     1     2   511   515 -5.810774691E+00  1.484429918E+01 -2.209793256E+01  2.724769612E+01  4.129530925E-07  0.00000E+00  9.000E+00
      21     1     1     2   515   514  1.339789697E+01 -7.377033319E+00 -2.492453427E+01  2.924306195E+01  3.371747881E-07  0.00000E+00  9.000E+00
      21     1     1     2   514   513 -7.587122275E+00 -7.467265866E+00  4.243210944E+00  1.145990066E+01  3.862822472E-07  0.00000E+00  9.000E+00
</event>
<event>
      5  10001  2.40292E+09  1.39929E+01 -1.00000E+00  1.80226E-01
      21    -1     0     0   514   513  0.000000000E+00  0.000000000E+00  2.210398771E+01  2.210398771E+01  0.000000000E+00  0.00000E+00  9.000E+00
       2    -1     0     0   515     0  0.000000000E+00  0.000000000E+00 -8.576025365E+02  8.576025365E+02  0.000000000E+00  0.00000E+00  9.000E+00
      21     1     1     2   511   513  6.112723424E+00  6.362079551E+00  1.887612003E+01  2.083625090E+01  7.152557373E-07  0.00000E+00  9.000E+00
       2     1     1     2   514     0  1.318651739E-01 -1.762029314E+01 -8.373027622E+02  8.374882188E+02  3.300000131E-01  0.00000E+00  9.000E+00
      21     1     1     2   515   511 -6.244588598E+00  1.125821359E+01 -1.707190662E+01  2.138205452E+01  4.129530925E-07  0.00000E+00  9.000E+00
</event>
<event>
      5  10001  2.40292E+09  6.61772E+00 -1.00000E+00  2.18986E-01
      21    -1     0     0   512   515  0.000000000E+00  0.000000000E+00  2.713531866E+01  2.713531866E+01  0.000000000E+00  0.00000E+00  9.000E+00
       4    -1     0     0   513     0  0.000000000E+00  0.000000000E+00 -9.119925419E+00  9.119925419E+00  0.000000000E+00  0.00000E+00  9.000E+00
      21     1     1     2   513   515  1.799215152E+00 -1.471719273E+01  1.079003429E+01  1.833733287E+01  2.064765462E-07  0.00000E+00  9.000E+00
      21     1     1     2   512   514  2.394920979E+00  7.846494004E+00  3.407922972E+00  8.883527094E+00  7.300048300E-08  0.00000E+00  9.000E+00
       4     1     1     2   514     0 -4.194136131E+00  6.870698723E+00  3.817435984E+00  9.034384114E+00  1.500000000E+00  0.00000E+00  9.000E+00
</event>
<event>
      5  10001  2.40292E+09  9.60029E+00 -1.00000E+00  1.97768E-01
      21    -1     0     0   511   515  0.000000000E+00  0.000000000E+00  2.560801579E+01  2.560801579E+01  0.000000000E+00  0.00000E+00  9.000E+00
       2    -1     0     0   513     0  0.000000000E+00  0.000000000E+00 -5.066974774E+02  5.066974774E+02  0.000000000E+00  0.00000E+00  9.000E+00
      21     1     1     2   511   516  7.276082904E+00  1.286266382E+01 -1.989163382E+01  2.478036721E+01  2.384185791E-07  0.00000E+00  9.000E+00
      21     1     1     2   513   515 -5.574548194E+00 -3.414385346E+00  2.265381159E+01  2.357814230E+01  4.768371582E-07  0.00000E+00  9.000E+00
       2     1     1     2   516     0 -1.701534709E+00 -9.448278471E+00 -4.838516393E+02  4.839469836E+02  3.300000131E-01  0.00000E+00  9.000E+00
</event>
<event>
      5  10001  2.40292E+09  3.08768E+00 -1.00000E+00  2.92987E-01
      21    -1     0     0   512   513  0.000000000E+00  0.000000000E+00  1.120198707E+01  1.120198707E+01  0.000000000E+00  0.00000E+00  9.000E+00
      21    -1     0     0   516   514  0.000000000E+00  0.000000000E+00 -5.045867615E+01  5.045867615E+01  0.000000000E+00  0.00000E+00  9.000E+00
      21     1     1     2   512   514 -1.094514058E+01 -2.810436246E+00  7.375646208E+00  1.349425105E+01  3.953724850E-07  0.00000E+00  9.000E+00
      21     1     1     2   516   511  8.625771619E+00  2.878044496E+00 -2.927677562E+01  3.065642945E+01  3.371747881E-07  0.00000E+00  9.000E+00
      21     1     1     2   511   513  2.319368964E+00 -6.760824921E-02 -1.735555968E+01  1.750998273E+01  0.000000000E+00  0.00000E+00  9.000E+00
</event>
<event>
      5  10001  2.40292E+09  1.07890E+01 -1.00000E+00  1.91964E-01
      21    -1     0     0   514   512  0.000000000E+00  0.000000000E+00  5.687244347E+02  5.687244347E+02  0.000000000E+00  0.00000E+00  9.000E+00
      21    -1     0     0   511   515  0.000000000E+00  0.000000000E+00 -1.287719194E+00  1.287719194E+00  0.000000000E+00  0.00000E+00  9.000E+00
      21     1     1     2   514   515 -2.888080697E+00 -1.479929681E+01  4.009101863E+02  4.011936411E+02  0.000000000E+00  0.00000E+00  9.000E+00
       2     1     1     2   511     0 -7.294493592E+00  1.123779222E+01  4.907008884E+01  5.086727956E+01  3.300000131E-01  0.00000E+00  9.000E+00
      -2     1     1     2     0   512  1.018257429E+01  3.561504587E+00  1.174564403E+02  1.179512332E+02  3.300000131E-01  0.00000E+00  9.000E+00
</event>
<event>
      5  10001  2.40292E+09  8.64118E+00 -1.00000E+00  2.03324E-01
      21    -1     0     0   513   511  0.000000000E+00  0.000000000E+00  3.659753137E+00  3.659753137E+00  0.000000000E+00  0.00000E+00  9.000E+00
      21    -1     0     0   516   512  0.000000000E+00  0.000000000E+00 -8.678162987E+01  8.678162987E+01  0.000000000E+00  0.00000E+00  9.000E+00
      21     1     1     2   513   512 -9.153986707E+00 -1.269241090E+00 -7.096920114E+01  7.156838657E+01  9.536743164E-07  0.00000E+00  9.000E+00
      21     1     1     2   516   514  3.793119326E+00 -3.344257964E+00 -2.940755267E-01  5.065401857E+00  1.623816395E-07  0.00000E+00  9.000E+00
      21     1     1     2   514   511  5.360867380E+00  4.613499053E+00 -1.185860006E+01  1.380759458E+01  1.685873940E-07  0.00000E+00  9.000E+00
</event>
<event>
      5  10001  2.40292E+09  9.96630E+00 -1.00000E+00  1.95868E-01
       3    -1     0     0   513     0  0.000000000E+00  0.000000000E+00  2.168954609E+02  2.168954609E+02  0.000000000E+00  0.00000E+00  9.000E+00
      21    -1     0     0   514   515  0.000000000E+00  0.000000000E+00 -3.888349586E+01  3.888349586E+01  0.000000000E+00  0.00000E+00  9.000E+00
      21     1     1     2   512   515 -1.302071752E+01  5.928231249E+00 -3.582205905E+01  3.857334475E+01  1.168007728E-06  0.00000E+00  9.000E+00
       3     1     1     2   514     0  8.484923207E+00 -1.480246812E+01  1.962716608E+02  1.970124915E+02  5.000000000E-01  0.00000E+00  9.000E+00
      21     1     1     2   513   512  4.535794317E+00  8.874236866E+00  1.756236329E+01  2.019312047E+01  0.000000000E+00  0.00000E+00  9.000E+00
</event>
<event>
      5  10001  2.40292E+09  5.40171E+00 -1.00000E+00  2.32715E-01
       2    -1     0     0   514     0  0.000000000E+00  0.000000000E+00  3.231624105E+02  3.231624105E+02  0.000000000E+00  0.00000E+00  9.000E+00
      21    -1     0     0   515   513  0.000000000E+00  0.000000000E+00 -1.034742850E+00  1.034742850E+00  0.000000000E+00  0.00000E+00  9.000E+00
      21     1     1     2   514   513 -1.060107265E+01  6.898387527E-01  1.230090976E+02  1.234669863E+02  1.907348633E-06  0.00000E+00  9.000E+00
       2     1     1     2   511     0  1.600115767E+01 -5.788072063E-01  1.836261942E+02  1.843232491E+02  3.300000131E-01  0.00000E+00  9.000E+00
      21     1     1     2   515   511 -5.400085022E+00 -1.110315464E-01  1.549237585E+01  1.640691792E+01  7.152557373E-07  0.00000E+00  9.000E+00
</event>
<event>
      5  10001  2.40292E+09  9.62804E+00 -1.00000E+00  1.97620E-01
      21    -1     0     0   512   516  0.000000000E+00  0.000000000E+00  2.468404272E+02  2.468404272E+02  0.000000000E+00  0.00000E+00  9.000E+00
      21    -1     0     0   513   512  0.000000000E+00  0.000000000E+00 -5.601298414E+00  5.601298414E+00  0.000000000E+00  0.00000E+00  9.000E+00
      21     1     1     2   511   516  1.320254170E+01  5.368745550E+00  6.348126144E+01  6.506151774E+01  0.000000000E+00  0.00000E+00  9.000E+00
      21     1     1     2   515   511 -1.138110259E+01 -1.482292539E+01  1.767098465E+02  1.776952967E+02  3.814697266E-06  0.00000E+00  9.000E+00
      21     1     1     2   513   515 -1.821439112E+00  9.454179842E+00  1.048020833E+00  9.684911181E+00  3.223614045E-07  0.00000E+00  9.000E+00
</event>
<event>
      5  10001  2.40292E+09  1.94283E+01 -1.00000E+00  1.67373E-01
      -4    -1     0     0     0   514  0.000000000E+00  0.000000000E+00  1.224781304E+01  1.224781304E+01  0.000000000E+00  0.00000E+00  9.000E+00
      21    -1     0     0   511   512  0.000000000E+00  0.000000000E+00 -1.028373039E+02  1.028373039E+02  0.000000000E+00  0.00000E+00  9.000E+00
      -4     1     1     2     0   512  5.517296972E+00  2.567255035E+01 -8.898312974E+00  2.776599325E+01  1.500000000E+00  0.00000E+00  9.000E+00
      21     1     1     2   511   516 -6.506115515E+00 -5.253960794E+00 -4.025732979E+01  4.111673923E+01  0.000000000E+00  0.00000E+00  9.000E+00
      21     1     1     2   516   514  9.888185427E-01 -2.041858955E+01 -4.143384805E+01  4.620238442E+01  4.768371582E-07  0.00000E+00  9.000E+00
</event>
<event>
      5  10001  2.40292E+09  1.73192E+01 -1.00000E+00  1.71652E-01
      21    -1     0     0   513   512  0.000000000E+00  0.000000000E+00  2.456927810E+01  2.456927810E+01  0.000000000E+00  0.00000E+00  9.000E+00
      21    -1     0     0   514   513  0.000000000E+00  0.000000000E+00 -8.617904787E+01  8.617904787E+01  0.000000000E+00  0.00000E+00  9.000E+00
      21     1     1     2   511   515 -1.790521960E+01 -7.947741275E+00 -1.478074361E+01  2.454045358E+01  2.920019320E-07  0.00000E+00  9.000E+00
      21     1     1     2   514   511  1.338385097E+01 -8.770862403E+00 -6.147668205E+01  6.352509685E+01  0.000000000E+00  0.00000E+00  9.000E+00
      21     1     1     2   515   512  4.521368629E+00  1.671860368E+01  1.464765589E+01  2.268277554E+01  2.920019320E-07  0.00000E+00  9.000E+00
</event>
<event>
      5  10001  2.40292E+09  1.01503E+01 -1.00000E+00  1.94953E-01
      -3    -1     0     0     0   511  0.000000000E+00  0.000000000E+00  4.311538532E+00  4.311538532E+00  0.000000000E+00  0.00000E+00  9.000E+00
       2    -1     0     0   511     0  0.000000000E+00  0.000000000E+00 -4.746471178E+02  4.746471178E+02  0.000000000E+00  0.00000E+00  9.000E+00
      -3     1     1     2     0   512 -6.297927954E+00 -1.024304422E+01 -4.398940436E+00  1.281345107E+01  5.000000000E-01  0.00000E+00  9.000E+00
      21     1     1     2   512   513  1.706775003E+00  6.489845243E+00 -1.467879775E+02  1.469412859E+02  0.000000000E+00  0.00000E+00  9.000E+00
       2     1     1     2   513     0  4.591152951E+00  3.753198973E+00 -3.191486613E+02  3.192039193E+02  3.300000131E-01  0.00000E+00  9.000E+00
</event>
<event>
      5  10001  2.40292E+09  6.76013E+00 -1.00000E+00  2.17643E-01
      21    -1     0     0   514   512  0.000000000E+00  0.000000000E+00  5.504266756E+01  5.504266756E+01  0.000000000E+00  0.00000E+00  9.000E+00
       2    -1     0     0   511     0  0.000000000E+00  0.000000000E+00 -2.008486632E+02  2.008486632E+02  0.000000000E+00  0.00000E+00  9.000E+00
      21     1     1     2   511   515 -1.578474056E+01 -5.452446218E+00  6.838809719E+00  1.804595585E+01  1.685873940E-07  0.00000E+00  9.000E+00
      21     1     1     2   515   512  1.022513242E+01  1.606678138E+00  4.191184994E+01  4.317103095E+01  4.768371582E-07  0.00000E+00  9.000E+00
       2     1     1     2   514     0  5.559608134E+00  3.845768080E+00 -1.945566553E+02  1.946743439E+02  3.300000131E-01  0.00000E+00  9.000E+00
</event>
<event>
      5  10001  2.40292E+09  1.31481E+01 -1.00000E+00  1.82900E-01
      21    -1     0     0   513   512  0.000000000E+00  0.000000000E+00  1.800781348E+01  1.800781348E+01  0.000000000E+00  0.00000E+00  9.000E+00
       2    -1     0     0   514     0  0.000000000E+00  0.000000000E+00 -4.115123533E+01  4.115123533E+01  0.000000000E+00  0.00000E+00  9.000E+00
      21     1     1     2   514   512  1.988871742E+00 -1.503562567E+01  1.247707682E+01  1.963932525E+01  3.371747881E-07  0.00000E+00  9.000E+00
       2     1     1     2   511     0  2.342419758E+00  5.423120924E+00 -7.960552053E+00  9.918490807E+00  3.300000131E-01  0.00000E+00  9.000E+00
      21     1     1     2   513   511 -4.331291500E+00  9.612504750E+00 -2.765994662E+01  2.960123276E+01  5.840038640E-07  0.00000E+00  9.000E+00
</event>
<event>
      5  10001  2.40292E+09  1.76869E+01 -1.00000E+00  1.70853E-01
      21    -1     0     0   515   511  0.000000000E+00  0.000000000E+00  3.160665478E+01  3.160665478E+01  0.000000000E+00  0.00000E+00  9.000E+00
      21    -1     0     0   512   516  0.000000000E+00  0.000000000E+00 -3.545102860E+00  3.545102860E+00  0.000000000E+00  0.00000E+00  9.000E+00
      21     1     1     2   515   516  6.079661851E+00  2.233572956E+00  6.174899531E+00  8.948772016E+00  1.685873940E-07  0.00000E+00  9.000E+00
      21     1     1     2   514   511  1.536870209E+00  2.999197042E+00  1.282557234E+01  1.326093732E+01  2.384185791E-07  0.00000E+00  9.000E+00
      21     1     1     2   512   514 -7.616532059E+00 -5.232769998E+00  9.061080050E+00  1.294204830E+01  1.685873940E-07  0.00000E+00  9.000E+00
</event>
<event>
      5  10001  2.40292E+09  1.51960E+01 -1.00000E+00  1.76807E-01
      21    -1     0     0   513   511  0.000000000E+00  0.000000000E+00  1.718743395E+02  1.718743395E+02  0.000000000E+00  0.00000E+00  9.000E+00
      21    -1     0     0   512   517  0.000000000E+00  0.000000000E+00 -2.434047473E+01  2.434047473E+01  0.000000000E+00  0.00000E+00  9.000E+00
      21     1     1     2   513   517 -4.964477182E+00 -1.087725265E+01 -1.859279216E+01  2.210548754E+01  5.331201500E-07  0.00000E+00  9.000E+00
      21     1     1     2   512   514  2.014441262E+01  1.157595959E+01  3.441156868E+01  4.152055225E+01  4.768371582E-07  0.00000E+00  9.000E+00
      21     1     1     2   514   511 -1.517993544E+01 -6.987069454E-01  1.317150883E+02  1.325887745E+02  1.907348633E-06  0.00000E+00  9.000E+00
</event>
<event>
      5  10001  2.40292E+09  6.97506E+00 -1.00000E+00  2.15701E-01
      21    -1     0     0   515   514  0.000000000E+00  0.000000000E+00  4.915679915E+02  4.915679915E+02  0.000000000E+00  0.00000E+00  9.000E+00
      21    -1     0     0   511   515  0.000000000E+00  0.000000000E+00 -3.791707492E-01  3.791707492E-01  0.000000000E+00  0.00000E+00  9.000E+00
      21     1     1     2   512   514 -4.768459265E+00  1.029540444E+01  3.060737762E+02  3.062840023E+02  3.814697266E-06  0.00000E+00  9.000E+00
      21     1     1     2   513   512  6.159724501E+00 -4.531245907E+00  7.506660438E+01  7.545508259E+01  1.651812370E-06  0.00000E+00  9.000E+00
      21     1     1     2   511   513 -1.391265236E+00 -5.764158535E+00  1.100484401E+02  1.102080774E+02  1.907348633E-06  0.00000E+00  9.000E+00
</event>
<event>
      5  10001  2.40292E+09  1.56224E+01 -1.00000E+00  1.75690E-01
      21    -1     0     0   516   513  0.000000000E+00  0.000000000E+00  2.242336204E+01  2.242336204E+01  0.000000000E+00  0.00000E+00  9.000E+00
      21    -1     0     0   511   517  0.000000000E+00  0.000000000E+00 -3.295498174E+01  3.295498174E+01  0.000000000E+00  0.00000E+00  9.000E+00
      21     1     1     2   516   517 -1.299955871E+01 -1.000253201E+01  1.449374093E+01  2.188852895E+01  4.460403188E-07  0.00000E+00  9.000E+00
      21     1     1     2   512   513 -1.578411559E-01  7.720397324E+00 -1.471786160E+01  1.662061668E+01  2.384185791E-07  0.00000E+00  9.000E+00
      21     1     1     2   511   512  1.315739986E+01  2.282134685E+00 -1.030749904E+01  1.686919816E+01  3.153981341E-07  0.00000E+00  9.000E+00
</event>
<event>
      5  10001  2.40292E+09  5.19885E+00 -1.00000E+00  2.35508E-01
      21    -1     0     0   514   512  0.000000000E+00  0.000000000E+00  1.280430156E+01  1.280430156E+01  0.000000000E+00  0.00000E+00  9.000E+00
       3    -1     0     0   511     0  0.000000000E+00  0.000000000E+00 -2.270051149E+02  2.270051149E+02  0.000000000E+00  0.00000E+00  9.000E+00
      21     1     1     2   514   515  4.917485347E+00 -8.428705671E+00 -3.443325439E+00  1.034800616E+01  3.237360862E-07  0.00000E+00  9.000E+00
      21     1     1     2   511   512 -6.598061570E-01  1.141182918E+01  5.815691456E+00  1.282526633E+01  4.042583694E-07  0.00000E+00  9.000E+00
       3     1     1     2   515     0 -4.257679190E+00 -2.983123510E+00 -2.165731794E+02  2.166361440E+02  5.000000000E-01  0.00000E+00  9.000E+00
</event>
<event>
      5  10001  2.40292E+09  2.33406E+00 -1.00000E+00  3.34235E-01
       2    -1     0     0   511     0  0.000000000E+00  0.000000000E+00  5.906703540E+01  5.906703540E+01  0.000000000E+00  0.00000E+00  9.000E+00
       2    -1     0     0   512     0  0.000000000E+00  0.000000000E+00 -3.937131271E+01  3.937131271E+01  0.000000000E+00  0.00000E+00  9.000E+00
      21     1     1     2   511   513 -3.372835667E+00  1.327716876E+01 -5.220130585E+00  1.465977469E+01  4.256623047E-07  0.00000E+00  9.000E+00
       2     1     1     2   513     0  4.462520623E+00 -1.121316627E+01 -2.816598366E+01  3.064442402E+01  3.300000131E-01  0.00000E+00  9.000E+00
       2     1     1     2   512     0 -1.089684956E+00 -2.064002488E+00  5.308183694E+01  5.313414940E+01  3.300000131E-01  0.00000E+00  9.000E+00
</event>
<event>
      5  10001  2.40292E+09  5.21452E+00 -1.00000E+00  2.35286E-01
      21    -1     0     0   511   516  0.000000000E+00  0.000000000E+00  6.781272996E+01  6.781272996E+01  0.000000000E+00  0.00000E+00  9.000E+00
      21    -1     0     0   512   514  0.000000000E+00  0.000000000E+00 -1.929391353E+01  1.929391353E+01  0.000000000E+00  0.00000E+00  9.000E+00
      21     1     1     2   515   516 -1.200393315E+01  9.412053728E+00  1.014000347E+01  1.831668193E+01  2.665600750E-07  0.00000E+00  9.000E+00
      21     1     1     2   512   515  9.358506022E+00 -4.918393671E+00 -1.322046147E+01  1.692787148E+01  1.685873940E-07  0.00000E+00  9.000E+00
      21     1     1     2   511   514  2.645427127E+00 -4.493660057E+00  5.159927444E+01  5.186209009E+01  0.000000000E+00  0.00000E+00  9.000E+00
</event>
<event>
      5  10001  2.40292E+09  6.22980E+00 -1.00000E+00  2.22890E-01
      21    -1     0     0   512   516  0.000000000E+00  0.000000000E+00  5.494631886E+00  5.494631886E+00  0.000000000E+00  0.00000E+00  9.000E+00
       2    -1     0     0   515     0  0.000000000E+00  0.000000000E+00 -2.911304460E+02  2.911304460E+02  0.000000000E+00  0.00000E+00  9.000E+00
      21     1     1     2   512   513 -1.235031185E+01 -8.382073684E+00 -5.860220480E+01  6.047319877E+01  1.651812370E-06  0.00000E+00  9.000E+00
       2     1     1     2   513     0  1.172097484E+01  2.184276439E+00 -2.292347068E+02  2.295447930E+02  3.300000131E-01  0.00000E+00  9.000E+00
      21     1     1     2   515   516  6.293370134E-01  6.197797245E+00  2.201097507E+00  6.607086045E+00  1.999200562E-07  0.00000E+00  9.000E+00
</event>
<event>
      5  10001  2.40292E+09  9.16257E+00 -1.00000E+00  2.00192E-01
      21    -1     0     0   513   512  0.000000000E+00  0.000000000E+00  2.812154604E+02  2.812154604E+02  0.000000000E+00  0.00000E+00  9.000E+00
       1    -1     0     0   514     0  0.000000000E+00  0.000000000E+00 -2.406071585E+00  2.406071585E+00  0.000000000E+00  0.00000E+00  9.000E+00
      21     1     1     2   513   511  7.995864349E+00 -1.367071387E+01  1.847257289E+02  1.854033905E+02  0.000000000E+00  0.00000E+00  9.000E+00
       1     1     1     2   511     0  1.067518911E+00  1.232921783E+01  1.966268081E+01  2.323529913E+01  3.300000131E-01  0.00000E+00  9.000E+00
      21     1     1     2   514   512 -9.063383260E+00  1.341496040E+00  7.442097904E+01  7.498284236E+01  9.536743164E-07  0.00000E+00  9.000E+00
</event>
<event>
      5  10001  2.40292E+09  1.63841E+00 -1.00000E+00  4.08722E-01
      21    -1     0     0   511   512  0.000000000E+00  0.000000000E+00  4.065130055E+01  4.065130055E+01  0.000000000E+00  0.00000E+00  9.000E+00
       1    -1     0     0   512     0  0.000000000E+00  0.000000000E+00 -1.357248890E+01  1.357248890E+01  0.000000000E+00  0.00000E+00  9.000E+00
      -3     1     1     2     0   513 -1.226616741E+01  3.620887112E+00  1.371150662E+00  1.287244112E+01  5.000000000E-01  0.00000E+00  9.000E+00
       1     1     1     2   513     0  1.290133832E+01 -2.111363567E+00 -2.311556806E+00  1.327985623E+01  3.300000131E-01  0.00000E+00  9.000E+00
       3     1     1     2   511     0 -6.351709098E-01 -1.509523545E+00  2.801921779E+01  2.807149210E+01  5.000000000E-01  0.00000E+00  9.000E+00
</event>
<event>
      5  10001  2.40292E+09  1.89565E+01 -1.00000E+00  1.68270E-01
       1    -1     0     0   513     0  0.000000000E+00  0.000000000E+00  1.759120122E+02  1.759120122E+02  0.000000000E+00  0.00000E+00  9.000E+00
      21    -1     0     0   511   514  0.000000000E+00  0.000000000E+00 -7.227861392E-01  7.227861392E-01  0.000000000E+00  0.00000E+00  9.000E+00
      21     1     1     2   513   512  1.818952620E+00 -3.792321577E+00  4.630817887E+01  4.649879269E+01  6.743495762E-07  0.00000E+00  9.000E+00
       1     1     1     2   511     0  7.775006179E+00  2.025057597E-01  5.494540394E+01  5.549412621E+01  3.300000131E-01  0.00000E+00  9.000E+00
      21     1     1     2   512   514 -9.593958799E+00  3.589815818E+00  7.393564328E+01  7.464187947E+01  9.536743164E-07  0.00000E+00  9.000E+00
</event>
<event>
      5  10001  2.40292E+09  1.41542E+01 -1.00000E+00  1.79743E-01
      21    -1     0     0   515   511  0.000000000E+00  0.000000000E+00  1.975639695E+00  1.975639695E+00  0.000000000E+00  0.00000E+00  9.000E+00
      21    -1     0     0   516   515  0.000000000E+00  0.000000000E+00 -5.242994980E+01  5.242994980E+01  0.000000000E+00  0.00000E+00  9.000E+00
      21     1     1     2   516   514  7.257115998E-01  6.917220913E+00 -1.485538726E+01  1.640296111E+01  2.920019320E-07  0.00000E+00  9.000E+00
      21     1     1     2   513   511 -4.344332750E+00 -6.853575760E-01 -5.443892379E+00  6.998493144E+00  2.308477966E-07  0.00000E+00  9.000E+00
      21     1     1     2   514   513  3.618621151E+00 -6.231863337E+00 -3.015503047E+01  3.100413525E+01  4.768371582E-07  0.00000E+00  9.000E+00
</event>
<event>
      5  10001  2.40292E+09  6.25769E+00 -1.00000E+00  2.22596E-01
      -1    -1     0     0     0   512  0.000000000E+00  0.000000000E+00  4.441187945E+01  4.441187945E+01  0.000000000E+00  0.00000E+00  9.000E+00
      21    -1     0     0   512   516  0.000000000E+00  0.000000000E+00 -1.335706842E+02  1.335706842E+02  0.000000000E+00  0.00000E+00  9.000E+00
      -1     1     1     2     0   511  9.213510539E+00  6.025815854E+00  4.238654426E+01  4.379414650E+01  3.300000131E-01  0.00000E+00  9.000E+00
      21     1     1     2   511   515 -1.375239323E+01 -1.718055125E+00 -3.825001993E+01  4.068346172E+01  4.768371582E-07  0.00000E+00  9.000E+00
      21     1     1     2   515   516  4.538882693E+00 -4.307760729E+00 -9.329532911E+01  9.350495544E+01  1.348699152E-06  0.00000E+00  9.000E+00
</event>
<event>
      5  10001  2.40292E+09  4.66827E+00 -1.00000E+00  2.48505E-01
      21    -1     0     0   513   511  0.000000000E+00  0.000000000E+00  3.695591946E+01  3.695591946E+01  0.000000000E+00  0.00000E+00  9.000E+00
      21    -1     0     0   512   513  0.000000000E+00  0.000000000E+00 -6.502315313E+00  6.502315313E+00  0.000000000E+00  0.00000E+00  9.000E+00
      21     1     1     2   512   514  1.161611577E+01  4.621329578E+00  3.043663485E+00  1.286680691E+01  2.021291847E-07  0.00000E+00  9.000E+00
      21     1     1     2   514   517 -8.206944843E+00 -2.574023308E+00  1.259228419E+01  1.524943149E+01  2.384185791E-07  0.00000E+00  9.000E+00
      21     1     1     2   517   511 -3.409170928E+00 -2.047306270E+00  1.481765647E+01  1.534199638E+01  0.000000000E+00  0.00000E+00  9.000E+00
</event>
<event>
      5  10001  2.40292E+09  9.39027E+00 -1.00000E+00  1.98909E-01
       2    -1     0     0   514     0  0.000000000E+00  0.000000000E+00  1.743384971E+02  1.743384971E+02  0.000000000E+00  0.00000E+00  9.000E+00
      21    -1     0     0   512   513  0.000000000E+00  0.000000000E+00 -7.026151401E+00  7.026151401E+00  0.000000000E+00  0.00000E+00  9.000E+00
      21     1     1     2   514   513  1.240497212E+01  1.132911311E+01  5.969989162E+01  6.201861976E+01  1.907348633E-06  0.00000E+00  9.000E+00
       2     1     1     2   515     0 -4.789530236E+00 -5.835835384E+00  1.095065288E+02  1.097669592E+02  3.300000131E-01  0.00000E+00  9.000E+00
      21     1     1     2   512   515 -7.615441886E+00 -5.493277728E+00 -1.894074705E+00  9.579069595E+00  2.920019320E-07  0.00000E+00  9.000E+00
</event>
<event>
      5  10001  2.40292E+09  1.02098E+01 -1.00000E+00  1.94663E-01
      21    -1     0     0   511   513  0.000000000E+00  0.000000000E+00  1.388114202E+01  1.388114202E+01  0.000000000E+00  0.00000E+00  9.000E+00
      21    -1     0     0   512   514  0.000000000E+00  0.000000000E+00 -1.058639114E+02  1.058639114E+02  0.000000000E+00  0.00000E+00  9.000E+00
      21     1     1     2   511   516  1.168339249E+01  6.921975866E-01 -2.380396420E+01  2.652563871E+01  3.371747881E-07  0.00000E+00  9.000E+00
      21     1     1     2   512   513 -8.438533476E+00  8.988288759E+00  9.065685511E+00  1.530309890E+01  2.665600750E-07  0.00000E+00  9.000E+00
      21     1     1     2   516   514 -3.244859012E+00 -9.680486346E+00 -7.724449068E+01  7.791631579E+01  0.000000000E+00  0.00000E+00  9.000E+00
</event>
<event>
      5  10001  2.40292E+09  1.96693E+01 -1.00000E+00  1.66927E-01
      21    -1     0     0   515   512  0.000000000E+00  0.000000000E+00  3.701078083E+00  3.701078083E+00  0.000000000E+00  0.00000E+00  9.000E+00
      21    -1     0     0   516   517  0.000000000E+00  0.000000000E+00 -5.916192193E+02  5.916192193E+02  0.000000000E+00  0.00000E+00  9.000E+00
      21     1     1     2   515   517  2.260299383E+01  2.413340868E+01 -4.455740622E+02  4.467992409E+02  5.394796609E-06  0.00000E+00  9.000E+00
      21     1     1     2   516   511 -1.188319612E+01 -2.720779453E+01 -1.190327228E+02  1.226795155E+02  1.907348633E-06  0.00000E+00  9.000E+00
      21     1     1     2   511   512 -1.071979771E+01  3.074385853E+00 -2.331135622E+01  2.584154098E+01  7.539457465E-07  0.00000E+00  9.000E+00
</event>
<event>
      5  10001  2.40292E+09  5.71995E+00 -1.00000E+00  2.28664E-01
      21    -1     0     0   513   516  0.000000000E+00  0.000000000E+00  3.100355584E+00  3.100355584E+00  0.000000000E+00  0.00000E+00  9.000E+00
      21    -1     0     0   512   513  0.000000000E+00  0.000000000E+00 -1.513989703E+02  1.513989703E+02  0.000000000E+00  0.00000E+00  9.000E+00
      21     1     1     2   512   514  5.715753601E+00 -1.205865569E+01 -1.328641402E+02  1.335326206E+02  0.000000000E+00  0.00000E+00  9.000E+00
       1     1     1     2   514     0 -2.182586840E+00  6.832292784E+00 -1.139491623E+01  1.346836761E+01  3.300000131E-01  0.00000E+00  9.000E+00
      -1     1     1     2     0   516 -3.533166762E+00  5.226362905E+00 -4.039558275E+00  7.498337659E+00  3.300000131E-01  0.00000E+00  9.000E+00
</event>
<event>
      5  10001  2.40292E+09  9.20975E+00 -1.00000E+00  1.99922E-01
      -1    -1     0     0     0   511  0.000000000E+00  0.000000000E+00  3.778949917E-01  3.778949917E-01  0.000000000E+00  0.00000E+00  9.000E+00
      -2    -1     0     0     0   513  0.000000000E+00  0.000000000E+00 -7.698523839E+02  7.698523839E+02  0.000000000E+00  0.00000E+00  9.000E+00
      21     1     1     2   512   511  2.273219770E+00  6.810060660E+00 -2.896904893E+02  2.897794403E+02  3.814697266E-06  0.00000E+00  9.000E+00
      -1     1     1     2     0   513  2.216329768E+00 -9.651255925E+00 -7.739414772E+01  7.802577689E+01  3.300000131E-01  0.00000E+00  9.000E+00
      -2     1     1     2     0   512 -4.489549537E+00  2.841195266E+00 -4.023898519E+02  4.024250617E+02  3.300000131E-01  0.00000E+00  9.000E+00
</event>
<event>
      5  10001  2.40292E+09  4.85282E+00 -1.00000E+00  2.45050E-01
      21    -1     0     0   515   511  0.000000000E+00  0.000000000E+00  7.725551829E+01  7.725551829E+01  0.000000000E+00  0.00000E+00  9.000E+00
       4    -1     0     0   513     0  0.000000000E+00  0.000000000E+00 -3.740170769E+00  3.740170769E+00  0.000000000E+00  0.00000E+00  9.000E+00
      21     1     1     2   515   514 -7.850539413E+00 -5.170107807E+00  5.359231216E+01  5.441044851E+01  6.743495762E-07  0.00000E+00  9.000E+00
       4     1     1     2   514     0  1.225885276E+01  3.167829725E+00  1.484784577E+01  1.957097698E+01  1.500000000E+00  0.00000E+00  9.000E+00
      21     1     1     2   513   511 -4.408313343E+00  2.002278083E+00  5.075189588E+00  7.014263569E+00  0.000000000E+00  0.00000E+00  9.000E+00
</event>
<event>
      5  10001  2.40292E+09  4.96196E+00 -1.00000E+00  2.43112E-01
      21    -1     0     0   512   514  0.000000000E+00  0.000000000E+00  5.963470051E+00  5.963470051E+00  0.000000000E+00  0.00000E+00  9.000E+00
      21    -1     0     0   513   511  0.000000000E+00  0.000000000E+00 -4.556789893E+01  4.556789893E+01  0.000000000E+00  0.00000E+00  9.000E+00
      21     1     1     2   512   511 -6.924995726E-01 -9.077610089E+00  2.927030037E-01  9.108690117E+00  1.262758021E-07  0.00000E+00  9.000E+00
      21     1     1     2   513   515 -1.199635705E+00  1.122138664E+01 -3.472479249E+01  3.651259861E+01  4.768371582E-07  0.00000E+00  9.000E+00
      21     1     1     2   515   514  1.892135277E+00 -2.143776550E+00 -5.172339392E+00  5.910080252E+00  5.960464478E-08  0.00000E+00  9.000E+00
</event>
<event>
      5  10001  2.40292E+09  2.60616E+00 -1.00000E+00  3.16578E-01
      21    -1     0     0   516   515  0.000000000E+00  0.000000000E+00  2.624977314E+01  2.624977314E+01  0.000000000E+00  0.00000E+00  9.000E+00
      21    -1     0     0   511   516  0.000000000E+00  0.000000000E+00 -6.830057470E+01  6.830057470E+01  0.000000000E+00  0.00000E+00  9.000E+00
      21     1     1     2   513   515 -8.334507009E+00 -1.122243318E+01  1.425226152E+01  1.996331565E+01  1.685873940E-07  0.00000E+00  9.000E+00
      21     1     1     2   514   513  7.553102422E+00  1.370868928E+01  2.392570178E+00  1.583356909E+01  2.384185791E-07  0.00000E+00  9.000E+00
      21     1     1     2   511   514  7.814045873E-01 -2.486256098E+00 -5.869563326E+01  5.875346310E+01  6.743495762E-07  0.00000E+00  9.000E+00
</event>
<event>
      5  10001  2.40292E+09  8.01016E+00 -1.00000E+00  2.07533E-01
       2    -1     0     0   513     0  0.000000000E+00  0.000000000E+00  2.527796100E+02  2.527796100E+02  0.000000000E+00  0.00000E+00  9.000E+00
      21    -1     0     0   514   513  0.000000000E+00  0.000000000E+00 -4.250633149E+00  4.250633149E+00  0.000000000E+00  0.00000E+00  9.000E+00
      21     1     1     2   514   512  2.217770419E+00 -1.027931312E+01  2.956974246E+00  1.092366608E+01  4.256623047E-07  0.00000E+00  9.000E+00
       2     1     1     2   515     0  2.255304105E+00  3.900017935E+00  1.823994444E+02  1.824553719E+02  3.300000131E-01  0.00000E+00  9.000E+00
      21     1     1     2   512   515 -4.473074525E+00  6.379295189E+00  6.317255826E+01  6.365120517E+01  9.536743164E-07  0.00000E+00  9.000E+00
</event>
<event>
      5  10001  2.40292E+09  1.14189E+01 -1.00000E+00  1.89269E-01
      -3    -1     0     0     0   511  0.000000000E+00  0.000000000E+00  1.131705030E+01  1.131705030E+01  0.000000000E+00  0.00000E+00  9.000E+00
      21    -1     0     0   511   513  0.000000000E+00  0.000000000E+00 -1.838677025E+01  1.838677025E+01  0.000000000E+00  0.00000E+00  9.000E+00
      -3     1     1     2     0   516  2.109292385E+00 -5.138307636E+00  2.867775078E+00  6.271001007E+00  5.000000000E-01  0.00000E+00  9.000E+00
      21     1     1     2   514   513  7.377646384E-01  1.261141476E+01 -3.343895580E+00  1.306804180E+01  1.192092896E-07  0.00000E+00  9.000E+00
      21     1     1     2   516   514 -2.847057024E+00 -7.473107125E+00 -6.593599451E+00  1.036477774E+01  8.429369702E-08  0.00000E+00  9.000E+00
</event>
<event>
      5  10001  2.40292E+09  1.95988E+01 -1.00000E+00  1.67057E-01
      21    -1     0     0   512   511  0.000000000E+00  0.000000000E+00  7.162746402E-01  7.162746402E-01  0.000000000E+00  0.00000E+00  9.000E+00
       2    -1     0     0   514     0  0.000000000E+00  0.000000000E+00 -3.332865137E+02  3.332865137E+02  0.000000000E+00  0.00000E+00  9.000E+00
      21     1     1     2   514   511 -6.762864177E+00 -3.971061806E-01 -1.557267589E+02  1.558740436E+02  0.000000000E+00  0.00000E+00  9.000E+00
       2     1     1     2   513     0  1.030564065E+01 -3.021218138E+00 -1.643419851E+02  1.646928382E+02  3.300000131E-01  0.00000E+00  9.000E+00
      21     1     1     2   512   513 -3.542776468E+00  3.418324319E+00 -1.250149505E+01  1.343590655E+01  0.000000000E+00  0.00000E+00  9.000E+00
</event>
<event>
      5  10001  2.40292E+09  1.17100E+01 -1.00000E+00  1.88098E-01
      21    -1     0     0   517   511  0.000000000E+00  0.000000000E+00  1.878760867E+02  1.878760867E+02  0.000000000E+00  0.00000E+00  9.000E+00
      21    -1     0     0   516   515  0.000000000E+00  0.000000000E+00 -6.641701794E+01  6.641701794E+01  0.000000000E+00  0.00000E+00  9.000E+00
      21     1     1     2   516   514  1.258592589E+01  1.167485902E+00 -6.258556301E+01  6.384920713E+01  1.507891493E-06  0.00000E+00  9.000E+00
      21     1     1     2   514   511 -2.421303472E+01 -2.558408284E+00  1.717416958E+02  1.734590055E+02  0.000000000E+00  0.00000E+00  9.000E+00
      21     1     1     2   517   515  1.162710882E+01  1.390922382E+00  1.230293598E+01  1.698489206E+01  0.000000000E+00  0.00000E+00  9.000E+00
</event>
<event>
      5  10001  2.40292E+09  2.83538E+01 -1.00000E+00  1.54726E-01
       3    -1     0     0   512     0  0.000000000E+00  0.000000000E+00  3.529482719E+02  3.529482719E+02  0.000000000E+00  0.00000E+00  9.000E+00
      -5    -1     0     0     0   512  0.000000000E+00  0.000000000E+00 -6.527410076E+01  6.527410076E+01  0.000000000E+00  0.00000E+00  9.000E+00
      -5     1     1     2     0   511 -4.749970428E+00  2.584113005E+01 -6.065930727E+01  6.627909008E+01  4.800000191E+00  0.00000E+00  9.000E+00
       3     1     1     2   513     0  9.566510958E+00 -7.816876476E-02  2.497993390E+02  2.499829674E+02  5.000000000E-01  0.00000E+00  9.000E+00
      21     1     1     2   511   513 -4.816540530E+00 -2.576296129E+01  9.853413943E+01  1.019603152E+02  1.348699152E-06  0.00000E+00  9.000E+00
</event>
<event>
      5  10001  2.40292E+09  5.00498E+00 -1.00000E+00  2.38353E-01
      21    -1     0     0   514   511  0.000000000E+00  0.000000000E+00  3.665086139E+01  3.665086139E+01  0.000000000E+00  0.00000E+00  9.000E+00
      21    -1     0     0   515   514  0.000000000E+00  0.000000000E+00 -2.208472610E+01  2.208472610E+01  0.000000000E+00  0.00000E+00  9.000E+00
      21     1     1     2   515   516  5.773464639E+00 -1.054573703E+01 -1.917372078E+01  2.263132855E+01  3.371747881E-07  0.00000E+00  9.000E+00
      21     1     1     2   516   512 -4.233168240E+00  3.210595297E+00  1.546173801E+01  1.634909716E+01  2.384185791E-07  0.00000E+00  9.000E+00
      21     1     1     2   512   511 -1.540296399E+00  7.335141729E+00  1.827811806E+01  1.975516178E+01  4.768371582E-07  0.00000E+00  9.000E+00
</event>
<event>
      5  10001  2.40292E+09  6.73302E+00 -1.00000E+00  2.17895E-01
      21    -1     0     0   512   511  0.000000000E+00  0.000000000E+00  1.666225170E+00  1.666225170E+00  0.000000000E+00  0.00000E+00  9.000E+00
      -2    -1     0     0     0   513  0.000000000E+00  0.000000000E+00 -8.301537728E+01  8.301537728E+01  0.000000000E+00  0.00000E+00  9.000E+00
      -2     1     1     2     0   514  2.562279731E+00  1.112341159E+00 -4.107877554E+01  4.117495939E+01  3.300000131E-01  0.00000E+00  9.000E+00
      21     1     1     2   512   513 -8.371799458E+00 -4.049462823E+00 -1.741824042E+01  1.974538616E+01  4.768371582E-07  0.00000E+00  9.000E+00
      21     1     1     2   514   511  5.809519727E+00  2.937121664E+00 -2.285213615E+01  2.376125690E+01  0.000000000E+00  0.00000E+00  9.000E+00
</event>
<event>
      5  10001  2.40292E+09  7.53166E+00 -1.00000E+00  2.11088E-01
      21    -1     0     0   514   511  0.000000000E+00  0.000000000E+00  2.641130466E+00  2.641130466E+00  0.000000000E+00  0.00000E+00  9.000E+00
       2    -1     0     0   511     0  0.000000000E+00  0.000000000E+00 -6.883498135E+02  6.883498135E+02  0.000000000E+00  0.00000E+00  9.000E+00
      21     1     1     2   514   512 -5.998863578E+00 -8.086991739E-01 -1.088231939E+01  1.245251918E+01  7.725644944E-07  0.00000E+00  9.000E+00
       2     1     1     2   515     0  1.207112239E+01  2.138703020E+00 -6.712596168E+02  6.713716319E+02  3.300000131E-01  0.00000E+00  9.000E+00
      21     1     1     2   512   515 -6.072258816E+00 -1.330003847E+00 -3.566746820E+00  7.166792884E+00  6.743495762E-07  0.00000E+00  9.000E+00
</event>
<event>
      5  10001  2.40292E+09  4.98245E+00 -1.00000E+00  2.42757E-01
       2    -1     0     0   514     0  0.000000000E+00  0.000000000E+00  1.193763274E+02  1.193763274E+02  0.000000000E+00  0.00000E+00  9.000E+00
      21    -1     0     0   512   511  0.000000000E+00  0.000000000E+00 -1.047601899E+02  1.047601899E+02  0.000000000E+00  0.00000E+00  9.000E+00
      21     1     1     2   512   513  1.120683655E+01 -3.225945590E-01  3.361071482E+00  1.170444592E+01  3.650024150E-07  0.00000E+00  9.000E+00
       2     1     1     2   513     0 -1.489677108E+01  3.670591449E+00  1.112548575E+02  1.123082332E+02  3.300000131E-01  0.00000E+00  9.000E+00
      21     1     1     2   514   511  3.689934528E+00 -3.347996890E+00 -9.999979140E+01  1.001238382E+02  1.907348633E-06  0.00000E+00  9.000E+00
</event>
<event>
      5  10001  2.40292E+09  2.11071E+01 -1.00000E+00  1.64421E-01
      -3    -1     0     0     0   512  0.000000000E+00  0.000000000E+00  1.521221164E+01  1.521221164E+01  0.000000000E+00  0.00000E+00  9.000E+00
       1    -1     0     0   512     0  0.000000000E+00  0.000000000E+00 -8.481053898E+01  8.481053898E+01  0.000000000E+00  0.00000E+00  9.000E+00
      -3     1     1     2     0   511 -1.157321342E+01 -6.464625454E-01  1.189295682E+01  1.661474058E+01  5.000000000E-01  0.00000E+00  9.000E+00
      21     1     1     2   511   513  6.191304691E+00  5.097730317E+00 -2.043068348E+01  2.194839255E+01  2.384185791E-07  0.00000E+00  9.000E+00
       1     1     1     2   513     0  5.381908727E+00 -4.451267772E+00 -6.106060068E+01  6.145961749E+01  3.300000131E-01  0.00000E+00  9.000E+00
</event>
<event>
      5  10001  2.40292E+09  6.08361E+00 -1.00000E+00  2.24465E-01
      21    -1     0     0   514   511  0.000000000E+00  0.000000000E+00  1.322716488E+01  1.322716488E+01  0.000000000E+00  0.00000E+00  9.000E+00
      21    -1     0     0   512   515  0.000000000E+00  0.000000000E+00 -5.162957348E+02  5.162957348E+02  0.000000000E+00  0.00000E+00  9.000E+00
      21     1     1     2   514   515 -5.130486022E+00 -8.669835798E+00 -5.141288966E+02  5.142275860E+02  7.629394531E-06  0.00000E+00  9.000E+00
      21     1     1     2   512   516  8.644825142E-01  5.826372882E-01  2.744868461E+00  2.936170822E+00  4.645722290E-07  0.00000E+00  9.000E+00
      21     1     1     2   516   511  4.266003508E+00  8.087198510E+00  8.315458209E+00  1.235914281E+01  1.677423391E-06  0.00000E+00  9.000E+00
</event>
<event>
      5  10001  2.40292E+09  4.89180E+00 -1.00000E+00  2.44349E-01
      21    -1     0     0   514   516  0.000000000E+00  0.000000000E+00  5.393527597E+01  5.393527597E+01  0.000000000E+00  0.00000E+00  9.000E+00
      21    -1     0     0   511   513  0.000000000E+00  0.000000000E+00 -4.025171399E+01  4.025171399E+01  0.000000000E+00  0.00000E+00  9.000E+00
      21     1     1     2   512   516  8.150980627E+00  1.055220974E+01  3.665352017E+01  3.900343775E+01  4.768371582E-07  0.00000E+00  9.000E+00
      21     1     1     2   511   512 -6.583709971E+00 -5.918271375E+00 -3.818691507E+01  3.919963846E+01  9.536743164E-07  0.00000E+00  9.000E+00
      21     1     1     2   514   513 -1.567270656E+00 -4.633938361E+00  1.521695688E+01  1.598391375E+01  1.685873940E-07  0.00000E+00  9.000E+00
</event>
<event>
      5  10001  2.40292E+09  9.81958E+00 -1.00000E+00  1.96617E-01
       1    -1     0     0   511     0  0.000000000E+00  0.000000000E+00  3.249684299E+02  3.249684299E+02  0.000000000E+00  0.00000E+00  9.000E+00
      21    -1     0     0   514   513  0.000000000E+00  0.000000000E+00 -3.855440543E+00  3.855440543E+00  0.000000000E+00  0.00000E+00  9.000E+00
      21     1     1     2   511   513  6.078572078E+00 -1.167042112E+01  8.634550079E+00  1.573859024E+01  5.717076687E-07  0.00000E+00  9.000E+00
       1     1     1     2   512     0  1.940066671E+00  1.030440020E+01  2.199338986E+02  2.201839530E+02  3.300000131E-01  0.00000E+00  9.000E+00
      21     1     1     2   514   512 -8.018638749E+00  1.366020920E+00  9.254454068E+01  9.290132717E+01  1.348699152E-06  0.00000E+00  9.000E+00
</event>
<event>
      5  10001  2.40292E+09  7.83859E+00 -1.00000E+00  2.08768E-01
      21    -1     0     0   514   512  0.000000000E+00  0.000000000E+00  8.820955958E+00  8.820955958E+00  0.000000000E+00  0.00000E+00  9.000E+00
       2    -1     0     0   515     0  0.000000000E+00  0.000000000E+00 -2.768315205E+01  2.768315205E+01  0.000000000E+00  0.00000E+00  9.000E+00
      21     1     1     2   515   512 -2.805160686E+00 -9.156890673E+00  4.336723420E+00  1.051307487E+01  5.960464478E-08  0.00000E+00  9.000E+00
      21     1     1     2   514   511 -2.108356149E+00  3.975264353E+00 -1.038644190E+01  1.131927859E+01  1.192092896E-07  0.00000E+00  9.000E+00
       2     1     1     2   511     0  4.913516835E+00  5.181626319E+00 -1.281247761E+01  1.467175454E+01  3.300000131E-01  0.00000E+00  9.000E+00
</event>
<event>
      5  10001  2.40292E+09  1.07894E+01 -1.00000E+00  1.91963E-01
      21    -1     0     0   511   515  0.000000000E+00  0.000000000E+00  1.180849558E+01  1.180849558E+01  0.000000000E+00  0.00000E+00  9.000E+00
      -3    -1     0     0     0   513  0.000000000E+00  0.000000000E+00 -4.814040392E+01  4.814040392E+01  0.000000000E+00  0.00000E+00  9.000E+00
      -3     1     1     2     0   515  1.006132308E+01  3.863084857E+00 -4.051737894E+01  4.192924567E+01  5.000000000E-01  0.00000E+00  9.000E+00
      21     1     1     2   512   513 -2.771044325E+00 -7.779875690E+00  5.079463079E+00  9.695674168E+00  2.384185791E-07  0.00000E+00  9.000E+00
      21     1     1     2   511   512 -7.290278759E+00  3.916790833E+00 -8.939924854E-01  8.323979660E+00  1.299053116E-07  0.00000E+00  9.000E+00
</event>
<event>
      5  10001  2.40292E+09  2.10865E+01 -1.00000E+00  1.64455E-01
      21    -1     0     0   514   512  0.000000000E+00  0.000000000E+00  8.445531783E+02  8.445531783E+02  0.000000000E+00  0.00000E+00  9.000E+00
      21    -1     0     0   515   516  0.000000000E+00  0.000000000E+00 -5.082291644E-01  5.082291644E-01  0.000000000E+00  0.00000E+00  9.000E+00
      21     1     1     2   514   516  7.236608282E+00 -8.816479931E+00  1.181345963E+02  1.186839571E+02  1.907348633E-06  0.00000E+00  9.000E+00
      21     1     1     2   515   513  1.566645128E+00  3.188525388E+00  6.066156183E+02  6.066260211E+02  0.000000000E+00  0.00000E+00  9.000E+00
      21     1     1     2   513   512 -8.803253410E+00  5.627954542E+00  1.192947345E+02  1.197514294E+02  0.000000000E+00  0.00000E+00  9.000E+00
</event>
<event>
      5  10001  2.40292E+09  2.68153E+01 -1.00000E+00  1.56467E-01
      21    -1     0     0   511   515  0.000000000E+00  0.000000000E+00  2.821822310E+02  2.821822310E+02  0.000000000E+00  0.00000E+00  9.000E+00
      21    -1     0     0   517   512  0.000000000E+00  0.000000000E+00 -2.525531450E+00  2.525531450E+00  0.000000000E+00  0.00000E+00  9.000E+00
      21     1     1     2   511   512 -1.448616063E+01  2.835363135E+00  1.517134963E+02  1.524298957E+02  0.000000000E+00  0.00000E+00  9.000E+00
      21     1     1     2   514   515  4.608294957E+00 -1.473074439E+01  3.799475735E+01  4.101015483E+01  0.000000000E+00  0.00000E+00  9.000E+00
      21     1     1     2   517   514  9.877865672E+00  1.189538126E+01  8.994844586E+01  9.126771192E+01  9.536743164E-07  0.00000E+00  9.000E+00
</event>
<event>
      5  10001  2.40292E+09  7.80994E+00 -1.00000E+00  2.08978E-01
      21    -1     0     0   513   514  0.000000000E+00  0.000000000E+00  5.020999089E+02  5.020999089E+02  0.000000000E+00  0.00000E+00  9.000E+00
       4    -1     0     0   515     0  0.000000000E+00  0.000000000E+00 -2.534250708E-01  2.534250708E-01  0.000000000E+00  0.00000E+00  9.000E+00
      21     1     1     2   515   514  5.980554151E-01 -8.785520784E+00  1.211275650E+02  1.214472315E+02  2.697398305E-06  0.00000E+00  9.000E+00
       4     1     1     2   511     0 -5.463619687E-01  6.146192237E+00  1.157650575E+02  1.159390906E+02  1.500000000E+00  0.00000E+00  9.000E+00
      21     1     1     2   513   511 -5.169344639E-02  2.639328547E+00  2.649538613E+02  2.649670118E+02  3.814697266E-06  0.00000E+00  9.000E+00
</event>
<event>
      5  10001  2.40292E+09  5.80721E+00 -1.00000E+00  2.27617E-01
      21    -1     0     0   512   511  0.000000000E+00  0.000000000E+00  2.490120516E+00  2.490120516E+00  0.000000000E+00  0.00000E+00  9.000E+00
      21    -1     0     0   514   516  0.000000000E+00  0.000000000E+00 -4.514502042E+01  4.514502042E+01  0.000000000E+00  0.00000E+00  9.000E+00
      21     1     1     2   512   516  7.341087765E+00  6.580422274E+00 -2.436163754E+01  2.628084684E+01  3.371747881E-07  0.00000E+00  9.000E+00
      21     1     1     2   515   511 -4.537703597E+00 -8.231744352E-01 -7.814218127E+00  9.073608710E+00  2.064765462E-07  0.00000E+00  9.000E+00
      21     1     1     2   514   515 -2.803384168E+00 -5.757247839E+00 -1.047904424E+01  1.228068539E+01  2.384185791E-07  0.00000E+00  9.000E+00
</event>
<event>
      5  10001  2.40292E+09  1.32470E+01 -1.00000E+00  1.82573E-01
      21    -1     0     0   513   511  0.000000000E+00  0.000000000E+00  1.594508189E+02  1.594508189E+02  0.000000000E+00  0.00000E+00  9.000E+00
       2    -1     0     0   514     0  0.000000000E+00  0.000000000E+00 -7.700280759E+00  7.700280759E+00  0.000000000E+00  0.00000E+00  9.000E+00
      21     1     1     2   515   511 -1.300191544E+01  5.370592113E+00  1.353207539E+02  1.360499890E+02  1.907348633E-06  0.00000E+00  9.000E+00
      21     1     1     2   514   515  1.756779979E+00 -1.237164685E+01  4.530043730E+00  1.329154686E+01  3.953724850E-07  0.00000E+00  9.000E+00
       2     1     1     2   513     0  1.124513546E+01  7.001054737E+00  1.189974047E+01  1.780956378E+01  3.300000131E-01  0.00000E+00  9.000E+00
</event>
<event>
      5  10001  2.40292E+09  4.11658E+00 -1.00000E+00  2.60459E-01
       1    -1     0     0   514     0  0.000000000E+00  0.000000000E+00  7.058825914E+02  7.058825914E+02  0.000000000E+00  0.00000E+00  9.000E+00
      21    -1     0     0   512   513  0.000000000E+00  0.000000000E+00 -2.731806961E+00  2.731806961E+00  0.000000000E+00  0.00000E+00  9.000E+00
      21     1     1     2   514   513 -8.961831579E+00  8.736808619E+00  1.205001402E+01  1.737380465E+01  1.572478528E-06  0.00000E+00  9.000E+00
      21     1     1     2   512   511  7.990675592E+00 -3.882188530E+00  4.726357414E+02  4.727192257E+02  9.344061824E-06  0.00000E+00  9.000E+00
       1     1     1     2   511     0  9.711559872E-01 -4.854620088E+00  2.184650290E+02  2.185213681E+02  3.300000131E-01  0.00000E+00  9.000E+00
</event>
<event>
      5  10001  2.40292E+09  1.26650E+01 -1.00000E+00  1.84547E-01
      21    -1     0     0   515   511  0.000000000E+00  0.000000000E+00  6.684202124E+01  6.684202124E+01  0.000000000E+00  0.00000E+00  9.000E+00
      21    -1     0     0   516   515  0.000000000E+00  0.000000000E+00 -3.086542590E+01  3.086542590E+01  0.000000000E+00  0.00000E+00  9.000E+00
      21     1     1     2   512   511  1.236312170E+01  1.416077681E+01  5.954453286E+01  6.244137868E+01  0.000000000E+00  0.00000E+00  9.000E+00
      21     1     1     2   513   512 -3.602744263E+00 -4.377486715E+00 -2.117082139E+01  2.191679344E+01  2.384185791E-07  0.00000E+00  9.000E+00
      21     1     1     2   516   513 -8.760377433E+00 -9.783290099E+00 -2.397116133E+00  1.334927502E+01  2.107342426E-07  0.00000E+00  9.000E+00
</event>
<event>
      5  10001  2.40292E+09  4.52861E+00 -1.00000E+00  2.51285E-01
      21    -1     0     0   512   513  0.000000000E+00  0.000000000E+00  1.651774776E+02  1.651774776E+02  0.000000000E+00  0.00000E+00  9.000E+00
      21    -1     0     0   511   517  0.000000000E+00  0.000000000E+00 -4.387467722E+00  4.387467722E+00  0.000000000E+00  0.00000E+00  9.000E+00
      21     1     1     2   514   517 -8.120998670E+00  5.259834094E+00  3.782332202E+00  1.038857598E+01  2.889442359E-07  0.00000E+00  9.000E+00
      21     1     1     2   511   513  1.258560534E+01 -4.501141369E+00  4.191435932E+01  4.399399110E+01  6.743495762E-07  0.00000E+00  9.000E+00
      21     1     1     2   512   514 -4.464606668E+00 -7.586927253E-01  1.150933184E+02  1.151823782E+02  1.348699152E-06  0.00000E+00  9.000E+00
</event>
<event>
      5  10001  2.40292E+09  5.97935E+00 -1.00000E+00  2.25626E-01
      21    -1     0     0   515   511  0.000000000E+00  0.000000000E+00  2.023236109E+02  2.023236109E+02  0.000000000E+00  0.00000E+00  9.000E+00
      21    -1     0     0   516   515  0.000000000E+00  0.000000000E+00 -4.678494908E+00  4.678494908E+00  0.000000000E+00  0.00000E+00  9.000E+00
      21     1     1     2   516   514  2.883081673E+00 -1.067867133E+01  2.671566347E+00  1.137907940E+01  2.384185791E-07  0.00000E+00  9.000E+00
      21     1     1     2   514   513 -8.531209519E-01  1.287062277E+01  1.525018627E+02  1.530463945E+02  0.000000000E+00  0.00000E+00  9.000E+00
      21     1     1     2   513   511 -2.029960721E+00 -2.191951443E+00  4.247168689E+01  4.257663184E+01  0.000000000E+00  0.00000E+00  9.000E+00
</event>
<event>
      5  10001  2.40292E+09  4.75789E+00 -1.00000E+00  2.46798E-01
      21    -1     0     0   512   514  0.000000000E+00  0.000000000E+00  2.190460865E+02  2.190460865E+02  0.000000000E+00  0.00000E+00  9.000E+00
      21    -1     0     0   516   515  0.000000000E+00  0.000000000E+00 -6.050383263E+00  6.050383263E+00  0.000000000E+00  0.00000E+00  9.000E+00
      21     1     1     2   512   511 -3.724968401E+00  1.156613012E+01  1.330709331E+01  1.802025216E+01  4.129530925E-07  0.00000E+00  9.000E+00
      21     1     1     2   516   514  5.328944894E+00 -7.086758129E+00  2.017114010E+02  2.019061889E+02  2.697398305E-06  0.00000E+00  9.000E+00
      21     1     1     2   511   515 -1.603976494E+00 -4.479371989E+00 -2.022791059E+00  5.170028789E+00  9.424321831E-08  0.00000E+00  9.000E+00
</event>
<event>
      5  10001  2.40292E+09  4.56163E+00 -1.00000E+00  2.50614E-01
      21    -1     0     0   512   514  0.000000000E+00  0.000000000E+00  1.258177292E+02  1.258177292E+02  0.000000000E+00  0.00000E+00  9.000E+00
      21    -1     0     0   517   513  0.000000000E+00  0.000000000E+00 -1.232432005E+01  1.232432005E+01  0.000000000E+00  0.00000E+00  9.000E+00
      21     1     1     2   515   514  2.710652412E+00 -8.906686807E+00 -5.899897710E-02  9.310219506E+00  1.447120652E-07  0.00000E+00  9.000E+00
      21     1     1     2   517   515  2.053384585E-01  1.241460565E+01 -2.520307981E+00  1.266951261E+01  3.209808354E-07  0.00000E+00  9.000E+00
      21     1     1     2   512   513 -2.915990870E+00 -3.507918845E+00  1.160727161E+02  1.161623171E+02  1.348699152E-06  0.00000E+00  9.000E+00
</event>
<event>
      5  10001  2.40292E+09  1.28828E+01 -1.00000E+00  1.83793E-01
      21    -1     0     0   511   513  0.000000000E+00  0.000000000E+00  2.376161601E+02  2.376161601E+02  0.000000000E+00  0.00000E+00  9.000E+00
      21    -1     0     0   514   516  0.000000000E+00  0.000000000E+00 -1.163474715E+00  1.163474715E+00  0.000000000E+00  0.00000E+00  9.000E+00
      21     1     1     2   511   516  9.352670878E+00  2.737231129E+00  4.500129803E+01  4.604434505E+01  4.768371582E-07  0.00000E+00  9.000E+00
      21     1     1     2   514   515 -1.482601886E+01 -5.628064522E+00  1.266603219E+02  1.276492189E+02  0.000000000E+00  0.00000E+00  9.000E+00
      21     1     1     2   515   513  5.473347983E+00  2.890833393E+00  6.479106543E+01  6.508607082E+01  9.536743164E-07  0.00000E+00  9.000E+00
</event>
<event>
      5  10001  2.40292E+09  3.91020E+00 -1.00000E+00  2.65705E-01
      21    -1     0     0   512   511  0.000000000E+00  0.000000000E+00  2.601316815E+02  2.601316815E+02  0.000000000E+00  0.00000E+00  9.000E+00
      21    -1     0     0   517   513  0.000000000E+00  0.000000000E+00 -1.330898202E+01  1.330898202E+01  0.000000000E+00  0.00000E+00  9.000E+00
      21     1     1     2   512   513  1.206475271E+01  1.492340848E+01  9.590567736E+00  2.145333000E+01  4.129530925E-07  0.00000E+00  9.000E+00
      21     1     1     2   517   514 -1.480811812E+01 -1.213708752E+01  5.089022229E+00  1.981129484E+01  2.858538343E-07  0.00000E+00  9.000E+00
      21     1     1     2   514   511  2.743365414E+00 -2.786320955E+00  2.321431096E+02  2.321760387E+02  0.000000000E+00  0.00000E+00  9.000E+00
</event>
<event>
      5  10001  2.40292E+09  6.24193E+00 -1.00000E+00  2.22762E-01
      21    -1     0     0   515   513  0.000000000E+00  0.000000000E+00  2.271156218E+00  2.271156218E+00  0.000000000E+00  0.00000E+00  9.000E+00
      21    -1     0     0   516   511  0.000000000E+00  0.000000000E+00 -1.171605336E+02  1.171605336E+02  0.000000000E+00  0.00000E+00  9.000E+00
      21     1     1     2   515   511  1.262170594E+01 -4.959674327E+00 -8.260690992E+01  8.371264777E+01  1.348699152E-06  0.00000E+00  9.000E+00
      21     1     1     2   512   513 -9.187775035E+00  2.240360971E+00 -2.815389515E+01  2.969976834E+01  6.743495762E-07  0.00000E+00  9.000E+00
      21     1     1     2   516   512 -3.433930901E+00  2.719313355E+00 -4.128572292E+00  6.019273688E+00  0.000000000E+00  0.00000E+00  9.000E+00
</event>
<event>
      5  10001  2.40292E+09  6.44314E+00 -1.00000E+00  2.20696E-01
      21    -1     0     0   514   511  0.000000000E+00  0.000000000E+00  5.950158176E-01  5.950158176E-01  0.000000000E+00  0.00000E+00  9.000E+00
      21    -1     0     0   516   517  0.000000000E+00  0.000000000E+00 -2.586383140E+02  2.586383140E+02  0.000000000E+00  0.00000E+00  9.000E+00
      21     1     1     2   514   517  4.258098646E+00 -1.016133732E+01 -1.506131040E+02  1.510155332E+02  3.303624740E-06  0.00000E+00  9.000E+00
      -2     1     1     2     0   511  5.271040878E-01  6.254571781E+00 -3.840505459E+01  3.891599446E+01  3.300000131E-01  0.00000E+00  9.000E+00
       2     1     1     2   516     0 -4.785202733E+00  3.906765536E+00 -6.902513961E+01  6.930180215E+01  3.300000131E-01  0.00000E+00  9.000E+00
</event>
<event>
      5  10001  2.40292E+09  1.98413E+00 -1.00000E+00  3.64477E-01
      21    -1     0     0   514   511  0.000000000E+00  0.000000000E+00  7.430979538E+00  7.430979538E+00  0.000000000E+00  0.00000E+00  9.000E+00
       2    -1     0     0   511     0  0.000000000E+00  0.000000000E+00 -3.002482029E+02  3.002482029E+02  0.000000000E+00  0.00000E+00  9.000E+00
      21     1     1     2   513   512  9.718562207E+00 -6.076920580E+00 -6.552252226E+01  6.651751903E+01  2.697398305E-06  0.00000E+00  9.000E+00
       2     1     1     2   512     0 -1.117482393E+01  4.729347527E+00 -2.339255703E+02  2.342403141E+02  3.300000131E-01  0.00000E+00  9.000E+00
      21     1     1     2   514   513  1.456261727E+00  1.347573053E+00  6.630869134E+00  6.921349349E+00  3.264680848E-07  0.00000E+00  9.000E+00
</event>
<event>
      5  10001  2.40292E+09  5.15784E+00 -1.00000E+00  2.36095E-01
      21    -1     0     0   512   516  0.000000000E+00  0.000000000E+00  1.131594808E+01  1.131594808E+01  0.000000000E+00  0.00000E+00  9.000E+00
       2    -1     0     0   511     0  0.000000000E+00  0.000000000E+00 -5.646200786E+01  5.646200786E+01  0.000000000E+00  0.00000E+00  9.000E+00
      21     1     1     2   512   515 -9.412786384E+00 -4.799598298E+00 -6.754306433E-01  1.058739335E+01  2.960609866E-07  0.00000E+00  9.000E+00
       2     1     1     2   515     0  1.220136240E+01  4.608521549E-01 -4.889358146E+01  5.039619864E+01  3.300000131E-01  0.00000E+00  9.000E+00
      21     1     1     2   511   516 -2.788576017E+00  4.338746143E+00  4.422952322E+00  6.794363954E+00  1.576990671E-07  0.00000E+00  9.000E+00
</event>
<event>
      5  10001  2.40292E+09  6.39460E+00 -1.00000E+00  2.21185E-01
       1    -1     0     0   511     0  0.000000000E+00  0.000000000E+00  2.110747721E+02  2.110747721E+02  0.000000000E+00  0.00000E+00  9.000E+00
      21    -1     0     0   512   514  0.000000000E+00  0.000000000E+00 -1.395310146E+01  1.395310146E+01  0.000000000E+00  0.00000E+00  9.000E+00
      21     1     1     2   511   514  4.441599724E+00 -1.284147230E+01  2.178760864E+00  1.376147586E+01  5.247240323E-07  0.00000E+00  9.000E+00
       1     1     1     2   513     0 -5.128795194E+00  6.483968130E+00  2.017542233E+02  2.019238022E+02  3.300000131E-01  0.00000E+00  9.000E+00
      21     1     1     2   512   513  6.871954702E-01  6.357504167E+00 -6.811313577E+00  9.342595436E+00  3.475518164E-07  0.00000E+00  9.000E+00
</event>
<event>
      5  10001  2.40292E+09  7.43868E+00 -1.00000E+00  2.11820E-01
      -4    -1     0     0     0   513  0.000000000E+00  0.000000000E+00  9.929947612E+00  9.929947612E+00  0.000000000E+00  0.00000E+00  9.000E+00
      21    -1     0     0   512   516  0.000000000E+00  0.000000000E+00 -1.169898980E+02  1.169898980E+02  0.000000000E+00  0.00000E+00  9.000E+00
      21     1     1     2   515   516 -2.704283182E+00 -1.556709305E+01 -3.144951995E+01  3.519545196E+01  4.768371582E-07  0.00000E+00  9.000E+00
      21     1     1     2   512   513  8.306026048E+00  1.067986855E+01 -8.118975683E+01  8.230933286E+01  1.651812370E-06  0.00000E+00  9.000E+00
      -4     1     1     2     0   515 -5.601742866E+00  4.887224497E+00  5.579326407E+00  9.415060785E+00  1.500000000E+00  0.00000E+00  9.000E+00
</event>
<event>
      5  10001  2.40292E+09  1.15112E+01 -1.00000E+00  1.88893E-01
      21    -1     0     0   511   512  0.000000000E+00  0.000000000E+00  2.887260027E+00  2.887260027E+00  0.000000000E+00  0.00000E+00  9.000E+00
      21    -1     0     0   513   514  0.000000000E+00  0.000000000E+00 -3.870299053E+02  3.870299053E+02  0.000000000E+00  0.00000E+00  9.000E+00
      21     1     1     2   511   514  1.291256947E+00 -2.393061543E+01 -1.873153789E+02  1.888422434E+02  3.814697266E-06  0.00000E+00  9.000E+00
      21     1     1     2   515   512  1.012688147E+01  2.246986727E+01 -8.073116467E+01  8.440953508E+01  1.651812370E-06  0.00000E+00  9.000E+00
      21     1     1     2   513   515 -1.141813842E+01  1.460748160E+00 -1.160961017E+02  1.166653869E+02  1.907348633E-06  0.00000E+00  9.000E+00
</event>
<event>
      5  10001  2.40292E+09  7.34042E+00 -1.00000E+00  2.12610E-01
      21    -1     0     0   513   512  0.000000000E+00  0.000000000E+00  9.302127515E-01  9.302127515E-01  0.000000000E+00  0.00000E+00  9.000E+00
       2    -1     0     0   515     0  0.000000000E+00  0.000000000E+00 -2.996493426E+02  2.996493426E+02  0.000000000E+00  0.00000E+00  9.000E+00
      21     1     1     2   515   512  1.260305778E+01  1.458055543E+00 -5.266237749E+01  5.416907784E+01  9.536743164E-07  0.00000E+00  9.000E+00
      21     1     1     2   513   511 -1.867802132E+00 -1.581217825E+00 -4.953513853E+01  4.959555306E+01  6.743495762E-07  0.00000E+00  9.000E+00
       2     1     1     2   511     0 -1.073525564E+01  1.231622824E-01 -1.965216139E+02  1.968149245E+02  3.300000131E-01  0.00000E+00  9.000E+00
</event>
<event>
      5  10001  2.40292E+09  9.24931E+00 -1.00000E+00  1.99697E-01
      21    -1     0     0   513   514  0.000000000E+00  0.000000000E+00  3.380802423E+02  3.380802423E+02  0.000000000E+00  0.00000E+00  9.000E+00
       2    -1     0     0   512     0  0.000000000E+00  0.000000000E+00 -3.373469166E+00  3.373469166E+00  0.000000000E+00  0.00000E+00  9.000E+00
      21     1     1     2   512   514  1.075845417E+01 -9.979621438E+00  1.211651396E+02  1.220505151E+02  3.303624740E-06  0.00000E+00  9.000E+00
       2     1     1     2   511     0 -1.067992552E+01  1.922836489E+01  4.028351093E+01  4.589837664E+01  3.300000131E-01  0.00000E+00  9.000E+00
      21     1     1     2   513   511 -7.852865737E-02 -9.248743449E+00  1.732581227E+02  1.735048198E+02  3.303624740E-06  0.00000E+00  9.000E+00
</event>
<event>
      5  10001  2.40292E+09  4.12130E+01 -1.00000E+00  1.44009E-01
      -4    -1     0     0     0   515  0.000000000E+00  0.000000000E+00  1.767108869E+01  1.767108869E+01  0.000000000E+00  0.00000E+00  9.000E+00
      21    -1     0     0   513   511  0.000000000E+00  0.000000000E+00 -3.352642389E+01  3.352642389E+01  0.000000000E+00  0.00000E+00  9.000E+00
      21     1     1     2   512   511 -9.435030548E+00  9.009212724E+00 -1.133855628E+01  1.728434477E+01  3.371747881E-07  0.00000E+00  9.000E+00
      21     1     1     2   513   515 -2.854177855E+00 -5.384054706E+00 -1.569949999E+01  1.684068515E+01  0.000000000E+00  0.00000E+00  9.000E+00
      -4     1     1     2     0   512  1.228920840E+01 -3.625158019E+00  1.118272107E+01  1.707248267E+01  1.500000000E+00  0.00000E+00  9.000E+00
</event>
<event>
      5  10001  2.40292E+09  6.47426E+00 -1.00000E+00  2.20385E-01
      21    -1     0     0   514   513  0.000000000E+00  0.000000000E+00  1.688392073E+01  1.688392073E+01  0.000000000E+00  0.00000E+00  9.000E+00
      -4    -1     0     0     0   512  0.000000000E+00  0.000000000E+00 -1.348352147E+01  1.348352147E+01  0.000000000E+00  0.00000E+00  9.000E+00
      -4     1     1     2     0   513  5.973763579E+00 -9.012672547E+00 -7.114399083E+00  1.302991911E+01  1.500000000E+00  0.00000E+00  9.000E+00
      21     1     1     2   514   511 -6.844166319E+00  3.406803375E+00  8.197993883E+00  1.120963985E+01  2.064765462E-07  0.00000E+00  9.000E+00
      21     1     1     2   511   512  8.704027393E-01  5.605869172E+00  2.316804454E+00  6.127883238E+00  9.884312124E-08  0.00000E+00  9.000E+00
</event>
<event>
      5  10001  2.40292E+09  1.56632E+01 -1.00000E+00  1.75585E-01
       2    -1     0     0   512     0  0.000000000E+00  0.000000000E+00  3.022688549E+02  3.022688549E+02  0.000000000E+00  0.00000E+00  9.000E+00
       4    -1     0     0   511     0  0.000000000E+00  0.000000000E+00 -2.220124927E+00  2.220124927E+00  0.000000000E+00  0.00000E+00  9.000E+00
       2     1     1     2   511     0 -9.640919710E+00  8.606753695E+00  2.572392627E+02  2.575639158E+02  3.300000131E-01  0.00000E+00  9.000E+00
       4     1     1     2   513     0  5.142488818E+00  2.817156503E+00  8.123758164E+00  1.013049894E+01  1.500000000E+00  0.00000E+00  9.000E+00
      21     1     1     2   512   513  4.498430892E+00 -1.142391020E+01  3.468570913E+01  3.679456512E+01  6.743495762E-07  0.00000E+00  9.000E+00
</event>
<event>
      5  10001  2.40292E+09  1.36676E+01 -1.00000E+00  1.81226E-01
       3    -1     0     0   514     0  0.000000000E+00  0.000000000E+00  4.418847149E+00  4.418847149E+00  0.000000000E+00  0.00000E+00  9.000E+00
      21    -1     0     0   512   513  0.000000000E+00  0.000000000E+00 -1.795401714E+02  1.795401714E+02  0.000000000E+00  0.00000E+00  9.000E+00
      21     1     1     2   514   513  2.594773893E+00  2.434336731E+01 -5.523294656E+01  6.041531900E+01  1.168007728E-06  0.00000E+00  9.000E+00
      21     1     1     2   512   511  3.983889783E+00 -1.479756053E+01 -9.306046142E+01  9.431377766E+01  0.000000000E+00  0.00000E+00  9.000E+00
       3     1     1     2   511     0 -6.578663676E+00 -9.545806779E+00 -2.682791627E+01  2.922992190E+01  5.000000000E-01  0.00000E+00  9.000E+00
</event>
<event>
      5  10001  2.40292E+09  9.36472E+00 -1.00000E+00  1.99051E-01
      21    -1     0     0   513   512  0.000000000E+00  0.000000000E+00  7.310892973E+01  7.310892973E+01  0.000000000E+00  0.00000E+00  9.000E+00
       2    -1     0     0   515     0  0.000000000E+00  0.000000000E+00 -6.697089693E+01  6.697089693E+01  0.000000000E+00  0.00000E+00  9.000E+00
      21     1     1     2   515   512 -8.320575726E+00  8.174992516E+00  4.985794815E+01  5.120427206E+01  9.536743164E-07  0.00000E+00  9.000E+00
       2     1     1     2   511     0  1.278168678E+01  5.880609671E-02 -6.467309075E+01  6.592490078E+01  3.300000131E-01  0.00000E+00  9.000E+00
      21     1     1     2   513   511 -4.461111054E+00 -8.233798613E+00  2.095317540E+01  2.295065382E+01  2.384185791E-07  0.00000E+00  9.000E+00
</event>
<event>
      5  10001  2.40292E+09  5.50576E+00 -1.00000E+00  2.31348E-01
      21    -1     0     0   512   515  0.000000000E+00  0.000000000E+00  4.019714268E+02  4.019714268E+02  0.000000000E+00  0.00000E+00  9.000E+00
      21    -1     0     0   516   514  0.000000000E+00  0.000000000E+00 -3.816760324E+00  3.816760324E+00  0.000000000E+00  0.00000E+00  9.000E+00
      21     1     1     2   511   515  8.395738554E+00 -9.097094824E+00  1.041707222E+01  1.617902821E+01  1.192092896E-07  0.00000E+00  9.000E+00
      21     1     1     2   516   511 -2.903095754E+00  9.476939718E+00  2.593155190E+01  2.776122719E+01  5.840038640E-07  0.00000E+00  9.000E+00
      21     1     1     2   512   514 -5.492642800E+00 -3.798448939E-01  3.618060424E+02  3.618479317E+02  3.814697266E-06  0.00000E+00  9.000E+00
</event>
<event>
      5  10001  2.40292E+09  4.99083E+00 -1.00000E+00  2.42613E-01
      21    -1     0     0   511   515  0.000000000E+00  0.000000000E+00  3.653713614E+01  3.653713614E+01  0.000000000E+00  0.00000E+00  9.000E+00
      21    -1     0     0   517   513  0.000000000E+00  0.000000000E+00 -1.211227259E+01  1.211227259E+01  0.000000000E+00  0.00000E+00  9.000E+00
      21     1     1     2   517   514  3.127923521E-01 -8.401268537E+00 -6.676710342E+00  1.073580985E+01  2.920019320E-07  0.00000E+00  9.000E+00
      21     1     1     2   514   515 -5.054035193E-01  1.338837815E+01  1.140585155E+01  1.759538439E+01  3.371747881E-07  0.00000E+00  9.000E+00
      21     1     1     2   511   513  1.926111672E-01 -4.987109610E+00  1.969572234E+01  2.031821449E+01  3.371747881E-07  0.00000E+00  9.000E+00
</event>
<event>
      5  10001  2.40292E+09  4.32918E+00 -1.00000E+00  2.55530E-01
      21    -1     0     0   512   515  0.000000000E+00  0.000000000E+00  5.446276328E-01  5.446276328E-01  0.000000000E+00  0.00000E+00  9.000E+00
       2    -1     0     0   511     0  0.000000000E+00  0.000000000E+00 -1.074483882E+03  1.074483882E+03  0.000000000E+00  0.00000E+00  9.000E+00
       3     1     1     2   511     0  7.438455104E+00 -8.260510298E+00 -6.193410639E+01  6.292575132E+01  5.000000000E-01  0.00000E+00  9.000E+00
       2     1     1     2   512     0 -5.894598502E+00  9.735662303E+00 -9.245965728E+02  9.246666755E+02  3.300000131E-01  0.00000E+00  9.000E+00
      -3     1     1     2     0   515 -1.543856603E+00 -1.475152005E+00 -8.740857560E+01  8.743608325E+01  5.000000000E-01  0.00000E+00  9.000E+00
</event>
<event>
      5  10001  2.40292E+09  4.85654E+00 -1.00000E+00  2.44982E-01
       2    -1     0     0   514     0  0.000000000E+00  0.000000000E+00  6.685208734E+02  6.685208734E+02  0.000000000E+00  0.00000E+00  9.000E+00
      21    -1     0     0   513   512  0.000000000E+00  0.000000000E+00 -1.525681108E+00  1.525681108E+00  0.000000000E+00  0.00000E+00  9.000E+00
      21     1     1     2   511   512 -7.067457787E-01 -3.771091707E+00  5.577419074E+00  6.769654776E+00  3.674277069E-07  0.00000E+00  9.000E+00
       2     1     1     2   513     0 -2.768553328E+00  1.096266223E+01  6.441718300E+02  6.442711388E+02  3.300000131E-01  0.00000E+00  9.000E+00
      21     1     1     2   514   511  3.475299107E+00 -7.191570518E+00  1.724594323E+01  1.900576092E+01  1.327458468E-06  0.00000E+00  9.000E+00
</event>
<event>
      5  10001  2.40292E+09  1.21582E+01 -1.00000E+00  1.86379E-01
      21    -1     0     0   515   512  0.000000000E+00  0.000000000E+00  4.516446480E+02  4.516446480E+02  0.000000000E+00  0.00000E+00  9.000E+00
      21    -1     0     0   516   511  0.000000000E+00  0.000000000E+00 -1.280369690E+00  1.280369690E+00  0.000000000E+00  0.00000E+00  9.000E+00
      21     1     1     2   515   511 -9.217782302E+00 -1.865864627E+01  3.130380660E+02  3.137290923E+02  3.814697266E-06  0.00000E+00  9.000E+00
      21     1     1     2   516   513  4.832127798E+00  7.611516918E+00  8.787806175E+01  8.833933657E+01  9.536743164E-07  0.00000E+00  9.000E+00
      21     1     1     2   513   512  4.385654503E+00  1.104712935E+01  4.944815057E+01  5.085658883E+01  1.348699152E-06  0.00000E+00  9.000E+00
</event>
<event>
      5  10001  2.40292E+09  1.33408E+01 -1.00000E+00  1.82267E-01
      21    -1     0     0   514   511  0.000000000E+00  0.000000000E+00  4.147995366E+00  4.147995366E+00  0.000000000E+00  0.00000E+00  9.000E+00
      21    -1     0     0   517   512  0.000000000E+00  0.000000000E+00 -5.451162041E+01  5.451162041E+01  0.000000000E+00  0.00000E+00  9.000E+00
      21     1     1     2   514   512  6.382039857E+00  9.362380239E+00 -1.905567561E+01  2.216987527E+01  4.129530925E-07  0.00000E+00  9.000E+00
      21     1     1     2   515   511 -9.354177697E+00 -2.566887161E+00 -1.001679171E+01  1.394366043E+01  2.064765462E-07  0.00000E+00  9.000E+00
      21     1     1     2   517   515  2.972137840E+00 -6.795493078E+00 -2.129115773E+01  2.254608008E+01  3.371747881E-07  0.00000E+00  9.000E+00
</event>
<event>
      5  10001  2.40292E+09  9.56639E+00 -1.00000E+00  1.97950E-01
      21    -1     0     0   513   512  0.000000000E+00  0.000000000E+00  8.982553513E+01  8.982553513E+01  0.000000000E+00  0.00000E+00  9.000E+00
      21    -1     0     0   517   516  0.000000000E+00  0.000000000E+00 -8.614287666E+00  8.614287666E+00  0.000000000E+00  0.00000E+00  9.000E+00
      21     1     1     2   513   516  1.113574104E+01 -9.152089069E-01 -3.213626440E+00  1.162625180E+01  1.685873940E-07  0.00000E+00  9.000E+00
      21     1     1     2   517   511 -4.595746213E+00 -2.530258241E+00  7.311041765E+01  7.329840557E+01  9.536743164E-07  0.00000E+00  9.000E+00
      21     1     1     2   511   512 -6.539994831E+00  3.445467148E+00  1.131445626E+01  1.351516543E+01  2.920019320E-07  0.00000E+00  9.000E+00
</event>
<event>
      5  10001  2.40292E+09  3.39430E+00 -1.00000E+00  2.81365E-01
      21    -1     0     0   513   512  0.000000000E+00  0.000000000E+00  1.289799508E+01  1.289799508E+01  0.000000000E+00  0.00000E+00  9.000E+00
       1    -1     0     0   514     0  0.000000000E+00  0.000000000E+00 -1.996740423E+02  1.996740423E+02  0.000000000E+00  0.00000E+00  9.000E+00
      21     1     1     2   514   512  2.967826178E+01  1.671401488E+00 -9.608452866E+00  3.123964103E+01  8.513246093E-07  0.00000E+00  9.000E+00
       1     1     1     2   511     0 -3.296759293E+01 -2.508849346E+00 -1.720033447E+02  1.751525507E+02  3.300000131E-01  0.00000E+00  9.000E+00
      21     1     1     2   513   511  3.289331152E+00  8.374478587E-01 -5.164249594E+00  6.179845646E+00  1.032382731E-07  0.00000E+00  9.000E+00
</event>
<event>
      5  10001  2.40292E+09  5.22464E+00 -1.00000E+00  2.35143E-01
      21    -1     0     0   515   511  0.000000000E+00  0.000000000E+00  7.689629487E-01  7.689629487E-01  0.000000000E+00  0.00000E+00  9.000E+00
      21    -1     0     0   512   516  0.000000000E+00  0.000000000E+00 -2.276328829E+02  2.276328829E+02  0.000000000E+00  0.00000E+00  9.000E+00
      21     1     1     2   515   516  9.272890452E+00 -8.110399933E+00 -1.267623193E+02  1.273595332E+02  1.907348633E-06  0.00000E+00  9.000E+00
      21     1     1     2   514   511 -6.702968219E+00  4.263480717E+00 -8.099269158E+01  8.138134393E+01  9.536743164E-07  0.00000E+00  9.000E+00
      21     1     1     2   512   514 -2.569922233E+00  3.846919216E+00 -1.910890900E+01  1.966096872E+01  0.000000000E+00  0.00000E+00  9.000E+00
</event>
<event>
      5  10001  2.40292E+09  5.32908E+00 -1.00000E+00  2.33695E-01
      21    -1     0     0   515   511  0.000000000E+00  0.000000000E+00  7.721770833E+00  7.721770833E+00  0.000000000E+00  0.00000E+00  9.000E+00
      -2    -1     0     0     0   513  0.000000000E+00  0.000000000E+00 -1.306144247E+02  1.306144247E+02  0.000000000E+00  0.00000E+00  9.000E+00
      -2     1     1     2     0   511 -1.997154359E+01  6.459181099E+00 -1.012194326E+02  1.033734299E+02  3.300000131E-01  0.00000E+00  9.000E+00
      21     1     1     2   512   513  1.616201364E+01 -1.018543351E+01 -2.255852631E+01  2.956079921E+01  7.539457465E-07  0.00000E+00  9.000E+00
      21     1     1     2   515   512  3.809529953E+00  3.726252415E+00  8.853050964E-01  5.401966367E+00  5.575503985E-08  0.00000E+00  9.000E+00
</event>
<event>
      5  10001  2.40292E+09  3.79474E+00 -1.00000E+00  2.68867E-01
      21    -1     0     0   514   511  0.000000000E+00  0.000000000E+00  1.757601355E+02  1.757601355E+02  0.000000000E+00  0.00000E+00  9.000E+00
      21    -1     0     0   516   514  0.000000000E+00  0.000000000E+00 -1.943975725E+00  1.943975725E+00  0.000000000E+00  0.00000E+00  9.000E+00
      21     1     1     2   516   517 -9.236753889E+00  8.720255379E+00  2.286011601E+01  2.615234942E+01  3.371747881E-07  0.00000E+00  9.000E+00
      21     1     1     2   513   511  3.727830813E+00 -6.470494574E+00  8.626801511E+01  8.659061412E+01  9.536743164E-07  0.00000E+00  9.000E+00
      21     1     1     2   517   513  5.508923076E+00 -2.249760805E+00  6.468802865E+01  6.496114768E+01  9.536743164E-07  0.00000E+00  9.000E+00
</event>
<event>
      5  10001  2.40292E+09  1.12890E+01 -1.00000E+00  1.89806E-01
      21    -1     0     0   512   513  0.000000000E+00  0.000000000E+00  5.586647796E+01  5.586647796E+01  0.000000000E+00  0.00000E+00  9.000E+00
      21    -1     0     0   516   511  0.000000000E+00  0.000000000E+00 -4.995621265E+01  4.995621265E+01  0.000000000E+00  0.00000E+00  9.000E+00
      21     1     1     2   512   515  1.584742897E+01 -1.651213709E+00  5.103640606E+01  5.346571103E+01  9.536743164E-07  0.00000E+00  9.000E+00
      21     1     1     2   516   513 -7.631437189E+00  9.393294236E+00 -1.079510052E+01  1.621749073E+01  2.665600750E-07  0.00000E+00  9.000E+00
      21     1     1     2   515   511 -8.215991786E+00 -7.742080527E+00 -3.433104023E+01  3.613948886E+01  6.743495762E-07  0.00000E+00  9.000E+00
</event>
<event>
      5  10001  2.40292E+09  1.20989E+01 -1.00000E+00  1.86601E-01
      21    -1     0     0   514   511  0.000000000E+00  0.000000000E+00  5.167525324E+01  5.167525324E+01  0.000000000E+00  0.00000E+00  9.000E+00
      21    -1     0     0   515   517  0.000000000E+00  0.000000000E+00 -1.811012345E+01  1.811012345E+01  0.000000000E+00  0.00000E+00  9.000E+00
      21     1     1     2   514   517  8.445267155E+00 -4.867110916E+00  4.450723046E+01  4.556209905E+01  0.000000000E+00  0.00000E+00  9.000E+00
      21     1     1     2   515   512 -1.433622865E+01  6.118727524E+00 -7.776880644E+00  1.741970583E+01  5.960464478E-07  0.00000E+00  9.000E+00
      21     1     1     2   512   511  5.890961500E+00 -1.251616608E+00 -3.165220030E+00  6.803571809E+00  1.460009660E-07  0.00000E+00  9.000E+00
</event>
<event>
      5  10001  2.40292E+09  7.73581E+00 -1.00000E+00  2.09529E-01
      21    -1     0     0   513   511  0.000000000E+00  0.000000000E+00  8.335569891E+00  8.335569891E+00  0.000000000E+00  0.00000E+00  9.000E+00
       1    -1     0     0   511     0  0.000000000E+00  0.000000000E+00 -3.268692985E+02  3.268692985E+02  0.000000000E+00  0.00000E+00  9.000E+00
      21     1     1     2   513   514  2.536883394E+00 -9.248575173E-01  4.311752544E+00  5.087469782E+00  6.925433897E-07  0.00000E+00  9.000E+00
       1     1     1     2   512     0 -1.021282467E+01 -3.328671361E+00 -3.209620110E+02  3.211418740E+02  3.300000131E-01  0.00000E+00  9.000E+00
      21     1     1     2   514   512  7.675941274E+00  4.253528879E+00 -1.883470185E+00  8.975524626E+00  3.462716949E-07  0.00000E+00  9.000E+00
</event>
<event>
      5  10001  2.40292E+09  3.56036E+00 -1.00000E+00  2.75864E-01
      21    -1     0     0   515   512  0.000000000E+00  0.000000000E+00  4.897624266E+02  4.897624266E+02  0.000000000E+00  0.00000E+00  9.000E+00
      21    -1     0     0   513   515  0.000000000E+00  0.000000000E+00 -1.887894059E+00  1.887894059E+00  0.000000000E+00  0.00000E+00  9.000E+00
      21     1     1     2   511   516 -1.063288029E+01 -2.800937964E+00  2.326385005E+02  2.328982081E+02  4.672030912E-06  0.00000E+00  9.000E+00
      21     1     1     2   516   512  8.370169081E+00  5.549813670E+00  2.549852276E+02  2.551829274E+02  3.814697266E-06  0.00000E+00  9.000E+00
      21     1     1     2   513   511  2.262711211E+00 -2.748875706E+00  2.508044023E-01  3.569185134E+00  3.460110915E-07  0.00000E+00  9.000E+00
</event>
<event>
      5  10001  2.40292E+09  5.71236E+00 -1.00000E+00  2.28756E-01
      21    -1     0     0   514   512  0.000000000E+00  0.000000000E+00  1.327651656E+02  1.327651656E+02  0.000000000E+00  0.00000E+00  9.000E+00
      21    -1     0     0   513   511  0.000000000E+00  0.000000000E+00 -9.544198259E+00  9.544198259E+00  0.000000000E+00  0.00000E+00  9.000E+00
      21     1     1     2   514   511  9.921309778E+00 -5.553911526E+00  4.690958904E+01  4.826787611E+01  6.743495762E-07  0.00000E+00  9.000E+00
      21     1     1     2   513   516 -5.978188032E+00  9.687045981E+00 -5.069027434E+00  1.246084392E+01  3.998401125E-07  0.00000E+00  9.000E+00
      21     1     1     2   516   512 -3.943121746E+00 -4.133134455E+00  8.138040578E+01  8.158064388E+01  0.000000000E+00  0.00000E+00  9.000E+00
</event>
<event>
      5  10001  2.40292E+09  2.08908E+01 -1.00000E+00  1.64782E-01
      21    -1     0     0   515   516  0.000000000E+00  0.000000000E+00  1.876010220E+02  1.876010220E+02  0.000000000E+00  0.00000E+00  9.000E+00
      21    -1     0     0   512   515  0.000000000E+00  0.000000000E+00 -2.635846409E+00  2.635846409E+00  0.000000000E+00  0.00000E+00  9.000E+00
      21     1     1     2   513   516  9.008638269E+00  5.146106762E+00  1.593522665E+02  1.596896453E+02  0.000000000E+00  0.00000E+00  9.000E+00
      21     1     1     2   512   511 -5.860371612E+00 -3.320372300E+00  2.602694441E+01  2.688439441E+01  4.768371582E-07  0.00000E+00  9.000E+00
      21     1     1     2   511   513 -3.148266657E+00 -1.825734462E+00 -4.140352599E-01  3.662828752E+00  2.930456465E-07  0.00000E+00  9.000E+00
</event>
<event>
      5  10001  2.40292E+09  1.14774E+01 -1.00000E+00  1.89030E-01
      21    -1     0     0   514   512  0.000000000E+00  0.000000000E+00  1.047973298E+02  1.047973298E+02  0.000000000E+00  0.00000E+00  9.000E+00
      21    -1     0     0   516   513  0.000000000E+00  0.000000000E+00 -4.383525189E+01  4.383525189E+01  0.000000000E+00  0.00000E+00  9.000E+00
      21     1     1     2   514   513 -9.997057405E+00 -1.288757258E+00  1.035554537E+02  1.040448655E+02  1.348699152E-06  0.00000E+00  9.000E+00
      21     1     1     2   515   512  7.310995078E+00 -8.991413740E-01 -1.432559241E+01  1.610843574E+01  2.920019320E-07  0.00000E+00  9.000E+00
      21     1     1     2   516   515  2.686062326E+00  2.187898632E+00 -2.826778342E+01  2.847928038E+01  9.536743164E-07  0.00000E+00  9.000E+00
</event>
<event>
      5  10001  2.40292E+09  5.64640E+00 -1.00000E+00  2.29567E-01
      21    -1     0     0   511   512  0.000000000E+00  0.000000000E+00  1.662647925E+03  1.662647925E+03  0.000000000E+00  0.00000E+00  9.000E+00
      21    -1     0     0   512   514  0.000000000E+00  0.000000000E+00 -7.090702936E-02  7.090702936E-02  0.000000000E+00  0.00000E+00  9.000E+00
      21     1     1     2   513   514  3.746195990E+00 -4.574597201E+00  2.477387323E+02  2.478092823E+02  3.814697266E-06  0.00000E+00  9.000E+00
       5     1     1     2   511     0 -2.201287178E+00  6.865203630E+00  8.544508478E+02  8.544947442E+02  4.800000191E+00  0.00000E+00  9.000E+00
      -5     1     1     2     0   513 -1.544908812E+00 -2.290606430E+00  5.603874384E+02  5.604148060E+02  4.800000191E+00  0.00000E+00  9.000E+00
</event>
<event>
      5  10001  2.40292E+09  9.53134E+00 -1.00000E+00  1.98138E-01
      21    -1     0     0   511   514  0.000000000E+00  0.000000000E+00  5.721795357E+01  5.721795357E+01  0.000000000E+00  0.00000E+00  9.000E+00
      21    -1     0     0   512   513  0.000000000E+00  0.000000000E+00 -5.058037282E+02  5.058037282E+02  0.000000000E+00  0.00000E+00  9.000E+00
      21     1     1     2   515   513 -1.105515296E+01 -7.781969766E+00 -1.838694491E+02  1.843658042E+02  2.697398305E-06  0.00000E+00  9.000E+00
      21     1     1     2   512   514  2.179062730E+00  1.125493125E+01 -3.211844619E+02  3.213889861E+02  3.814697266E-06  0.00000E+00  9.000E+00
      21     1     1     2   511   515  8.876090228E+00 -3.472961484E+00  5.646813635E+01  5.726689150E+01  1.168007728E-06  0.00000E+00  9.000E+00
</event>
<event>
      5  10001  2.40292E+09  8.42185E+00 -1.00000E+00  2.04731E-01
      21    -1     0     0   516   512  0.000000000E+00  0.000000000E+00  3.748141242E+01  3.748141242E+01  0.000000000E+00  0.00000E+00  9.000E+00
      21    -1     0     0   517   513  0.000000000E+00  0.000000000E+00 -2.011509622E+01  2.011509622E+01  0.000000000E+00  0.00000E+00  9.000E+00
      21     1     1     2   516   515 -1.662421461E+01  2.302953233E-02  3.054532456E+01  3.477616848E+01  5.840038640E-07  0.00000E+00  9.000E+00
      21     1     1     2   517   512  8.821384844E+00 -3.192171038E+00 -3.556211046E+00  1.003261798E+01  7.300048300E-08  0.00000E+00  9.000E+00
      21     1     1     2   515   513  7.802829770E+00  3.169141505E+00 -9.622797316E+00  1.278772218E+01  1.685873940E-07  0.00000E+00  9.000E+00
</event>
<event>
      5  10001  2.40292E+09  5.73403E+00 -1.00000E+00  2.28493E-01
      21    -1     0     0   511   513  0.000000000E+00  0.000000000E+00  1.254459301E+02  1.254459301E+02  0.000000000E+00  0.00000E+00  9.000E+00
      21    -1     0     0   515   514  0.000000000E+00  0.000000000E+00 -2.817491634E+00  2.817491634E+00  0.000000000E+00  0.00000E+00  9.000E+00
      21     1     1     2   511   514  9.254262361E+00  2.756332161E+00  7.836289324E+00  1.243568129E+01  8.429369702E-08  0.00000E+00  9.000E+00
      21     1     1     2   512   513 -1.219135700E+01 -2.815309322E+00  9.400234582E+01  9.483140920E+01  1.348699152E-06  0.00000E+00  9.000E+00
      21     1     1     2   515   512  2.937094640E+00  5.897716116E-02  2.078980329E+01  2.099633121E+01  0.000000000E+00  0.00000E+00  9.000E+00
</event>
<event>
      5  10001  2.40292E+09  9.61429E+00 -1.00000E+00  1.97693E-01
      21    -1     0     0   512   511  0.000000000E+00  0.000000000E+00  5.671220660E+01  5.671220660E+01  0.000000000E+00  0.00000E+00  9.000E+00
       2    -1     0     0   513     0  0.000000000E+00  0.000000000E+00 -9.532973111E+01  9.532973111E+01  0.000000000E+00  0.00000E+00  9.000E+00
      21     1     1     2   512   515 -6.226981681E+00  1.022599074E+01 -2.544370997E+01  2.811989624E+01  5.840038640E-07  0.00000E+00  9.000E+00
       2     1     1     2   515     0 -1.721185287E+00 -1.563523103E+01 -6.721526387E+01  6.903204709E+01  3.300000131E-01  0.00000E+00  9.000E+00
      21     1     1     2   513   511  7.948166968E+00  5.409240295E+00  5.404144933E+01  5.488999439E+01  6.743495762E-07  0.00000E+00  9.000E+00
</event>
<event>
      5  10001  2.40292E+09  8.54268E+00 -1.00000E+00  2.03949E-01
      21    -1     0     0   514   515  0.000000000E+00  0.000000000E+00  1.801901328E+01  1.801901328E+01  0.000000000E+00  0.00000E+00  9.000E+00
      21    -1     0     0   513   511  0.000000000E+00  0.000000000E+00 -1.190278224E+02  1.190278224E+02  0.000000000E+00  0.00000E+00  9.000E+00
      21     1     1     2   514   511 -4.400477987E+00 -1.153934621E+01 -1.146466808E+02  1.153099394E+02  0.000000000E+00  0.00000E+00  9.000E+00
      21     1     1     2   513   512  6.239457230E+00  3.273275049E+00  1.062454961E+01  1.274857680E+01  4.616955931E-07  0.00000E+00  9.000E+00
      21     1     1     2   512   515 -1.838979243E+00  8.266071161E+00  3.013322042E+00  8.988319466E+00  2.149076030E-07  0.00000E+00  9.000E+00
</event>
<event>
      5  10001  2.40292E+09  5.02913E+00 -1.00000E+00  2.37989E-01
      21    -1     0     0   516   511  0.000000000E+00  0.000000000E+00  1.908273144E+02  1.908273144E+02  0.000000000E+00  0.00000E+00  9.000E+00
      21    -1     0     0   515   513  0.000000000E+00  0.000000000E+00 -1.338332568E+01  1.338332568E+01  0.000000000E+00  0.00000E+00  9.000E+00
      21     1     1     2   515   517  2.562405244E+00  1.157789159E+01  1.403726517E+01  1.837548116E+01  3.769728732E-07  0.00000E+00  9.000E+00
      21     1     1     2   517   511 -7.504796445E+00 -1.250792170E+01  1.737356702E+02  1.743469334E+02  4.264961200E-06  0.00000E+00  9.000E+00
      21     1     1     2   516   513  4.942391200E+00  9.300301085E-01 -1.032894667E+01  1.148822554E+01  2.920019320E-07  0.00000E+00  9.000E+00
</event>
<event>
      5  10001  2.40292E+09  1.68299E+01 -1.00000E+00  1.72755E-01
      -3    -1     0     0     0   512  0.000000000E+00  0.000000000E+00  1.797475520E+02  1.797475520E+02  0.000000000E+00  0.00000E+00  9.000E+00
      21    -1     0     0   511   513  0.000000000E+00  0.000000000E+00 -3.255104193E+00  3.255104193E+00  0.000000000E+00  0.00000E+00  9.000E+00
      -3     1     1     2     0   513 -1.118696151E+01  1.155510213E+01  3.316707343E+01  3.686425440E+01  5.000000000E-01  0.00000E+00  9.000E+00
      21     1     1     2   514   512  1.046738665E+01 -4.501421038E+00  1.336939310E+02  1.341785980E+02  2.697398305E-06  0.00000E+00  9.000E+00
      21     1     1     2   511   514  7.195748596E-01 -7.053681090E+00  9.631443328E+00  1.195980374E+01  1.192092896E-07  0.00000E+00  9.000E+00
</event>
<event>
      5  10001  2.40292E+09  1.55389E+01 -1.00000E+00  1.75905E-01
      21    -1     0     0   515   512  0.000000000E+00  0.000000000E+00  1.586223764E+00  1.586223764E+00  0.000000000E+00  0.00000E+00  9.000E+00
      21    -1     0     0   511   515  0.000000000E+00  0.000000000E+00 -1.058612370E+02  1.058612370E+02  0.000000000E+00  0.00000E+00  9.000E+00
      21     1     1     2   514   512  7.474189560E+00  6.494083234E+00 -4.958614987E+01  5.056503620E+01  6.743495762E-07  0.00000E+00  9.000E+00
      21     1     1     2   513   514 -7.207459813E-01 -3.858201348E+00 -4.264318536E+01  4.282343342E+01  9.536743164E-07  0.00000E+00  9.000E+00
      21     1     1     2   511   513 -6.753443579E+00 -2.635881886E+00 -1.204567803E+01  1.405899117E+01  2.384185791E-07  0.00000E+00  9.000E+00
</event>
<event>
      5  10001  2.40292E+09  1.27108E+01 -1.00000E+00  1.84387E-01
       2    -1     0     0   514     0  0.000000000E+00  0.000000000E+00  2.079395364E+02  2.079395364E+02  0.000000000E+00  0.00000E+00  9.000E+00
      21    -1     0     0   513   514  0.000000000E+00  0.000000000E+00 -5.939704543E-01  5.939704543E-01  0.000000000E+00  0.00000E+00  9.000E+00
      21     1     1     2   513   512  2.998290224E+00  1.921817167E+00  1.096842201E+02  1.097420214E+02  0.000000000E+00  0.00000E+00  9.000E+00
       2     1     1     2   516     0 -7.521152735E+00 -2.869671997E+00  8.366434244E+01  8.405137627E+01  3.300000131E-01  0.00000E+00  9.000E+00
      21     1     1     2   512   516  4.522862511E+00  9.478548303E-01  1.399700335E+01  1.474010912E+01  3.769728732E-07  0.00000E+00  9.000E+00
</event>
<event>
      5  10001  2.40292E+09  1.61464E+01 -1.00000E+00  1.74377E-01
      21    -1     0     0   511   513  0.000000000E+00  0.000000000E+00  6.812658596E-01  6.812658596E-01  0.000000000E+00  0.00000E+00  9.000E+00
      21    -1     0     0   512   515  0.000000000E+00  0.000000000E+00 -3.593802482E+02  3.593802482E+02  0.000000000E+00  0.00000E+00  9.000E+00
      21     1     1     2   511   515  7.753253504E+00 -4.071775968E+00 -2.166406193E+02  2.168175506E+02  2.697398305E-06  0.00000E+00  9.000E+00
      21     1     1     2   514   513  1.940773431E+00  6.052603728E+00 -2.604242328E+01  2.680687269E+01  6.743495762E-07  0.00000E+00  9.000E+00
      21     1     1     2   512   514 -9.694026935E+00 -1.980827760E+00 -1.160159397E+02  1.164370908E+02  1.348699152E-06  0.00000E+00  9.000E+00
</event>
<event>
      5  10001  2.40292E+09  2.15767E+01 -1.00000E+00  1.63655E-01
       2    -1     0     0   511     0  0.000000000E+00  0.000000000E+00  2.974182194E+02  2.974182194E+02  0.000000000E+00  0.00000E+00  9.000E+00
      -2    -1     0     0     0   513  0.000000000E+00  0.000000000E+00 -1.972309735E+02  1.972309735E+02  0.000000000E+00  0.00000E+00  9.000E+00
      -2     1     1     2     0   512 -1.366594192E+01 -6.577517391E+00 -1.836514339E+02  1.842769106E+02  3.300000131E-01  0.00000E+00  9.000E+00
       2     1     1     2   512     0 -2.065739299E+00  2.134459579E+01  2.876612412E+02  2.884596291E+02  3.300000131E-01  0.00000E+00  9.000E+00
      21     1     1     2   511   513  1.573168122E+01 -1.476707840E+01 -3.822561425E+00  2.191265329E+01  2.598106231E-07  0.00000E+00  9.000E+00
</event>
<event>
      5  10001  2.40292E+09  4.96854E+00 -1.00000E+00  2.42998E-01
      21    -1     0     0   514   512  0.000000000E+00  0.000000000E+00  4.523203528E+00  4.523203528E+00  0.000000000E+00  0.00000E+00  9.000E+00
      21    -1     0     0   516   515  0.000000000E+00  0.000000000E+00 -8.545242579E+01  8.545242579E+01  0.000000000E+00  0.00000E+00  9.000E+00
      21     1     1     2   514   515 -9.453785373E+00 -5.750176639E+00 -3.529386752E+00  1.161443757E+01  3.769728732E-07  0.00000E+00  9.000E+00
       4     1     1     2   516     0  3.267944729E+00  4.383358741E+00 -3.227893129E+01  3.277304840E+01  1.500000000E+00  0.00000E+00  9.000E+00
      -4     1     1     2     0   512  6.185840644E+00  1.366817898E+00 -4.512090422E+01  4.558814334E+01  1.500000000E+00  0.00000E+00  9.000E+00
</event>
<event>
      5  10001  2.40292E+09  2.36433E+01 -1.00000E+00  1.60549E-01
       5    -1     0     0   515     0  0.000000000E+00  0.000000000E+00  8.828111392E+01  8.828111392E+01  0.000000000E+00  0.00000E+00  9.000E+00
      21    -1     0     0   511   513  0.000000000E+00  0.000000000E+00 -1.142850236E+01  1.142850236E+01  0.000000000E+00  0.00000E+00  9.000E+00
      -1     1     1     2     0   513  1.432342446E+01  7.318600940E+00  4.581460759E+00  1.672785374E+01  3.300000131E-01  0.00000E+00  9.000E+00
       5     1     1     2   511     0 -3.463118092E+00 -1.855127547E+01  6.009307078E+01  6.316929766E+01  4.800000191E+00  0.00000E+00  9.000E+00
       1     1     1     2   515     0 -1.086030637E+01  1.123267453E+01  1.217808002E+01  1.981246488E+01  3.300000131E-01  0.00000E+00  9.000E+00
</event>
<event>
      5  10001  2.40292E+09  6.22382E+00 -1.00000E+00  2.22953E-01
      21    -1     0     0   513   511  0.000000000E+00  0.000000000E+00  5.896787133E+00  5.896787133E+00  0.000000000E+00  0.00000E+00  9.000E+00
       1    -1     0     0   514     0  0.000000000E+00  0.000000000E+00 -7.792799469E+02  7.792799469E+02  0.000000000E+00  0.00000E+00  9.000E+00
      21     1     1     2   514   511  2.228451254E+00  1.031683503E+01 -1.306338830E+01  1.679449891E+01  1.743881564E-06  0.00000E+00  9.000E+00
       1     1     1     2   512     0  3.591631547E+00 -1.252184481E+01 -7.618594117E+02  7.619708450E+02  3.300000131E-01  0.00000E+00  9.000E+00
      21     1     1     2   513   512 -5.820082801E+00  2.205009786E+00  1.539640246E+00  6.411390181E+00  2.439425222E-07  0.00000E+00  9.000E+00
</event>
<event>
      5  10001  2.40292E+09  4.24861E+00 -1.00000E+00  2.57346E-01
      21    -1     0     0   515   514  0.000000000E+00  0.000000000E+00  3.206032798E+02  3.206032798E+02  0.000000000E+00  0.00000E+00  9.000E+00
      21    -1     0     0   516   515  0.000000000E+00  0.000000000E+00 -3.033768450E+00  3.033768450E+00  0.000000000E+00  0.00000E+00  9.000E+00
      21     1     1     2   512   514  1.268159669E+01 -1.368418035E+01  2.851872739E+02  2.857968875E+02  5.394796609E-06  0.00000E+00  9.000E+00
      21     1     1     2   516   511 -9.930312614E+00  6.802270725E+00  1.788364209E+01  2.155705569E+01  3.371747881E-07  0.00000E+00  9.000E+00
      21     1     1     2   511   512 -2.751284075E+00  6.881909629E+00  1.449859532E+01  1.628310506E+01  0.000000000E+00  0.00000E+00  9.000E+00
</event>
<event>
      5  10001  2.40292E+09  1.16577E+01 -1.00000E+00  1.88305E-01
      21    -1     0     0   513   516  0.000000000E+00  0.000000000E+00  2.961644862E+02  2.961644862E+02  0.000000000E+00  0.00000E+00  9.000E+00
      21    -1     0     0   514   515  0.000000000E+00  0.000000000E+00 -2.754830214E+01  2.754830214E+01  0.000000000E+00  0.00000E+00  9.000E+00
      21     1     1     2   513   512  9.207876254E+00 -1.355454625E+01  1.198177479E+01  2.029959695E+01  6.951036328E-07  0.00000E+00  9.000E+00
      21     1     1     2   514   516 -9.632205947E+00  1.904535475E+00  2.784792748E+02  2.786523159E+02  5.394796609E-06  0.00000E+00  9.000E+00
      21     1     1     2   512   515  4.243296929E-01  1.165001077E+01 -2.184486553E+01  2.476087553E+01  6.307962682E-07  0.00000E+00  9.000E+00
</event>
<event>
      5  10001  2.40292E+09  3.43873E+00 -1.00000E+00  2.79844E-01
       2    -1     0     0   512     0  0.000000000E+00  0.000000000E+00  4.942742979E+02  4.942742979E+02  0.000000000E+00  0.00000E+00  9.000E+00
      21    -1     0     0   511   515  0.000000000E+00  0.000000000E+00 -1.843854638E+00  1.843854638E+00  0.000000000E+00  0.00000E+00  9.000E+00
      21     1     1     2   512   515 -2.011880729E+01 -1.716023762E+01  1.277735516E+02  1.304811122E+02  2.336015456E-06  0.00000E+00  9.000E+00
      21     1     1     2   511   513  1.297981330E+01  9.698690846E+00  1.992188627E+02  1.998767005E+02  2.697398305E-06  0.00000E+00  9.000E+00
       2     1     1     2   513     0  7.138993993E+00  7.461546778E+00  1.654380290E+02  1.657603398E+02  3.300000131E-01  0.00000E+00  9.000E+00
</event>
<event>
      5  10001  2.40292E+09  1.17528E+01 -1.00000E+00  1.87930E-01
      21    -1     0     0   513   512  0.000000000E+00  0.000000000E+00  6.781559565E+01  6.781559565E+01  0.000000000E+00  0.00000E+00  9.000E+00
       1    -1     0     0   514     0  0.000000000E+00  0.000000000E+00 -1.123971504E+02  1.123971504E+02  0.000000000E+00  0.00000E+00  9.000E+00
      21     1     1     2   514   511 -3.247844149E+01  7.065713769E+00 -4.318780230E+01  5.449733700E+01  8.259061849E-07  0.00000E+00  9.000E+00
       1     1     1     2   513     0  2.113170767E+01 -4.003138254E+00 -6.114557758E+01  6.481870673E+01  3.300000131E-01  0.00000E+00  9.000E+00
      21     1     1     2   511   512  1.134673382E+01 -3.062575515E+00  5.975182517E+01  6.089670228E+01  6.743495762E-07  0.00000E+00  9.000E+00
</event>
<event>
      5  10001  2.40292E+09  4.61435E+00 -1.00000E+00  2.49561E-01
      21    -1     0     0   515   512  0.000000000E+00  0.000000000E+00  1.484003098E+02  1.484003098E+02  0.000000000E+00  0.00000E+00  9.000E+00
       4    -1     0     0   511     0  0.000000000E+00  0.000000000E+00 -9.714109346E-01  9.714109346E-01  0.000000000E+00  0.00000E+00  9.000E+00
      21     1     1     2   511   513  8.321735432E+00 -6.217890752E-01  6.744201242E+01  6.795633113E+01  9.536743164E-07  0.00000E+00  9.000E+00
       4     1     1     2   515     0 -9.186167977E+00 -1.107116717E+00  3.089913203E+01  3.228959197E+01  1.500000000E+00  0.00000E+00  9.000E+00
      21     1     1     2   513   512  8.644325451E-01  1.728905792E+00  4.908775440E+01  4.912579761E+01  6.743495762E-07  0.00000E+00  9.000E+00
</event>
<event>
      5  10001  2.40292E+09  4.05986E+00 -1.00000E+00  2.61852E-01
      21    -1     0     0   514   513  0.000000000E+00  0.000000000E+00  4.951903307E+00  4.951903307E+00  0.000000000E+00  0.00000E+00  9.000E+00
      21    -1     0     0   515   514  0.000000000E+00  0.000000000E+00 -4.829482495E+01  4.829482495E+01  0.000000000E+00  0.00000E+00  9.000E+00
      21     1     1     2   512   511  8.303444260E+00 -9.054682353E+00 -3.192074688E+01  3.420334107E+01  5.840038640E-07  0.00000E+00  9.000E+00
      21     1     1     2   511   513 -6.392308687E+00  5.472779510E+00 -1.807883587E+00  8.607053443E+00  2.690474702E-07  0.00000E+00  9.000E+00
      21     1     1     2   515   512 -1.911135573E+00  3.581902843E+00 -9.614291173E+00  1.043633374E+01  0.000000000E+00  0.00000E+00  9.000E+00
</event>
<event>
      5  10001  2.40292E+09  6.83490E+00 -1.00000E+00  2.16957E-01
      21    -1     0     0   516   511  0.000000000E+00  0.000000000E+00  4.424549272E+01  4.424549272E+01  0.000000000E+00  0.00000E+00  9.000E+00
      21    -1     0     0   515   516  0.000000000E+00  0.000000000E+00 -5.597621587E+00  5.597621587E+00  0.000000000E+00  0.00000E+00  9.000E+00
      21     1     1     2   515   512  9.663504010E+00 -4.161514059E+00  1.335757256E+00  1.060593025E+01  2.337155810E-07  0.00000E+00  9.000E+00
      21     1     1     2   513   511 -1.924528080E+00  1.713138475E+00  1.941710857E+01  1.958731112E+01  2.384185791E-07  0.00000E+00  9.000E+00
      21     1     1     2   512   513 -7.738975930E+00  2.448375584E+00  1.789500531E+01  1.964987293E+01  2.384185791E-07  0.00000E+00  9.000E+00
</event>
<event>
      5  10001  2.40292E+09  1.65906E+00 -1.00000E+00  4.05474E-01
      21    -1     0     0   512   511  0.000000000E+00  0.000000000E+00  1.840459732E+00  1.840459732E+00  0.000000000E+00  0.00000E+00  9.000E+00
       1    -1     0     0   511     0  0.000000000E+00  0.000000000E+00 -7.359621943E+01  7.359621943E+01  0.000000000E+00  0.00000E+00  9.000E+00
      21     1     1     2   512   514 -1.111401657E+01  8.324021283E-01 -2.576561226E+01  2.807278100E+01  0.000000000E+00  0.00000E+00  9.000E+00
       1     1     1     2   515     0  6.435804154E+00 -1.451021145E+00 -2.680682354E+01  2.760868932E+01  3.300000131E-01  0.00000E+00  9.000E+00
      21     1     1     2   514   515  4.678212418E+00  6.186190170E-01 -1.918332389E+01  1.975520884E+01  2.384185791E-07  0.00000E+00  9.000E+00
</event>
<event>
      5  10001  2.40292E+09  8.83190E+00 -1.00000E+00  2.02145E-01
      21    -1     0     0   513   514  0.000000000E+00  0.000000000E+00  6.388970488E+01  6.388970488E+01  0.000000000E+00  0.00000E+00  9.000E+00
      21    -1     0     0   511   516  0.000000000E+00  0.000000000E+00 -6.218453393E+01  6.218453393E+01  0.000000000E+00  0.00000E+00  9.000E+00
      21     1     1     2   513   516  8.043127998E-01 -1.504967886E+01 -6.025263143E+01  6.210893130E+01  6.743495762E-07  0.00000E+00  9.000E+00
      21     1     1     2   512   514 -2.367432092E+00  3.459064096E+00  1.526365395E+01  1.582873940E+01  1.685873940E-07  0.00000E+00  9.000E+00
      21     1     1     2   511   512  1.563119292E+00  1.159061477E+01  4.669414842E+01  4.813656811E+01  6.743495762E-07  0.00000E+00  9.000E+00
</event>
<event>
      5  10001  2.40292E+09  9.98967E+00 -1.00000E+00  1.95751E-01
      21    -1     0     0   513   514  0.000000000E+00  0.000000000E+00  4.559197038E+01  4.559197038E+01  0.000000000E+00  0.00000E+00  9.000E+00
      21    -1     0     0   512   513  0.000000000E+00  0.000000000E+00 -6.647787921E+01  6.647787921E+01  0.000000000E+00  0.00000E+00  9.000E+00
      21     1     1     2   512   515  9.778888615E+00  8.007318065E-01 -6.121561689E+01  6.199693206E+01  0.000000000E+00  0.00000E+00  9.000E+00
       2     1     1     2   515     0 -1.916137188E+01 -4.229327263E+00  2.521093440E+01  3.194910789E+01  3.300000131E-01  0.00000E+00  9.000E+00
      -2     1     1     2     0   514  9.382483262E+00  3.428595457E+00  1.511877366E+01  1.812380964E+01  3.300000131E-01  0.00000E+00  9.000E+00
</event>
<event>
      5  10001  2.40292E+09  9.23336E+00 -1.00000E+00  1.99788E-01
      21    -1     0     0   511   515  0.000000000E+00  0.000000000E+00  1.149853666E+01  1.149853666E+01  0.000000000E+00  0.00000E+00  9.000E+00
      21    -1     0     0   514   511  0.000000000E+00  0.000000000E+00 -2.279550600E+01  2.279550600E+01  0.000000000E+00  0.00000E+00  9.000E+00
      21     1     1     2   514   512 -6.612804192E+00 -6.269330780E+00 -1.607605667E+01  1.847899580E+01  3.371747881E-07  0.00000E+00  9.000E+00
      21     1     1     2   513   515  6.445025861E+00 -5.002402398E-01  6.131391291E+00  8.909688985E+00  8.429369702E-08  0.00000E+00  9.000E+00
      21     1     1     2   512   513  1.677783317E-01  6.769571020E+00 -1.352303966E+00  6.905357875E+00  1.666000469E-07  0.00000E+00  9.000E+00
</event>
<event>
      5  10001  2.40292E+09  9.29343E+00 -1.00000E+00  1.99449E-01
      21    -1     0     0   516   513  0.000000000E+00  0.000000000E+00  1.136378481E+02  1.136378481E+02  0.000000000E+00  0.00000E+00  9.000E+00
       2    -1     0     0   511     0  0.000000000E+00  0.000000000E+00 -1.887395916E+01  1.887395916E+01  0.000000000E+00  0.00000E+00  9.000E+00
      21     1     1     2   512   513 -1.358839407E+01 -1.151529205E+01  9.528113758E+01  9.693163355E+01  0.000000000E+00  0.00000E+00  9.000E+00
       2     1     1     2   516     0  1.539625139E+01  2.063105021E+01 -3.110074065E+00  2.593195423E+01  3.300000131E-01  0.00000E+00  9.000E+00
      21     1     1     2   511   512 -1.807857319E+00 -9.115758158E+00  2.592825386E+00  9.648219440E+00  2.421152116E-07  0.00000E+00  9.000E+00
</event>
<event>
      5  10001  2.40292E+09  1.28162E+01 -1.00000E+00  1.84021E-01
      21    -1     0     0   514   513  0.000000000E+00  0.000000000E+00  1.954994738E+02  1.954994738E+02  0.000000000E+00  0.00000E+00  9.000E+00
      21    -1     0     0   511   515  0.000000000E+00  0.000000000E+00 -1.710428330E+01  1.710428330E+01  0.000000000E+00  0.00000E+00  9.000E+00
      21     1     1     2   511   512 -2.071711500E+01 -1.348813560E+01  1.016138582E+01  2.672793329E+01  9.536743164E-07  0.00000E+00  9.000E+00
      21     1     1     2   512   513  1.726583476E+01  1.145343674E+00  1.717234009E+02  1.725930105E+02  2.697398305E-06  0.00000E+00  9.000E+00
      21     1     1     2   514   515  3.451280248E+00  1.234279193E+01 -3.489596191E+00  1.328281332E+01  2.190014490E-07  0.00000E+00  9.000E+00
</event>
<event>
      5  10001  2.40292E+09  4.83895E+00 -1.00000E+00  2.45301E-01
      21    -1     0     0   516   512  0.000000000E+00  0.000000000E+00  1.660536750E+00  1.660536750E+00  0.000000000E+00  0.00000E+00  9.000E+00
      21    -1     0     0   517   516  0.000000000E+00  0.000000000E+00 -2.081477582E+02  2.081477582E+02  0.000000000E+00  0.00000E+00  9.000E+00
      21     1     1     2   515   511 -1.532564380E+01  4.162940317E-01 -6.093633156E+01  6.283538145E+01  1.348699152E-06  0.00000E+00  9.000E+00
      21     1     1     2   517   515  1.056866181E+01 -1.303167743E+00 -1.343514246E+02  1.347727723E+02  2.697398305E-06  0.00000E+00  9.000E+00
      21     1     1     2   511   512  4.756981983E+00  8.868737117E-01 -1.119946524E+01  1.220014116E+01  3.371747881E-07  0.00000E+00  9.000E+00
</event>
<event>
      5  10001  2.40292E+09  8.06419E+00 -1.00000E+00  2.07152E-01
       2    -1     0     0   511     0  0.000000000E+00  0.000000000E+00  2.751465020E+01  2.751465020E+01  0.000000000E+00  0.00000E+00  9.000E+00
      21    -1     0     0   513   514  0.000000000E+00  0.000000000E+00 -8.105640907E+01  8.105640907E+01  0.000000000E+00  0.00000E+00  9.000E+00
      21     1     1     2   511   515 -4.437012495E+00 -3.245149944E+00 -2.167633041E+01  2.236249937E+01  4.768371582E-07  0.00000E+00  9.000E+00
       2     1     1     2   513     0  1.123942461E+01  5.093301388E+00  2.554280744E+01  2.836917864E+01  3.300000131E-01  0.00000E+00  9.000E+00
      21     1     1     2   515   514 -6.802412116E+00 -1.848151444E+00 -5.740823590E+01  5.783938125E+01  6.743495762E-07  0.00000E+00  9.000E+00
</event>
<event>
      5  10001  2.40292E+09  7.46568E+00 -1.00000E+00  2.11606E-01
      21    -1     0     0   512   513  0.000000000E+00  0.000000000E+00  1.195501759E+01  1.195501759E+01  0.000000000E+00  0.00000E+00  9.000E+00
      21    -1     0     0   515   516  0.000000000E+00  0.000000000E+00 -3.705797556E+01  3.705797556E+01  0.000000000E+00  0.00000E+00  9.000E+00
      21     1     1     2   512   516 -1.396439413E+01 -7.855571455E-01 -2.827516434E+01  3.154530586E+01  3.371747881E-07  0.00000E+00  9.000E+00
      21     1     1     2   511   513  1.226766036E+01  2.947202884E+00 -7.949355600E-01  1.264173319E+01  2.032247439E-07  0.00000E+00  9.000E+00
      21     1     1     2   515   511  1.696733769E+00 -2.161645739E+00  3.967141933E+00  4.825954093E+00  7.300048300E-08  0.00000E+00  9.000E+00
</event>
<event>
      5  10001  2.40292E+09  4.16018E+00 -1.00000E+00  2.59411E-01
       2    -1     0     0   515     0  0.000000000E+00  0.000000000E+00  1.518052516E+03  1.518052516E+03  0.000000000E+00  0.00000E+00  9.000E+00
      21    -1     0     0   514   512  0.000000000E+00  0.000000000E+00 -4.314922288E+00  4.314922288E+00  0.000000000E+00  0.00000E+00  9.000E+00
      21     1     1     2   515   511 -3.595662985E+00 -7.986854399E+00  1.627041963E+02  1.629397868E+02  4.264961200E-06  0.00000E+00  9.000E+00
       2     1     1     2   514     0  2.160093632E+00  1.189148184E+01  1.354165984E+03  1.354219958E+03  3.300000131E-01  0.00000E+00  9.000E+00
      21     1     1     2   511   512  1.435569353E+00 -3.904627444E+00 -3.132586490E+00  5.207693631E+00  3.746093836E-07  0.00000E+00  9.000E+00
</event>
<event>
      5  10001  2.40292E+09  4.90328E+00 -1.00000E+00  2.44145E-01
      21    -1     0     0   515   514  0.000000000E+00  0.000000000E+00  2.954016935E+01  2.954016935E+01  0.000000000E+00  0.00000E+00  9.000E+00
       2    -1     0     0   514     0  0.000000000E+00  0.000000000E+00 -5.846181775E+01  5.846181775E+01  0.000000000E+00  0.00000E+00  9.000E+00
      21     1     1     2   511   513 -1.174310198E+00 -1.465639880E+01 -1.970588006E+00  1.483483223E+01  1.763129170E-07  0.00000E+00  9.000E+00
       2     1     1     2   513     0  5.625736062E+00  1.260065344E+01 -4.883104529E+01  5.074450963E+01  3.300000131E-01  0.00000E+00  9.000E+00
      21     1     1     2   515   511 -4.451425864E+00  2.055745359E+00  2.187998489E+01  2.242264525E+01  2.384185791E-07  0.00000E+00  9.000E+00
</event>
<event>
      5  10001  2.40292E+09  6.20885E+00 -1.00000E+00  2.23112E-01
       1    -1     0     0   511     0  0.000000000E+00  0.000000000E+00  3.502774687E+01  3.502774687E+01  0.000000000E+00  0.00000E+00  9.000E+00
      21    -1     0     0   514   511  0.000000000E+00  0.000000000E+00 -1.832073178E+01  1.832073178E+01  0.000000000E+00  0.00000E+00  9.000E+00
      21     1     1     2   513   512 -2.147934718E+00  1.285283022E+01  1.276142029E+01  1.823904372E+01  1.685873940E-07  0.00000E+00  9.000E+00
       1     1     1     2   512     0  7.507679719E+00 -9.719485682E+00  1.681242963E+01  2.082307246E+01  3.300000131E-01  0.00000E+00  9.000E+00
      21     1     1     2   514   513 -5.359745001E+00 -3.133344539E+00 -1.286683482E+01  1.428636247E+01  2.920019320E-07  0.00000E+00  9.000E+00
</event>
<event>
      5  10001  2.40292E+09  3.70912E+00 -1.00000E+00  2.71328E-01
      -2    -1     0     0     0   513  0.000000000E+00  0.000000000E+00  3.658010007E+01  3.658010007E+01  0.000000000E+00  0.00000E+00  9.000E+00
       2    -1     0     0   513     0  0.000000000E+00  0.000000000E+00 -9.019353912E+00  9.019353912E+00  0.000000000E+00  0.00000E+00  9.000E+00
      -2     1     1     2     0   512  8.103340343E+00  9.520708535E-01  3.130037077E+01  3.234799335E+01  3.300000131E-01  0.00000E+00  9.000E+00
       2     1     1     2   511     0 -1.016947398E+01 -9.420681013E-02 -4.128224632E+00  1.098081119E+01  3.300000131E-01  0.00000E+00  9.000E+00
      21     1     1     2   512   511  2.066133633E+00 -8.578640433E-01  3.886000277E-01  2.270649442E+00  6.889269504E-08  0.00000E+00  9.000E+00
</event>
<event>
      5  10001  2.40292E+09  6.09138E+00 -1.00000E+00  2.24379E-01
      21    -1     0     0   514   511  0.000000000E+00  0.000000000E+00  1.390374204E+00  1.390374204E+00  0.000000000E+00  0.00000E+00  9.000E+00
      21    -1     0     0   512   515  0.000000000E+00  0.000000000E+00 -1.643495108E+02  1.643495108E+02  0.000000000E+00  0.00000E+00  9.000E+00
      21     1     1     2   514   515  3.022628426E+00 -9.786112313E+00 -2.173242901E+01  2.402504417E+01  7.152557373E-07  0.00000E+00  9.000E+00
      21     1     1     2   513   511 -4.223778380E+00  4.286250142E+00 -6.347938239E+01  6.376397284E+01  9.536743164E-07  0.00000E+00  9.000E+00
      21     1     1     2   512   513  1.201149955E+00  5.499862171E+00 -7.774732519E+01  7.795086799E+01  1.348699152E-06  0.00000E+00  9.000E+00
</event>
<event>
      5  10001  2.40292E+09  5.77407E+00 -1.00000E+00  2.28012E-01
      21    -1     0     0   516   511  0.000000000E+00  0.000000000E+00  1.097346224E+01  1.097346224E+01  0.000000000E+00  0.00000E+00  9.000E+00
      21    -1     0     0   512   516  0.000000000E+00  0.000000000E+00 -5.965819036E+02  5.965819036E+02  0.000000000E+00  0.00000E+00  9.000E+00
      21     1     1     2   513   511  9.109113921E+00 -1.662987234E+01  2.407334462E+00  1.911344736E+01  3.987278986E-07  0.00000E+00  9.000E+00
      21     1     1     2   512   514 -6.251152486E+00  1.799411486E+01 -4.750701207E+02  4.754518742E+02  5.394796609E-06  0.00000E+00  9.000E+00
      21     1     1     2   514   513 -2.857961435E+00 -1.364242513E+00 -1.129456551E+02  1.129900443E+02  1.907348633E-06  0.00000E+00  9.000E+00
</event>
<event>
      5  10001  2.40292E+09  7.09479E+00 -1.00000E+00  2.14661E-01
      21    -1     0     0   515   511  0.000000000E+00  0.000000000E+00  5.593326404E+01  5.593326404E+01  0.000000000E+00  0.00000E+00  9.000E+00
      21    -1     0     0   517   512  0.000000000E+00  0.000000000E+00 -9.189923723E+02  9.189923723E+02  0.000000000E+00  0.00000E+00  9.000E+00
      21     1     1     2   517   513 -2.184616871E+01  8.344849444E+00 -1.019846501E+01  2.551274756E+01  5.717076687E-07  0.00000E+00  9.000E+00
      21     1     1     2   513   511  2.889159265E+01 -9.180376133E+00  4.350160041E+01  5.302256756E+01  8.259061849E-07  0.00000E+00  9.000E+00
      21     1     1     2   515   512 -7.045423941E+00  8.355266888E-01 -8.963622437E+02  8.963903212E+02  1.868812365E-05  0.00000E+00  9.000E+00
</event>
<event>
      5  10001  2.40292E+09  7.77653E+00 -1.00000E+00  2.09225E-01
       4    -1     0     0   514     0  0.000000000E+00  0.000000000E+00  3.321700253E+01  3.321700253E+01  0.000000000E+00  0.00000E+00  9.000E+00
       2    -1     0     0   511     0  0.000000000E+00  0.000000000E+00 -4.915564355E+01  4.915564355E+01  0.000000000E+00  0.00000E+00  9.000E+00
       2     1     1     2   514     0 -7.792186534E+00 -7.612017285E+00 -4.485184999E+01  4.615688817E+01  3.300000131E-01  0.00000E+00  9.000E+00
       4     1     1     2   513     0  5.798378565E+00  1.783652736E+00  2.938083212E+01  3.003807429E+01  1.500000000E+00  0.00000E+00  9.000E+00
      21     1     1     2   511   513  1.993807969E+00  5.828364549E+00 -4.676231477E-01  6.177683622E+00  7.413234093E-08  0.00000E+00  9.000E+00
</event>
<event>
      5  10001  2.40292E+09  7.31412E+00 -1.00000E+00  2.12825E-01
       2    -1     0     0   511     0  0.000000000E+00  0.000000000E+00  3.436651050E+00  3.436651050E+00  0.000000000E+00  0.00000E+00  9.000E+00
      21    -1     0     0   512   513  0.000000000E+00  0.000000000E+00 -6.078602569E+01  6.078602569E+01  0.000000000E+00  0.00000E+00  9.000E+00
      21     1     1     2   511   514 -3.052783209E+00  1.701124798E+00 -1.997976978E+01  2.028310902E+01  0.000000000E+00  0.00000E+00  9.000E+00
       2     1     1     2   512     0  4.400749401E+00 -1.006829101E+01 -8.628230562E+00  1.397470364E+01  3.300000131E-01  0.00000E+00  9.000E+00
      21     1     1     2   514   513 -1.347966193E+00  8.367166209E+00 -2.874137429E+01  2.996486408E+01  0.000000000E+00  0.00000E+00  9.000E+00
</event>
<event>
      5  10001  2.40292E+09  5.45584E+00 -1.00000E+00  2.31998E-01
      21    -1     0     0   511   512  0.000000000E+00  0.000000000E+00  2.664833495E+01  2.664833495E+01  0.000000000E+00  0.00000E+00  9.000E+00
       5    -1     0     0   514     0  0.000000000E+00  0.000000000E+00 -4.038267522E+01  4.038267522E+01  0.000000000E+00  0.00000E+00  9.000E+00
      21     1     1     2   514   512 -8.505106683E+00  8.282712159E+00 -2.917417801E+00  1.222503526E+01  4.150983178E-07  0.00000E+00  9.000E+00
       5     1     1     2   515     0  8.409082925E+00 -2.863038552E+00 -3.168004548E+01  3.325018720E+01  4.800000191E+00  0.00000E+00  9.000E+00
      21     1     1     2   511   515  9.602375768E-02 -5.419673607E+00  2.086312301E+01  2.155578772E+01  2.384185791E-07  0.00000E+00  9.000E+00
</event>
<event>
      5  10001  2.40292E+09  5.26186E+00 -1.00000E+00  2.34622E-01
       3    -1     0     0   513     0  0.000000000E+00  0.000000000E+00  1.483421497E+01  1.483421497E+01  0.000000000E+00  0.00000E+00  9.000E+00
       2    -1     0     0   511     0  0.000000000E+00  0.000000000E+00 -4.280078489E+01  4.280078489E+01  0.000000000E+00  0.00000E+00  9.000E+00
      21     1     1     2   511   515 -1.228898749E+01  4.281913438E+00 -5.493190181E+00  1.412547820E+01  1.032382731E-07  0.00000E+00  9.000E+00
       2     1     1     2   513     0  1.479992439E+01  3.409328476E-01 -3.049714782E+01  3.390190146E+01  3.300000131E-01  0.00000E+00  9.000E+00
       3     1     1     2   515     0 -2.510936908E+00 -4.622846286E+00  8.023768078E+00  9.607620210E+00  5.000000000E-01  0.00000E+00  9.000E+00
</event>
<event>
      5  10001  2.40292E+09  8.16905E+00 -1.00000E+00  2.06425E-01
       2    -1     0     0   513     0  0.000000000E+00  0.000000000E+00  8.195826357E+02  8.195826357E+02  0.000000000E+00  0.00000E+00  9.000E+00
       4    -1     0     0   512     0  0.000000000E+00  0.000000000E+00 -5.204666707E+00  5.204666707E+00  0.000000000E+00  0.00000E+00  9.000E+00
       2     1     1     2   512     0 -1.238992486E+01 -8.039672172E+00  5.168143660E+02  5.170254775E+02  3.300000131E-01  0.00000E+00  9.000E+00
       4     1     1     2   511     0  1.409872520E+01  5.254494772E-02  4.925230672E+00  1.500948735E+01  1.500000000E+00  0.00000E+00  9.000E+00
      21     1     1     2   513   511 -1.708800341E+00  7.987127224E+00  2.926383723E+02  2.927523376E+02  3.814697266E-06  0.00000E+00  9.000E+00
</event>
<event>
      5  10001  2.40292E+09  9.49954E+00 -1.00000E+00  1.98311E-01
      21    -1     0     0   514   512  0.000000000E+00  0.000000000E+00  1.174856727E+02  1.174856727E+02  0.000000000E+00  0.00000E+00  9.000E+00
      21    -1     0     0   515   514  0.000000000E+00  0.000000000E+00 -1.441519143E+01  1.441519143E+01  0.000000000E+00  0.00000E+00  9.000E+00
      21     1     1     2   511   512 -1.354524136E+01  1.914394773E+01  1.033027157E+02  1.059311822E+02  1.907348633E-06  0.00000E+00  9.000E+00
      21     1     1     2   515   516  1.024996894E+01 -6.544783034E+00 -3.277992177E+00  1.259528805E+01  3.500980176E-07  0.00000E+00  9.000E+00
      21     1     1     2   516   511  3.295272414E+00 -1.259916470E+01  3.045757779E+00  1.337439389E+01  5.960464478E-08  0.00000E+00  9.000E+00
</event>
<event>
      5  10001  2.40292E+09  3.21063E+00 -1.00000E+00  2.88072E-01
       3    -1     0     0   515     0  0.000000000E+00  0.000000000E+00  2.765898183E+01  2.765898183E+01  0.000000000E+00  0.00000E+00  9.000E+00
      21    -1     0     0   513   514  0.000000000E+00  0.000000000E+00 -4.318724268E+00  4.318724268E+00  0.000000000E+00  0.00000E+00  9.000E+00
      21     1     1     2   515   514 -9.055278854E+00 -4.201474959E+00  8.123409653E+00  1.287013020E+01  2.064765462E-07  0.00000E+00  9.000E+00
       3     1     1     2   512     0  7.866835800E+00  2.382183705E+00  1.473773360E+01  1.688231904E+01  5.000000000E-01  0.00000E+00  9.000E+00
      21     1     1     2   513   512  1.188443054E+00  1.819291254E+00  4.791143157E-01  2.225256859E+00  6.684794443E-08  0.00000E+00  9.000E+00
</event>
<event>
      5  10001  2.40292E+09  6.46848E+00 -1.00000E+00  2.20443E-01
      21    -1     0     0   511   512  0.000000000E+00  0.000000000E+00  1.387255425E+02  1.387255425E+02  0.000000000E+00  0.00000E+00  9.000E+00
      21    -1     0     0   513   514  0.000000000E+00  0.000000000E+00 -3.075904291E+00  3.075904291E+00  0.000000000E+00  0.00000E+00  9.000E+00
      21     1     1     2   511   516 -3.543436008E+00 -1.298281250E+01  1.166338278E+02  1.174076623E+02  1.907348633E-06  0.00000E+00  9.000E+00
      21     1     1     2   513   512  4.392723106E+00  6.570331989E+00  1.446992926E+01  1.648769636E+01  5.331201500E-07  0.00000E+00  9.000E+00
      21     1     1     2   516   514 -8.492870982E-01  6.412480513E+00  4.545881082E+00  7.906088142E+00  1.576990671E-07  0.00000E+00  9.000E+00
</event>
<event>
      5  10001  2.40292E+09  7.91456E+00 -1.00000E+00  2.08216E-01
       2    -1     0     0   513     0  0.000000000E+00  0.000000000E+00  1.612817256E+01  1.612817256E+01  0.000000000E+00  0.00000E+00  9.000E+00
      21    -1     0     0   515   514  0.000000000E+00  0.000000000E+00 -1.684467570E+01  1.684467570E+01  0.000000000E+00  0.00000E+00  9.000E+00
      21     1     1     2   511   514  3.830925493E+00  8.416698511E-01 -6.752570267E+00  7.809071870E+00  8.429369702E-08  0.00000E+00  9.000E+00
       2     1     1     2   515     0 -9.216301993E+00  5.304588241E+00  1.123924649E+01  1.547606024E+01  3.300000131E-01  0.00000E+00  9.000E+00
      21     1     1     2   513   511  5.385376500E+00 -6.146258092E+00 -5.203179362E+00  9.687716142E+00  2.149076030E-07  0.00000E+00  9.000E+00
</event>
<event>
      5  10001  2.40292E+09  7.52070E+00 -1.00000E+00  2.11173E-01
      21    -1     0     0   512   514  0.000000000E+00  0.000000000E+00  6.542343965E+01  6.542343965E+01  0.000000000E+00  0.00000E+00  9.000E+00
      21    -1     0     0   516   511  0.000000000E+00  0.000000000E+00 -4.099964162E+00  4.099964162E+00  0.000000000E+00  0.00000E+00  9.000E+00
      21     1     1     2   512   511 -2.644280559E+00  8.674107835E+00  3.381817000E+00  9.678277358E+00  1.737759082E-07  0.00000E+00  9.000E+00
      21     1     1     2   516   515  5.791077150E+00 -4.432228376E+00  4.833726697E+01  4.888427765E+01  6.743495762E-07  0.00000E+00  9.000E+00
      21     1     1     2   515   514 -3.146796591E+00 -4.241879459E+00  9.604391519E+00  1.096084881E+01  1.685873940E-07  0.00000E+00  9.000E+00
</event>
<event>
      5  10001  2.40292E+09  8.94071E+00 -1.00000E+00  2.01490E-01
      21    -1     0     0   511   514  0.000000000E+00  0.000000000E+00  2.973279785E+02  2.973279785E+02  0.000000000E+00  0.00000E+00  9.000E+00
       2    -1     0     0   514     0  0.000000000E+00  0.000000000E+00 -5.627852015E+02  5.627852015E+02  0.000000000E+00  0.00000E+00  9.000E+00
      21     1     1     2   515   513  1.547324947E+01  7.971502702E-01  1.135904821E+02  1.146422894E+02  2.336015456E-06  0.00000E+00  9.000E+00
       2     1     1     2   513     0 -1.271772192E+01  7.708341448E+00 -5.620517603E+02  5.622485652E+02  3.300000131E-01  0.00000E+00  9.000E+00
      21     1     1     2   511   515 -2.755527553E+00 -8.505491718E+00  1.830040551E+02  1.832223254E+02  2.697398305E-06  0.00000E+00  9.000E+00
</event>
<event>
      5  10001  2.40292E+09  5.35099E+00 -1.00000E+00  2.33397E-01
      21    -1     0     0   512   513  0.000000000E+00  0.000000000E+00  9.030359366E+01  9.030359366E+01  0.000000000E+00  0.00000E+00  9.000E+00
      21    -1     0     0   514   512  0.000000000E+00  0.000000000E+00 -7.241056409E+00  7.241056409E+00  0.000000000E+00  0.00000E+00  9.000E+00
      21     1     1     2   514   515 -8.519443898E+00  4.283154980E+00 -2.584619054E+00  9.879605082E+00  3.182017282E-07  0.00000E+00  9.000E+00
      21     1     1     2   515   516  7.765372021E+00 -5.183958281E+00  8.594697235E+01  8.645262566E+01  1.348699152E-06  0.00000E+00  9.000E+00
      21     1     1     2   516   513  7.540718776E-01  9.008033004E-01 -2.998160440E-01  1.212419335E+00  4.263789632E-08  0.00000E+00  9.000E+00
</event>
<event>
      5  10001  2.40292E+09  6.52678E+00 -1.00000E+00  2.19867E-01
      21    -1     0     0   511   514  0.000000000E+00  0.000000000E+00  6.563103008E+00  6.563103008E+00  0.000000000E+00  0.00000E+00  9.000E+00
      21    -1     0     0   513   511  0.000000000E+00  0.000000000E+00 -8.079819233E+01  8.079819233E+01  0.000000000E+00  0.00000E+00  9.000E+00
      21     1     1     2   517   514  1.118991841E+01 -1.245005280E+01 -8.607646163E+00  1.882311508E+01  1.192092896E-07  0.00000E+00  9.000E+00
      21     1     1     2   513   512 -1.199440463E+01  6.505601228E+00 -4.888089572E+01  5.074968528E+01  9.536743164E-07  0.00000E+00  9.000E+00
      21     1     1     2   512   517  8.044862205E-01  5.944451574E+00 -1.674654744E+01  1.778849498E+01  0.000000000E+00  0.00000E+00  9.000E+00
</event>
<event>
      5  10001  2.40292E+09  1.99508E+00 -1.00000E+00  3.63355E-01
      21    -1     0     0   512   513  0.000000000E+00  0.000000000E+00  1.077308650E+00  1.077308650E+00  0.000000000E+00  0.00000E+00  9.000E+00
       2    -1     0     0   514     0  0.000000000E+00  0.000000000E+00 -5.407090104E+02  5.407090104E+02  0.000000000E+00  0.00000E+00  9.000E+00
      21     1     1     2   514   513 -9.937556419E+00 -4.110814352E+00 -2.751244077E+01  2.953960425E+01  7.539457465E-07  0.00000E+00  9.000E+00
      21     1     1     2   512   511  9.122224499E+00  3.823192966E+00 -3.950726386E+02  3.951964342E+02  7.629394531E-06  0.00000E+00  9.000E+00
       2     1     1     2   511     0  8.153319195E-01  2.876213860E-01 -1.170466224E+02  1.170502806E+02  3.300000131E-01  0.00000E+00  9.000E+00
</event>
<event>
      5  10001  2.40292E+09  8.17034E+00 -1.00000E+00  2.06416E-01
      21    -1     0     0   515   514  0.000000000E+00  0.000000000E+00  8.997597009E+01  8.997597009E+01  0.000000000E+00  0.00000E+00  9.000E+00
      21    -1     0     0   513   516  0.000000000E+00  0.000000000E+00 -2.909482702E+00  2.909482702E+00  0.000000000E+00  0.00000E+00  9.000E+00
      21     1     1     2   515   516  1.648881202E-01  1.595033912E+01  4.004408445E+01  4.310416692E+01  8.259061849E-07  0.00000E+00  9.000E+00
      21     1     1     2   513   512 -9.904015651E-02 -2.186046454E+00  1.106699511E+01  1.128126717E+01  0.000000000E+00  0.00000E+00  9.000E+00
      21     1     1     2   512   514 -6.584796366E-02 -1.376429267E+01  3.595540783E+01  3.850001871E+01  0.000000000E+00  0.00000E+00  9.000E+00
</event>
<event>
      5  10001  2.40292E+09  4.52558E+00 -1.00000E+00  2.51347E-01
      21    -1     0     0   511   513  0.000000000E+00  0.000000000E+00  4.099970445E+01  4.099970445E+01  0.000000000E+00  0.00000E+00  9.000E+00
      21    -1     0     0   517   515  0.000000000E+00  0.000000000E+00 -1.628320956E+01  1.628320956E+01  0.000000000E+00  0.00000E+00  9.000E+00
      21     1     1     2   511   514 -1.579503578E+01 -4.026074963E+00  1.197202869E+01  2.022428999E+01  2.920019320E-07  0.00000E+00  9.000E+00
      21     1     1     2   517   513  1.142374306E+01  5.197696354E+00  2.280309059E+01  2.602880891E+01  4.768371582E-07  0.00000E+00  9.000E+00
      21     1     1     2   514   515  4.371292717E+00 -1.171621390E+00 -1.005862439E+01  1.102981511E+01  2.064765462E-07  0.00000E+00  9.000E+00
</event>
<event>
      5  10001  2.40292E+09  4.78461E+00 -1.00000E+00  2.46300E-01
      21    -1     0     0   511   513  0.000000000E+00  0.000000000E+00  3.080176460E+01  3.080176460E+01  0.000000000E+00  0.00000E+00  9.000E+00
       2    -1     0     0   514     0  0.000000000E+00  0.000000000E+00 -2.400541449E+01  2.400541449E+01  0.000000000E+00  0.00000E+00  9.000E+00
      21     1     1     2   514   513  1.877744558E+01  1.371681110E+00  1.599465333E+01  2.470430948E+01  2.384185791E-07  0.00000E+00  9.000E+00
       2     1     1     2   512     0 -1.686440774E+01  3.013629879E+00 -1.486672708E+01  2.268520856E+01  3.300000131E-01  0.00000E+00  9.000E+00
      21     1     1     2   511   512 -1.913037846E+00 -4.385310989E+00  5.668423869E+00  7.417661049E+00  1.192092896E-07  0.00000E+00  9.000E+00
</event>
<event>
      5  10001  2.40292E+09  6.19893E+00 -1.00000E+00  2.23217E-01
      21    -1     0     0   515   512  0.000000000E+00  0.000000000E+00  9.980970468E+01  9.980970468E+01  0.000000000E+00  0.00000E+00  9.000E+00
      21    -1     0     0   511   513  0.000000000E+00  0.000000000E+00 -4.217055512E+00  4.217055512E+00  0.000000000E+00  0.00000E+00  9.000E+00
      21     1     1     2   511   512  9.362171699E+00 -1.389195975E+01  2.369917501E+01  2.902219324E+01  6.743495762E-07  0.00000E+00  9.000E+00
       2     1     1     2   515     0 -1.040162102E+01  7.782593730E+00  6.183430258E+01  6.318506438E+01  3.300000131E-01  0.00000E+00  9.000E+00
      -2     1     1     2     0   513  1.039449323E+00  6.109366020E+00  1.005917158E+01  1.181950257E+01  3.300000131E-01  0.00000E+00  9.000E+00
</event>
<event>
      5  10001  2.40292E+09  1.57315E+01 -1.00000E+00  1.75411E-01
      21    -1     0     0   514   516  0.000000000E+00  0.000000000E+00  9.832456099E+01  9.832456099E+01  0.000000000E+00  0.00000E+00  9.000E+00
      21    -1     0     0   516   513  0.000000000E+00  0.000000000E+00 -1.592519575E+00  1.592519575E+00  0.000000000E+00  0.00000E+00  9.000E+00
      -2     1     1     2     0   513  6.439386179E+00  2.935527005E+00  1.532997848E+01  1.688787001E+01  3.300000131E-01  0.00000E+00  9.000E+00
       2     1     1     2   511     0 -4.611524271E+00  5.750323639E+00  4.161963116E+01  4.226860509E+01  3.300000131E-01  0.00000E+00  9.000E+00
      21     1     1     2   514   511 -1.827861908E+00 -8.685850644E+00  3.978243177E+01  4.076060546E+01  4.768371582E-07  0.00000E+00  9.000E+00
</event>
<event>
      5  10001  2.40292E+09  4.45048E+00 -1.00000E+00  2.52908E-01
      21    -1     0     0   512   511  0.000000000E+00  0.000000000E+00  1.168220242E+02  1.168220242E+02  0.000000000E+00  0.00000E+00  9.000E+00
      21    -1     0     0   516   515  0.000000000E+00  0.000000000E+00 -1.463494028E+00  1.463494028E+00  0.000000000E+00  0.00000E+00  9.000E+00
      21     1     1     2   512   515  3.803546324E+00  1.060509010E+01  3.214939986E+01  3.406638831E+01  6.743495762E-07  0.00000E+00  9.000E+00
       1     1     1     2   516     0 -1.244676275E-01 -8.079997389E+00  6.322658840E+01  6.374176206E+01  3.300000131E-01  0.00000E+00  9.000E+00
      -1     1     1     2     0   511 -3.679078697E+00 -2.525092712E+00  1.998254188E+01  2.047736783E+01  3.300000131E-01  0.00000E+00  9.000E+00
</event>
<event>
      5  10001  2.40292E+09  7.22716E+00 -1.00000E+00  2.13542E-01
      21    -1     0     0   512   516  0.000000000E+00  0.000000000E+00  4.093224985E+01  4.093224985E+01  0.000000000E+00  0.00000E+00  9.000E+00
      21    -1     0     0   511   513  0.000000000E+00  0.000000000E+00 -6.328420569E+00  6.328420569E+00  0.000000000E+00  0.00000E+00  9.000E+00
      21     1     1     2   514   516  1.229294407E+01  8.218658757E+00  1.276691691E+01  1.953604343E+01  2.920019320E-07  0.00000E+00  9.000E+00
      21     1     1     2   511   514 -8.371222364E+00 -2.148074429E+00  6.646627943E+00  1.090271758E+01  2.064765462E-07  0.00000E+00  9.000E+00
      21     1     1     2   512   513 -3.921721702E+00 -6.070584327E+00  1.519028443E+01  1.682190941E+01  2.384185791E-07  0.00000E+00  9.000E+00
</event>
<event>
      5  10001  2.40292E+09  5.80234E+00 -1.00000E+00  2.27675E-01
      21    -1     0     0   515   511  0.000000000E+00  0.000000000E+00  5.491345806E+00  5.491345806E+00  0.000000000E+00  0.00000E+00  9.000E+00
      21    -1     0     0   516   517  0.000000000E+00  0.000000000E+00 -2.412798599E+02  2.412798599E+02  0.000000000E+00  0.00000E+00  9.000E+00
      21     1     1     2   515   517  9.552318459E+00  4.113832185E+00 -2.353071336E+02  2.355368708E+02  2.697398305E-06  0.00000E+00  9.000E+00
      21     1     1     2   516   514 -3.845269174E+00 -3.303274406E+00 -1.692090277E+00  5.344238611E+00  8.429369702E-08  0.00000E+00  9.000E+00
      21     1     1     2   514   511 -5.707049285E+00 -8.105577788E-01  1.210709799E+00  5.890096236E+00  2.037703146E-07  0.00000E+00  9.000E+00
</event>
<event>
      5  10001  2.40292E+09  1.22151E+01 -1.00000E+00  1.86168E-01
      21    -1     0     0   513   511  0.000000000E+00  0.000000000E+00  3.424067930E+01  3.424067930E+01  0.000000000E+00  0.00000E+00  9.000E+00
      21    -1     0     0   512   513  0.000000000E+00  0.000000000E+00 -8.965271158E+01  8.965271158E+01  0.000000000E+00  0.00000E+00  9.000E+00
      -5     1     1     2     0   511  8.107507008E+00  1.376639896E+01  3.111240503E+01  3.530250924E+01  4.800000191E+00  0.00000E+00  9.000E+00
      21     1     1     2   512   515 -5.990494585E+00 -2.317252854E+00 -2.819079820E+01  2.891326321E+01  0.000000000E+00  0.00000E+00  9.000E+00
       5     1     1     2   515     0 -2.117012423E+00 -1.144914611E+01 -5.833363910E+01  5.967761842E+01  4.800000191E+00  0.00000E+00  9.000E+00
</event>
<event>
      5  10001  2.40292E+09  6.84637E+00 -1.00000E+00  2.16853E-01
      21    -1     0     0   511   514  0.000000000E+00  0.000000000E+00  8.920416707E+00  8.920416707E+00  0.000000000E+00  0.00000E+00  9.000E+00
      21    -1     0     0   515   513  0.000000000E+00  0.000000000E+00 -6.412750267E+01  6.412750267E+01  0.000000000E+00  0.00000E+00  9.000E+00
      -2     1     1     2     0   513  6.627563156E+00  7.807728101E+00 -2.066644376E+01  2.306720635E+01  3.300000131E-01  0.00000E+00  9.000E+00
      21     1     1     2   515   514 -9.904150062E+00 -1.381779540E+01 -3.848551902E+01  4.207325554E+01  4.768371582E-07  0.00000E+00  9.000E+00
       2     1     1     2   511     0  3.276586906E+00  6.010067295E+00  3.944876813E+00  7.907457475E+00  3.300000131E-01  0.00000E+00  9.000E+00
</event>
<event>
      5  10001  2.40292E+09  4.67510E+00 -1.00000E+00  2.48373E-01
      21    -1     0     0   512   514  0.000000000E+00  0.000000000E+00  3.172226272E-01  3.172226272E-01  0.000000000E+00  0.00000E+00  9.000E+00
       2    -1     0     0   511     0  0.000000000E+00  0.000000000E+00 -1.020995532E+03  1.020995532E+03  0.000000000E+00  0.00000E+00  9.000E+00
      21     1     1     2   513   514  3.996928791E+00 -3.005373315E+00 -4.180280886E+01  4.210086147E+01  0.000000000E+00  0.00000E+00  9.000E+00
       2     1     1     2   512     0 -1.148036543E+01  5.330597097E+00 -8.523000991E+02  8.523941470E+02  3.300000131E-01  0.00000E+00  9.000E+00
      21     1     1     2   511   513  7.483436644E+00 -2.325223782E+00 -1.265754015E+02  1.268177463E+02  1.907348633E-06  0.00000E+00  9.000E+00
</event>
<event>
      5  10001  2.40292E+09  9.50214E+00 -1.00000E+00  1.98296E-01
      21    -1     0     0   515   513  0.000000000E+00  0.000000000E+00  4.787590372E-01  4.787590372E-01  0.000000000E+00  0.00000E+00  9.000E+00
       1    -1     0     0   513     0  0.000000000E+00  0.000000000E+00 -3.872279375E+02  3.872279375E+02  0.000000000E+00  0.00000E+00  9.000E+00
      21     1     1     2   512   511  2.290234100E+00 -8.639727912E-01 -2.048308962E+01  2.062882890E+01  2.384185791E-07  0.00000E+00  9.000E+00
       1     1     1     2   511     0 -1.027655841E+01 -5.084375389E+00 -2.807016485E+02  2.809359053E+02  3.300000131E-01  0.00000E+00  9.000E+00
      21     1     1     2   515   512  7.986324307E+00  5.948348180E+00 -8.556444039E+01  8.614196237E+01  0.000000000E+00  0.00000E+00  9.000E+00
</event>
<event>
      5  10001  2.40292E+09  2.38416E+01 -1.00000E+00  1.60271E-01
      21    -1     0     0   514   512  0.000000000E+00  0.000000000E+00  3.806896404E+01  3.806896404E+01  0.000000000E+00  0.00000E+00  9.000E+00
      21    -1     0     0   513   514  0.000000000E+00  0.000000000E+00 -1.443696053E+01  1.443696053E+01  0.000000000E+00  0.00000E+00  9.000E+00
      21     1     1     2   516   512  3.821160092E+00  7.669483117E+00  2.528017148E+01  2.669286994E+01  4.768371582E-07  0.00000E+00  9.000E+00
      21     1     1     2   511   516  9.078834648E+00 -1.465278647E+00 -5.844370200E+00  1.089628116E+01  1.460009660E-07  0.00000E+00  9.000E+00
      21     1     1     2   513   511 -1.289999474E+01 -6.204204469E+00  4.196202230E+00  1.491677346E+01  1.576990671E-07  0.00000E+00  9.000E+00
</event>
<event>
      5  10001  2.40292E+09  4.68347E+00 -1.00000E+00  2.48212E-01
      21    -1     0     0   514   512  0.000000000E+00  0.000000000E+00  8.086406471E+00  8.086406471E+00  0.000000000E+00  0.00000E+00  9.000E+00
      21    -1     0     0   511   514  0.000000000E+00  0.000000000E+00 -5.543231701E+01  5.543231701E+01  0.000000000E+00  0.00000E+00  9.000E+00
      21     1     1     2   511   515  4.330651817E+00 -9.377363501E+00 -3.787285264E+01  3.925611364E+01  4.768371582E-07  0.00000E+00  9.000E+00
       4     1     1     2   515     0 -8.506547809E+00  7.300556746E+00 -1.371888499E+01  1.777968756E+01  1.500000000E+00  0.00000E+00  9.000E+00
      -4     1     1     2     0   512  4.175895991E+00  2.076806755E+00  4.245827087E+00  6.482922279E+00  1.500000000E+00  0.00000E+00  9.000E+00
</event>
<event>
      5  10001  2.40292E+09  3.55419E+00 -1.00000E+00  2.76060E-01
      -3    -1     0     0     0   512  0.000000000E+00  0.000000000E+00  1.260566471E+00  1.260566471E+00  0.000000000E+00  0.00000E+00  9.000E+00
      21    -1     0     0   512   514  0.000000000E+00  0.000000000E+00 -2.433168950E+02  2.433168950E+02  0.000000000E+00  0.00000E+00  9.000E+00
      -3     1     1     2     0   511  8.812787041E+00  3.433088174E+00 -2.288369315E+01  2.476620120E+01  5.000000000E-01  0.00000E+00  9.000E+00
      21     1     1     2   511   513 -1.106666494E+01 -6.180124626E+00 -1.447756802E+02  1.453294966E+02  0.000000000E+00  0.00000E+00  9.000E+00
      21     1     1     2   513   514  2.253877897E+00  2.747036452E+00 -7.439695523E+01  7.448176369E+01  9.536743164E-07  0.00000E+00  9.000E+00
</event>
<event>
      5  10001  2.40292E+09  6.23773E+00 -1.00000E+00  2.22806E-01
      21    -1     0     0   515   511  0.000000000E+00  0.000000000E+00  4.118914195E+01  4.118914195E+01  0.000000000E+00  0.00000E+00  9.000E+00
      21    -1     0     0   512   516  0.000000000E+00  0.000000000E+00 -2.739789924E+02  2.739789924E+02  0.000000000E+00  0.00000E+00  9.000E+00
      21     1     1     2   512   514  8.005169481E+00 -6.511884503E+00 -2.607073261E+02  2.609114740E+02  3.814697266E-06  0.00000E+00  9.000E+00
      21     1     1     2   514   511 -5.694343923E+00  1.230579705E+01  3.913720014E+01  4.141954404E+01  1.846782373E-06  0.00000E+00  9.000E+00
      21     1     1     2   515   516 -2.310825558E+00 -5.793912546E+00 -1.121972447E+01  1.283711629E+01  1.192092896E-07  0.00000E+00  9.000E+00
</event>
<event>
      5  10001  2.40292E+09  4.19642E+00 -1.00000E+00  2.58555E-01
      21    -1     0     0   514   512  0.000000000E+00  0.000000000E+00  1.171546411E+01  1.171546411E+01  0.000000000E+00  0.00000E+00  9.000E+00
       1    -1     0     0   511     0  0.000000000E+00  0.000000000E+00 -4.553861668E+02  4.553861668E+02  0.000000000E+00  0.00000E+00  9.000E+00
      21     1     1     2   514   513 -3.008116143E-01  1.214580891E+01 -1.538396070E+01  1.960299489E+01  3.371747881E-07  0.00000E+00  9.000E+00
       1     1     1     2   513     0 -1.237629696E+00 -8.241591317E+00 -4.373927246E+02  4.374722391E+02  3.300000131E-01  0.00000E+00  9.000E+00
      21     1     1     2   511   512  1.538441310E+00 -3.904217597E+00  9.105982583E+00  1.002639694E+01  6.848052319E-07  0.00000E+00  9.000E+00
</event>
<event>
      5  10001  2.40292E+09  1.91040E+01 -1.00000E+00  1.67986E-01
      21    -1     0     0   515   513  0.000000000E+00  0.000000000E+00  8.553404198E+00  8.553404198E+00  0.000000000E+00  0.00000E+00  9.000E+00
      21    -1     0     0   511   512  0.000000000E+00  0.000000000E+00 -2.168704676E+01  2.168704676E+01  0.000000000E+00  0.00000E+00  9.000E+00
      21     1     1     2   515   512  2.436961310E+00 -3.818220683E+00 -5.511424473E+00  7.133960284E+00  2.064765462E-07  0.00000E+00  9.000E+00
      21     1     1     2   511   514  1.014249028E+00  2.968044868E+00  7.205569718E+00  7.858640238E+00  1.192092896E-07  0.00000E+00  9.000E+00
      21     1     1     2   514   513 -3.451210338E+00  8.501758151E-01 -1.482778780E+01  1.524785043E+01  3.769728732E-07  0.00000E+00  9.000E+00
</event>
<event>
      5  10001  2.40292E+09  1.61855E+01 -1.00000E+00  1.74281E-01
      21    -1     0     0   514   511  0.000000000E+00  0.000000000E+00  8.251324118E-01  8.251324118E-01  0.000000000E+00  0.00000E+00  9.000E+00
       2    -1     0     0   513     0  0.000000000E+00  0.000000000E+00 -1.267380851E+03  1.267380851E+03  0.000000000E+00  0.00000E+00  9.000E+00
      21     1     1     2   513   512  3.297126455E+00  1.354452091E+01 -1.481649480E+02  1.488192760E+02  2.697398305E-06  0.00000E+00  9.000E+00
       2     1     1     2   514     0 -1.221831165E+01 -1.374639595E+01 -1.071300484E+03  1.071458392E+03  3.300000131E-01  0.00000E+00  9.000E+00
      21     1     1     2   512   511  8.921185194E+00  2.018750406E-01 -4.709028681E+01  4.792831533E+01  1.651812370E-06  0.00000E+00  9.000E+00
</event>
<event>
      5  10001  2.40292E+09  6.15972E+00 -1.00000E+00  2.23637E-01
      21    -1     0     0   516   513  0.000000000E+00  0.000000000E+00  1.091253599E+02  1.091253599E+02  0.000000000E+00  0.00000E+00  9.000E+00
      21    -1     0     0   515   516  0.000000000E+00  0.000000000E+00 -1.097331835E+01  1.097331835E+01  0.000000000E+00  0.00000E+00  9.000E+00
      -4     1     1     2     0   511  1.550116410E+01  1.529373784E+00  2.841531655E+01  3.243925534E+01  1.500000000E+00  0.00000E+00  9.000E+00
       4     1     1     2   515     0 -2.026861996E+01 -5.414921305E+00  3.723209694E+00  2.136002383E+01  1.500000000E+00  0.00000E+00  9.000E+00
      21     1     1     2   511   513  4.767455856E+00  3.885547522E+00  6.601351527E+01  6.629939904E+01  1.348699152E-06  0.00000E+00  9.000E+00
</event>
<event>
      5  10001  2.40292E+09  1.01408E+01 -1.00000E+00  1.95000E-01
      21    -1     0     0   512   513  0.000000000E+00  0.000000000E+00  1.583456040E+02  1.583456040E+02  0.000000000E+00  0.00000E+00  9.000E+00
       5    -1     0     0   511     0  0.000000000E+00  0.000000000E+00 -2.137562126E+01  2.137562126E+01  0.000000000E+00  0.00000E+00  9.000E+00
      21     1     1     2   511   513  1.688362655E+01 -4.444827420E+00  1.500827539E+02  1.510948257E+02  0.000000000E+00  0.00000E+00  9.000E+00
       5     1     1     2   514     0 -8.369576544E+00 -1.994746824E+00 -1.483973504E+01  1.781253953E+01  4.800000191E+00  0.00000E+00  9.000E+00
      21     1     1     2   512   514 -8.514050005E+00  6.439574244E+00  1.726963855E+00  1.081386000E+01  1.788139343E-07  0.00000E+00  9.000E+00
</event>
<event>
      5  10001  2.40292E+09  3.62091E+00 -1.00000E+00  2.73976E-01
      -1    -1     0     0     0   515  0.000000000E+00  0.000000000E+00  1.751564990E+02  1.751564990E+02  0.000000000E+00  0.00000E+00  9.000E+00
      21    -1     0     0   511   514  0.000000000E+00  0.000000000E+00 -1.923439598E+01  1.923439598E+01  0.000000000E+00  0.00000E+00  9.000E+00
      -1     1     1     2     0   514 -1.103727824E+01  8.969326154E+00  1.415930651E+02  1.423059215E+02  3.300000131E-01  0.00000E+00  9.000E+00
      21     1     1     2   512   515  9.707704545E+00 -1.233725553E+01  3.114811915E+01  3.488054942E+01  1.066240300E-06  0.00000E+00  9.000E+00
      21     1     1     2   511   512  1.329573692E+00  3.367929377E+00 -1.681908120E+01  1.720442405E+01  5.840038640E-07  0.00000E+00  9.000E+00
</event>
<event>
      5  10001  2.40292E+09  4.85176E+00 -1.00000E+00  2.45069E-01
      21    -1     0     0   513   515  0.000000000E+00  0.000000000E+00  2.985498286E+00  2.985498286E+00  0.000000000E+00  0.00000E+00  9.000E+00
      21    -1     0     0   511   513  0.000000000E+00  0.000000000E+00 -3.688611241E+01  3.688611241E+01  0.000000000E+00  0.00000E+00  9.000E+00
      21     1     1     2   512   515  7.068264934E+00  4.618501891E+00 -1.499411149E+01  1.720797223E+01  2.384185791E-07  0.00000E+00  9.000E+00
      21     1     1     2   514   512 -6.506691768E+00 -7.259852989E+00 -1.394489852E+01  1.701477881E+01  3.371747881E-07  0.00000E+00  9.000E+00
      21     1     1     2   511   514 -5.615731656E-01  2.641351098E+00 -4.961604106E+00  5.648859650E+00  1.032382731E-07  0.00000E+00  9.000E+00
</event>
<event>
      5  10001  2.40292E+09  9.26129E+00 -1.00000E+00  1.99630E-01
      21    -1     0     0   516   514  0.000000000E+00  0.000000000E+00  8.102985385E+00  8.102985385E+00  0.000000000E+00  0.00000E+00  9.000E+00
      21    -1     0     0   511   516  0.000000000E+00  0.000000000E+00 -3.042048427E+02  3.042048427E+02  0.000000000E+00  0.00000E+00  9.000E+00
      21     1     1     2   511   517  7.342169833E+00  2.030836713E+01 -2.789264934E+02  2.797611945E+02  3.814697266E-06  0.00000E+00  9.000E+00
      21     1     1     2   517   512 -3.750176553E+00 -1.065263319E+01  1.325270764E+00  1.137096129E+01  9.851684973E-07  0.00000E+00  9.000E+00
      21     1     1     2   512   514 -3.591993281E+00 -9.655733940E+00 -1.850063473E+01  2.117567234E+01  4.129530925E-07  0.00000E+00  9.000E+00
</event>
<event>
      5  10001  2.40292E+09  9.76769E+00 -1.00000E+00  1.96886E-01
      21    -1     0     0   513   515  0.000000000E+00  0.000000000E+00  2.432275279E+01  2.432275279E+01  0.000000000E+00  0.00000E+00  9.000E+00
      21    -1     0     0   511   514  0.000000000E+00  0.000000000E+00 -1.401701157E+01  1.401701157E+01  0.000000000E+00  0.00000E+00  9.000E+00
      21     1     1     2   513   514 -1.785482204E+00  1.183650990E+01 -7.932394845E+00  1.436014628E+01  2.384185791E-07  0.00000E+00  9.000E+00
      21     1     1     2   511   516 -3.056939983E+00 -8.492100163E+00  7.501968917E+00  1.173627645E+01  1.192092896E-07  0.00000E+00  9.000E+00
      21     1     1     2   516   515  4.842422187E+00 -3.344409735E+00  1.073616715E+01  1.224334162E+01  1.192092896E-07  0.00000E+00  9.000E+00
</event>
<event>
      5  10001  2.40292E+09  7.09964E+00 -1.00000E+00  2.14619E-01
      21    -1     0     0   512   511  0.000000000E+00  0.000000000E+00  3.221845399E+00  3.221845399E+00  0.000000000E+00  0.00000E+00  9.000E+00
      21    -1     0     0   513   515  0.000000000E+00  0.000000000E+00 -3.173561202E+02  3.173561202E+02  0.000000000E+00  0.00000E+00  9.000E+00
      21     1     1     2   512   515 -5.054474407E+00  1.031483249E+01 -2.776230251E+01  3.004478193E+01  0.000000000E+00  0.00000E+00  9.000E+00
      21     1     1     2   517   511 -2.021721169E+00 -1.089132746E+01 -1.304385444E+01  1.711287553E+01  4.460403188E-07  0.00000E+00  9.000E+00
      21     1     1     2   513   517  7.076195576E+00  5.764949760E-01 -2.733281179E+02  2.734203081E+02  3.814697266E-06  0.00000E+00  9.000E+00
</event>
<event>
      5  10001  2.40292E+09  7.50864E+00 -1.00000E+00  2.11268E-01
       2    -1     0     0   516     0  0.000000000E+00  0.000000000E+00  3.454332445E+01  3.454332445E+01  0.000000000E+00  0.00000E+00  9.000E+00
      21    -1     0     0   514   516  0.000000000E+00  0.000000000E+00 -1.441088614E+02  1.441088614E+02  0.000000000E+00  0.00000E+00  9.000E+00
      -3     1     1     2     0   511  1.246383990E+01 -2.612325811E+00 -2.984087125E+01  3.244840748E+01  5.000000000E-01  0.00000E+00  9.000E+00
       3     1     1     2   514     0 -1.258331068E+01  1.011948291E+01 -1.119520594E+02  1.131117025E+02  5.000000000E-01  0.00000E+00  9.000E+00
       2     1     1     2   511     0  1.194707836E-01 -7.507157101E+00  3.222739369E+01  3.309207587E+01  3.300000131E-01  0.00000E+00  9.000E+00
</event>
<event>
      5  10001  2.40292E+09  9.26942E+00 -1.00000E+00  1.99584E-01
      21    -1     0     0   512   513  0.000000000E+00  0.000000000E+00  2.395862025E+00  2.395862025E+00  0.000000000E+00  0.00000E+00  9.000E+00
       1    -1     0     0   513     0  0.000000000E+00  0.000000000E+00 -5.530726116E+02  5.530726116E+02  0.000000000E+00  0.00000E+00  9.000E+00
      -4     1     1     2     0   515  5.543482057E+00  8.225421556E+00 -1.157521206E+02  1.161860197E+02  1.500000000E+00  0.00000E+00  9.000E+00
       4     1     1     2   512     0  6.926915929E-01 -1.505959249E+01 -2.485462600E+01  2.910796422E+01  1.500000000E+00  0.00000E+00  9.000E+00
       1     1     1     2   515     0 -6.236173650E+00  6.834170929E+00 -4.100700030E+02  4.101744897E+02  3.300000131E-01  0.00000E+00  9.000E+00
</event>
<event>
      5  10001  2.40292E+09  3.73893E+00 -1.00000E+00  2.70459E-01
      21    -1     0     0   511   513  0.000000000E+00  0.000000000E+00  1.477999726E+02  1.477999726E+02  0.000000000E+00  0.00000E+00  9.000E+00
       4    -1     0     0   512     0  0.000000000E+00  0.000000000E+00 -3.005231347E+00  3.005231347E+00  0.000000000E+00  0.00000E+00  9.000E+00
      21     1     1     2   514   513 -5.401381485E+00  5.716776102E+00  6.982520020E+01  7.026674202E+01  1.348699152E-06  0.00000E+00  9.000E+00
       4     1     1     2   511     0  1.205169388E+01 -7.453170766E+00  1.708488100E+01  2.224716249E+01  1.500000000E+00  0.00000E+00  9.000E+00
      21     1     1     2   512   514 -6.650312396E+00  1.736394664E+00  5.788466010E+01  5.829129949E+01  0.000000000E+00  0.00000E+00  9.000E+00
</event>
<event>
      5  10001  2.40292E+09  1.34986E+01 -1.00000E+00  1.81760E-01
      21    -1     0     0   515   513  0.000000000E+00  0.000000000E+00  4.638458018E-01  4.638458018E-01  0.000000000E+00  0.00000E+00  9.000E+00
       2    -1     0     0   513     0  0.000000000E+00  0.000000000E+00 -1.340191933E+03  1.340191933E+03  0.000000000E+00  0.00000E+00  9.000E+00
      21     1     1     2   511   512  6.375155268E+00  5.380479384E+00 -5.483573230E+01  5.546665395E+01  1.651812370E-06  0.00000E+00  9.000E+00
       2     1     1     2   512     0 -7.299571068E-01 -1.381075594E+01 -1.032854777E+03  1.032947418E+03  3.300000131E-01  0.00000E+00  9.000E+00
      21     1     1     2   515   511 -5.645198161E+00  8.430276554E+00 -2.520375778E+02  2.522417064E+02  5.394796609E-06  0.00000E+00  9.000E+00
</event>
<event>
      5  10001  2.40292E+09  1.36794E+01 -1.00000E+00  1.81189E-01
      21    -1     0     0   512   511  0.000000000E+00  0.000000000E+00  1.292765625E+02  1.292765625E+02  0.000000000E+00  0.00000E+00  9.000E+00
       4    -1     0     0   511     0  0.000000000E+00  0.000000000E+00 -6.672644279E+00  6.672644279E+00  0.000000000E+00  0.00000E+00  9.000E+00
      -3     1     1     2     0   514 -1.131548716E+01 -2.502719353E+00  6.341504402E+01  6.446721385E+01  5.000000000E-01  0.00000E+00  9.000E+00
       4     1     1     2   514     0  7.917582509E+00  7.812100344E+00 -7.140954663E-01  1.124619744E+01  1.500000000E+00  0.00000E+00  9.000E+00
       3     1     1     2   512     0  3.397904656E+00 -5.309380991E+00  5.990296969E+01  6.023579550E+01  5.000000000E-01  0.00000E+00  9.000E+00
</event>
<event>
      5  10001  2.40292E+09  8.11542E+00 -1.00000E+00  2.06795E-01
      -1    -1     0     0     0   514  0.000000000E+00  0.000000000E+00  4.383188270E+02  4.383188270E+02  0.000000000E+00  0.00000E+00  9.000E+00
      21    -1     0     0   511   515  0.000000000E+00  0.000000000E+00 -4.119712299E+00  4.119712299E+00  0.000000000E+00  0.00000E+00  9.000E+00
      21     1     1     2   513   515 -4.535983740E+00  1.082645302E+01  9.113225324E+00  1.486062278E+01  2.384185791E-07  0.00000E+00  9.000E+00
      21     1     1     2   511   514  1.015552193E+01 -4.971647433E+00  2.532572772E+01  2.773525533E+01  3.371747881E-07  0.00000E+00  9.000E+00
      -1     1     1     2     0   513 -5.619538195E+00 -5.854805587E+00  3.997601617E+02  3.998426612E+02  3.300000131E-01  0.00000E+00  9.000E+00
</event>
<event>
      5  10001  2.40292E+09  1.19169E+01 -1.00000E+00  1.87292E-01
      21    -1     0     0   512   511  0.000000000E+00  0.000000000E+00  1.283618721E+01  1.283618721E+01  0.000000000E+00  0.00000E+00  9.000E+00
      21    -1     0     0   516   512  0.000000000E+00  0.000000000E+00 -2.753304571E+01  2.753304571E+01  0.000000000E+00  0.00000E+00  9.000E+00
      21     1     1     2   516   513  8.514250749E+00  1.904934734E+00 -1.855645770E+01  2.050520336E+01  3.371747881E-07  0.00000E+00  9.000E+00
      21     1     1     2   514   511 -1.004030969E+01 -8.204623500E+00  3.150133568E+00  1.334342561E+01  1.192092896E-07  0.00000E+00  9.000E+00
      21     1     1     2   513   514  1.526058943E+00  6.299688766E+00  7.094656373E-01  6.520603955E+00  7.955043206E-08  0.00000E+00  9.000E+00
</event>
<event>
      5  10001  2.40292E+09  4.91769E+00 -1.00000E+00  2.43889E-01
      -1    -1     0     0     0   514  0.000000000E+00  0.000000000E+00  9.135838764E+01  9.135838764E+01  0.000000000E+00  0.00000E+00  9.000E+00
      -1    -1     0     0     0   511  0.000000000E+00  0.000000000E+00 -1.162369996E+01  1.162369996E+01  0.000000000E+00  0.00000E+00  9.000E+00
      -1     1     1     2     0   511  7.973604957E+00  1.174576172E+01  8.389753321E+01  8.509081192E+01  3.300000131E-01  0.00000E+00  9.000E+00
      -1     1     1     2     0   512 -3.603354750E+00 -8.138265062E+00 -7.208307575E+00  1.145792834E+01  3.300000131E-01  0.00000E+00  9.000E+00
      21     1     1     2   512   514 -4.370250207E+00 -3.607496660E+00  3.045462039E+00  6.433347344E+00  1.332800375E-07  0.00000E+00  9.000E+00
</event>
<event>
      5  10001  2.40292E+09  8.23499E+00 -1.00000E+00  2.05975E-01
      21    -1     0     0   513   512  0.000000000E+00  0.000000000E+00  2.630041167E+02  2.630041167E+02  0.000000000E+00  0.00000E+00  9.000E+00
      21    -1     0     0   514   513  0.000000000E+00  0.000000000E+00 -1.230779931E+00  1.230779931E+00  0.000000000E+00  0.00000E+00  9.000E+00
      21     1     1     2   515   512 -5.786320845E+00  7.585838452E+00  2.031232876E+02  2.033472311E+02  2.697398305E-06  0.00000E+00  9.000E+00
      21     1     1     2   511   515  2.689999212E+00 -3.221952296E+00  3.461968552E+00  5.440799447E+00  2.107342426E-07  0.00000E+00  9.000E+00
      21     1     1     2   514   511  3.096321634E+00 -4.363886155E+00  5.518808071E+01  5.544686612E+01  1.168007728E-06  0.00000E+00  9.000E+00
</event>
<event>
      5  10001  2.40292E+09  5.19749E+00 -1.00000E+00  2.35528E-01
      -1    -1     0     0     0   515  0.000000000E+00  0.000000000E+00  5.179310072E+02  5.179310072E+02  0.000000000E+00  0.00000E+00  9.000E+00
      21    -1     0     0   514   516  0.000000000E+00  0.000000000E+00 -2.927509392E+01  2.927509392E+01  0.000000000E+00  0.00000E+00  9.000E+00
      21     1     1     2   511   515  7.650811186E+00 -4.795545625E+00  4.109707345E+00  9.920779411E+00  2.308477966E-07  0.00000E+00  9.000E+00
      21     1     1     2   514   511 -1.158526157E+01  1.399380270E+00 -2.506456149E+01  2.764794374E+01  0.000000000E+00  0.00000E+00  9.000E+00
      -1     1     1     2     0   516  3.934450385E+00  3.396165356E+00  5.096107674E+02  5.096373779E+02  3.300000131E-01  0.00000E+00  9.000E+00
</event>
<event>
      5  10001  2.40292E+09  6.18292E+00 -1.00000E+00  2.23388E-01
       1    -1     0     0   511     0  0.000000000E+00  0.000000000E+00  1.176874931E+02  1.176874931E+02  0.000000000E+00  0.00000E+00  9.000E+00
       3    -1     0     0   512     0  0.000000000E+00  0.000000000E+00 -1.743772988E+01  1.743772988E+01  0.000000000E+00  0.00000E+00  9.000E+00
       1     1     1     2   512     0 -1.078661408E+01 -1.526627324E+00  1.100910630E+02  1.106292578E+02  3.300000131E-01  0.00000E+00  9.000E+00
       3     1     1     2   513     0  6.787326720E+00  2.908398957E+00 -1.564867354E+01  1.731062021E+01  5.000000000E-01  0.00000E+00  9.000E+00
      21     1     1     2   511   513  3.999287364E+00 -1.381771632E+00  5.807373763E+00  7.185344966E+00  1.192092896E-07  0.00000E+00  9.000E+00
</event>
<event>
      5  10001  2.40292E+09  1.61736E+01 -1.00000E+00  1.74310E-01
       2    -1     0     0   514     0  0.000000000E+00  0.000000000E+00  1.385152974E+02  1.385152974E+02  0.000000000E+00  0.00000E+00  9.000E+00
      21    -1     0     0   511   513  0.000000000E+00  0.000000000E+00 -8.820633450E-01  8.820633450E-01  0.000000000E+00  0.00000E+00  9.000E+00
      21     1     1     2   514   513  1.675129237E+00 -3.476204161E+00  2.440139682E+01  2.470461941E+01  3.371747881E-07  0.00000E+00  9.000E+00
      21     1     1     2   511   512 -6.825176063E+00  3.403407826E+00  2.144303947E+01  2.275895768E+01  5.840038640E-07  0.00000E+00  9.000E+00
       2     1     1     2   512     0  5.150046826E+00  7.279633475E-02  9.178879777E+01  9.193378366E+01  3.300000131E-01  0.00000E+00  9.000E+00
</event>
<event>
      5  10001  2.40292E+09  7.00375E+00 -1.00000E+00  2.15449E-01
      21    -1     0     0   515   511  0.000000000E+00  0.000000000E+00  9.770026949E+01  9.770026949E+01  0.000000000E+00  0.00000E+00  9.000E+00
      21    -1     0     0   516   515  0.000000000E+00  0.000000000E+00 -1.402597077E+00  1.402597077E+00  0.000000000E+00  0.00000E+00  9.000E+00
      21     1     1     2   516   517  7.008237840E+00 -6.692226950E+00  2.221484533E+01  2.423634981E+01  3.371747881E-07  0.00000E+00  9.000E+00
      21     1     1     2   517   513 -3.704865345E+00  9.184037023E-01  1.869609893E+01  1.908176113E+01  2.384185791E-07  0.00000E+00  9.000E+00
      21     1     1     2   513   511 -3.303372495E+00  5.773823247E+00  5.538672816E+01  5.578475563E+01  6.743495762E-07  0.00000E+00  9.000E+00
</event>
<event>
      5  10001  2.40292E+09  3.53644E+00 -1.00000E+00  2.76627E-01
       1    -1     0     0   514     0  0.000000000E+00  0.000000000E+00  2.083033976E+02  2.083033976E+02  0.000000000E+00  0.00000E+00  9.000E+00
      21    -1     0     0   515   513  0.000000000E+00  0.000000000E+00 -1.872222567E+02  1.872222567E+02  0.000000000E+00  0.00000E+00  9.000E+00
      21     1     1     2   514   513 -1.182757505E+01  6.669737353E+00 -1.831543445E+02  1.836569923E+02  5.394796609E-06  0.00000E+00  9.000E+00
       1     1     1     2   512     0  1.532057851E+01 -7.222284628E+00  2.068047444E+02  2.074974524E+02  3.300000131E-01  0.00000E+00  9.000E+00
      21     1     1     2   515   512 -3.493003465E+00  5.525472750E-01 -2.569258983E+00  4.371209606E+00  6.664001875E-08  0.00000E+00  9.000E+00
</event>
<event>
      5  10001  2.40292E+09  6.91406E+00 -1.00000E+00  2.16243E-01
      -1    -1     0     0     0   511  0.000000000E+00  0.000000000E+00  1.000496413E+02  1.000496413E+02  0.000000000E+00  0.00000E+00  9.000E+00
      21    -1     0     0   511   514  0.000000000E+00  0.000000000E+00 -3.510398752E+00  3.510398752E+00  0.000000000E+00  0.00000E+00  9.000E+00
      -1     1     1     2     0   513 -1.605369410E+00  6.088434133E+00  8.270100316E+01  8.294100955E+01  3.300000131E-01  0.00000E+00  9.000E+00
      21     1     1     2   515   514 -1.060446656E+00 -9.728878550E+00  5.731919523E+00  1.134153986E+01  2.384185791E-07  0.00000E+00  9.000E+00
      21     1     1     2   513   515  2.665816065E+00  3.640444417E+00  8.106319832E+00  9.277490613E+00  1.685873940E-07  0.00000E+00  9.000E+00
</event>
<event>
      5  10001  2.40292E+09  8.21028E+00 -1.00000E+00  2.06143E-01
      21    -1     0     0   512   513  0.000000000E+00  0.000000000E+00  4.462959093E+02  4.462959093E+02  0.000000000E+00  0.00000E+00  9.000E+00
      21    -1     0     0   514   516  0.000000000E+00  0.000000000E+00 -2.177217725E+00  2.177217725E+00  0.000000000E+00  0.00000E+00  9.000E+00
      21     1     1     2   512   516 -1.199934016E+01 -5.172074267E+00  2.252605108E+02  2.256391638E+02  3.814697266E-06  0.00000E+00  9.000E+00
      21     1     1     2   511   513  1.997328953E+01  7.127777109E+00  2.086906331E+02  2.097653877E+02  0.000000000E+00  0.00000E+00  9.000E+00
      21     1     1     2   514   511 -7.973949373E+00 -1.955702842E+00  1.016754764E+01  1.306857556E+01  5.462855929E-07  0.00000E+00  9.000E+00
</event>
<event>
      5  10001  2.40292E+09  7.25420E+00 -1.00000E+00  2.13317E-01
      21    -1     0     0   511   513  0.000000000E+00  0.000000000E+00  1.156519283E+02  1.156519283E+02  0.000000000E+00  0.00000E+00  9.000E+00
      21    -1     0     0   513   512  0.000000000E+00  0.000000000E+00 -1.141979769E+01  1.141979769E+01  0.000000000E+00  0.00000E+00  9.000E+00
      21     1     1     2   511   514  5.365931957E+00  1.159070410E+01  9.862598912E+01  9.944960220E+01  2.697398305E-06  0.00000E+00  9.000E+00
       5     1     1     2   514     0  1.742023449E+00 -1.209331807E+01  1.129516131E+01  1.731772671E+01  4.800000191E+00  0.00000E+00  9.000E+00
      -5     1     1     2     0   512 -7.107955406E+00  5.026139700E-01 -5.689019819E+00  1.030439708E+01  4.800000191E+00  0.00000E+00  9.000E+00
</event>
<event>
      5  10001  2.40292E+09  7.05870E+00 -1.00000E+00  2.14971E-01
      21    -1     0     0   515   512  0.000000000E+00  0.000000000E+00  5.182148465E+01  5.182148465E+01  0.000000000E+00  0.00000E+00  9.000E+00
      21    -1     0     0   513   516  0.000000000E+00  0.000000000E+00 -8.027156230E+00  8.027156230E+00  0.000000000E+00  0.00000E+00  9.000E+00
      21     1     1     2   515   516  6.288822597E+00  6.881697870E+00  4.240477972E+01  4.341742045E+01  9.536743164E-07  0.00000E+00  9.000E+00
      21     1     1     2   513   511 -9.196779257E+00 -3.035322459E+00 -2.759267397E+00  1.007012848E+01  3.908537939E-07  0.00000E+00  9.000E+00
      21     1     1     2   511   512  2.907956661E+00 -3.846375411E+00  4.148816092E+00  6.361091943E+00  1.032382731E-07  0.00000E+00  9.000E+00
</event>
<event>
      5  10001  2.40292E+09  2.01470E+00 -1.00000E+00  3.61381E-01
      21    -1     0     0   514   511  0.000000000E+00  0.000000000E+00  1.601681274E+02  1.601681274E+02  0.000000000E+00  0.00000E+00  9.000E+00
      21    -1     0     0   512   515  0.000000000E+00  0.000000000E+00 -2.403784874E+00  2.403784874E+00  0.000000000E+00  0.00000E+00  9.000E+00
      21     1     1     2   513   511  4.741062003E+00 -1.211716407E+01  1.363749839E+02  1.369943048E+02  2.697398305E-06  0.00000E+00  9.000E+00
      21     1     1     2   512   513 -3.096498034E+00  1.095337439E+01  1.470209893E+01  1.859345109E+01  5.591411304E-07  0.00000E+00  9.000E+00
      21     1     1     2   514   515 -1.644563969E+00  1.163789681E+00  6.687259737E+00  6.984156345E+00  8.429369702E-08  0.00000E+00  9.000E+00
</event>
<event>
      5  10001  2.40292E+09  7.52628E+00 -1.00000E+00  2.11130E-01
      -4    -1     0     0     0   516  0.000000000E+00  0.000000000E+00  7.731846209E+00  7.731846209E+00  0.000000000E+00  0.00000E+00  9.000E+00
      21    -1     0     0   516   514  0.000000000E+00  0.000000000E+00 -5.593247722E+01  5.593247722E+01  0.000000000E+00  0.00000E+00  9.000E+00
      21     1     1     2   511   513  2.829534654E+00 -4.993416540E+00 -3.648778213E-01  5.750966086E+00  1.396859680E-07  0.00000E+00  9.000E+00
      21     1     1     2   513   514 -9.272249081E+00  5.632391406E+00 -4.981215169E+01  5.097988714E+01  9.536743164E-07  0.00000E+00  9.000E+00
      -4     1     1     2     0   511  6.442714427E+00 -6.389748661E-01  1.976398505E+00  6.933470208E+00  1.500000000E+00  0.00000E+00  9.000E+00
</event>
<event>
      5  10001  2.40292E+09  5.05822E+00 -1.00000E+00  2.37554E-01
      21    -1     0     0   512   511  0.000000000E+00  0.000000000E+00  1.132082002E+02  1.132082002E+02  0.000000000E+00  0.00000E+00  9.000E+00
      21    -1     0     0   513   512  0.000000000E+00  0.000000000E+00 -1.957643530E+02  1.957643530E+02  0.000000000E+00  0.00000E+00  9.000E+00
      21     1     1     2   516   511 -2.524754252E-01  8.954969152E+00  1.098245431E+02  1.101893165E+02  1.907348633E-06  0.00000E+00  9.000E+00
      21     1     1     2   515   516 -4.636662296E-01 -1.396223383E+01 -1.224588925E+01  1.857742618E+01  6.951036328E-07  0.00000E+00  9.000E+00
      21     1     1     2   513   515  7.161416547E-01  5.007264677E+00 -1.801348066E+02  1.802058104E+02  2.697398305E-06  0.00000E+00  9.000E+00
</event>
<event>
      5  10001  2.40292E+09  8.03977E+00 -1.00000E+00  2.07324E-01
      21    -1     0     0   511   515  0.000000000E+00  0.000000000E+00  6.043520340E+01  6.043520340E+01  0.000000000E+00  0.00000E+00  9.000E+00
      -2    -1     0     0     0   514  0.000000000E+00  0.000000000E+00 -3.250544668E+01  3.250544668E+01  0.000000000E+00  0.00000E+00  9.000E+00
      -2     1     1     2     0   515 -1.171373215E+01  8.121079221E+00  1.073259147E+01  1.784547193E+01  3.300000131E-01  0.00000E+00  9.000E+00
      21     1     1     2   513   514  6.798459972E+00 -1.759258416E+00 -2.816441848E+01  2.902668629E+01  3.371747881E-07  0.00000E+00  9.000E+00
      21     1     1     2   511   513  4.915272183E+00 -6.361820805E+00  4.536158373E+01  4.606849187E+01  6.743495762E-07  0.00000E+00  9.000E+00
</event>
<event>
      5  10001  2.40292E+09  3.14404E+01 -1.00000E+00  1.51604E-01
       1    -1     0     0   513     0  0.000000000E+00  0.000000000E+00  3.785227093E+02  3.785227093E+02  0.000000000E+00  0.00000E+00  9.000E+00
      21    -1     0     0   511   512  0.000000000E+00  0.000000000E+00 -5.099682336E+00  5.099682336E+00  0.000000000E+00  0.00000E+00  9.000E+00
      21     1     1     2   513   512  1.961658347E+01 -1.177325975E+01  2.581095120E+01  3.449094365E+01  3.371747881E-07  0.00000E+00  9.000E+00
      21     1     1     2   511   514 -1.434094283E+01 -2.817914465E+00  1.035310485E+02  1.045575501E+02  1.348699152E-06  0.00000E+00  9.000E+00
       1     1     1     2   514     0 -5.275640636E+00  1.459117421E+01  2.440810273E+02  2.445738979E+02  3.300000131E-01  0.00000E+00  9.000E+00
</event>
<event>
      5  10001  2.40292E+09  1.47749E+01 -1.00000E+00  1.77956E-01
      21    -1     0     0   515   511  0.000000000E+00  0.000000000E+00  3.482865760E+02  3.482865760E+02  0.000000000E+00  0.00000E+00  9.000E+00
      21    -1     0     0   517   516  0.000000000E+00  0.000000000E+00 -1.347769740E+00  1.347769740E+00  0.000000000E+00  0.00000E+00  9.000E+00
      21     1     1     2   515   516  1.125248042E+01  5.323615325E+00  3.175018933E+01  3.410328017E+01  6.743495762E-07  0.00000E+00  9.000E+00
      -3     1     1     2     0   511 -3.639002571E+00  1.619684212E+00  6.009573769E+01  6.022967213E+01  5.000000000E-01  0.00000E+00  9.000E+00
       3     1     1     2   517     0 -7.613477849E+00 -6.943299537E+00  2.550928792E+02  2.553013934E+02  5.000000000E-01  0.00000E+00  9.000E+00
</event>
<event>
      5  10001  2.40292E+09  5.78155E+00 -1.00000E+00  2.27922E-01
       2    -1     0     0   514     0  0.000000000E+00  0.000000000E+00  4.644374682E+02  4.644374682E+02  0.000000000E+00  0.00000E+00  9.000E+00
      21    -1     0     0   511   513  0.000000000E+00  0.000000000E+00 -1.224390666E+01  1.224390666E+01  0.000000000E+00  0.00000E+00  9.000E+00
      21     1     1     2   514   513  6.645247358E+00  4.022509697E+00  6.946733439E+01  6.990028930E+01  2.336015456E-06  0.00000E+00  9.000E+00
       2     1     1     2   512     0 -9.762216405E+00 -8.891846979E+00  3.939417244E+02  3.941631095E+02  3.300000131E-01  0.00000E+00  9.000E+00
      21     1     1     2   511   512  3.116969046E+00  4.869337282E+00 -1.121549722E+01  1.261797604E+01  6.637292341E-07  0.00000E+00  9.000E+00
</event>
<event>
      5  10001  2.40292E+09  1.83148E+01 -1.00000E+00  1.69543E-01
      21    -1     0     0   515   512  0.000000000E+00  0.000000000E+00  1.039242043E+01  1.039242043E+01  0.000000000E+00  0.00000E+00  9.000E+00
      21    -1     0     0   512   514  0.000000000E+00  0.000000000E+00 -1.357677109E+01  1.357677109E+01  0.000000000E+00  0.00000E+00  9.000E+00
      -3     1     1     2     0   513  1.384927885E+00  6.497014427E+00  5.817204853E+00  8.844155924E+00  5.000000000E-01  0.00000E+00  9.000E+00
       3     1     1     2   515     0  2.656377621E+00 -3.640562322E+00  3.467882005E-01  4.547559581E+00  5.000000000E-01  0.00000E+00  9.000E+00
      21     1     1     2   513   514 -4.041305506E+00 -2.856452104E+00 -9.348343708E+00  1.057747602E+01  3.153981341E-07  0.00000E+00  9.000E+00
</event>
<event>
      5  10001  2.40292E+09  4.80330E+00 -1.00000E+00  2.45954E-01
      21    -1     0     0   511   513  0.000000000E+00  0.000000000E+00  4.606670827E+01  4.606670827E+01  0.000000000E+00  0.00000E+00  9.000E+00
      21    -1     0     0   512   516  0.000000000E+00  0.000000000E+00 -3.109485327E+01  3.109485327E+01  0.000000000E+00  0.00000E+00  9.000E+00
      21     1     1     2   511   516  1.728244171E+01  1.435902260E+00  4.059249197E+01  4.414176040E+01  4.768371582E-07  0.00000E+00  9.000E+00
      21     1     1     2   515   513 -1.462679147E+01  2.518752654E+00 -2.352484278E+01  2.781555988E+01  6.743495762E-07  0.00000E+00  9.000E+00
      21     1     1     2   512   515 -2.655650240E+00 -3.954654914E+00 -2.095794196E+00  5.204241251E+00  1.365713982E-07  0.00000E+00  9.000E+00
</event>
<event>
      5  10001  2.40292E+09  7.81258E+00 -1.00000E+00  2.08959E-01
       2    -1     0     0   512     0  0.000000000E+00  0.000000000E+00  3.147433937E+01  3.147433937E+01  0.000000000E+00  0.00000E+00  9.000E+00
       2    -1     0     0   511     0  0.000000000E+00  0.000000000E+00 -5.250748555E+00  5.250748555E+00  0.000000000E+00  0.00000E+00  9.000E+00
       2     1     1     2   512     0  1.025582688E+01  7.699603302E-01  7.853007999E+00  1.294424422E+01  3.300000131E-01  0.00000E+00  9.000E+00
       2     1     1     2   513     0 -7.981581142E+00 -4.818950097E+00  1.610889725E+01  1.861540728E+01  3.300000131E-01  0.00000E+00  9.000E+00
      21     1     1     2   511   513 -2.274245737E+00  4.048989767E+00  2.261685560E+00  5.165436417E+00  7.300048300E-08  0.00000E+00  9.000E+00
</event>
<event>
      5  10001  2.40292E+09  1.00796E+01 -1.00000E+00  1.95302E-01
      21    -1     0     0   512   513  0.000000000E+00  0.000000000E+00  3.541697960E+01  3.541697960E+01  0.000000000E+00  0.00000E+00  9.000E+00
      21    -1     0     0   511   515  0.000000000E+00  0.000000000E+00 -1.346358071E+02  1.346358071E+02  0.000000000E+00  0.00000E+00  9.000E+00
      21     1     1     2   514   515  1.080034140E+01  8.078103670E+00 -2.798337278E+01  3.106400305E+01  4.768371582E-07  0.00000E+00  9.000E+00
      21     1     1     2   511   513 -8.593099237E+00  1.756839708E+00 -1.041739662E+02  1.045425420E+02  0.000000000E+00  0.00000E+00  9.000E+00
      21     1     1     2   512   514 -2.207242166E+00 -9.834943378E+00  3.293851148E+01  3.444624171E+01  9.536743164E-07  0.00000E+00  9.000E+00
</event>
<event>
      5  10001  2.40292E+09  5.99768E+00 -1.00000E+00  2.25419E-01
      21    -1     0     0   516   511  0.000000000E+00  0.000000000E+00  7.420568689E+01  7.420568689E+01  0.000000000E+00  0.00000E+00  9.000E+00
      21    -1     0     0   517   514  0.000000000E+00  0.000000000E+00 -1.390312045E+01  1.390312045E+01  0.000000000E+00  0.00000E+00  9.000E+00
      21     1     1     2   516   514 -4.761787766E-01 -1.201217959E+01 -9.101191671E+00  1.507815952E+01  0.000000000E+00  0.00000E+00  9.000E+00
      21     1     1     2   517   513  1.141719225E+00  1.440243937E+01  6.902489186E+01  7.052070249E+01  1.651812370E-06  0.00000E+00  9.000E+00
      21     1     1     2   513   511 -6.655404479E-01 -2.390259785E+00  3.788662535E-01  2.509945331E+00  7.107400905E-08  0.00000E+00  9.000E+00
</event>
<event>
      5  10001  2.40292E+09  3.55487E+01 -1.00000E+00  1.48058E-01
      21    -1     0     0   512   513  0.000000000E+00  0.000000000E+00  4.062322855E+02  4.062322855E+02  0.000000000E+00  0.00000E+00  9.000E+00
      21    -1     0     0   511   512  0.000000000E+00  0.000000000E+00 -2.758201553E+01  2.758201553E+01  0.000000000E+00  0.00000E+00  9.000E+00
      21     1     1     2   515   513  1.774666337E+01  2.666434255E+01  3.928464119E+02  3.941500153E+02  0.000000000E+00  0.00000E+00  9.000E+00
      21     1     1     2   511   514 -1.061705146E+01 -2.529160497E+00 -3.040933400E-01  1.091837476E+01  2.510082800E-07  0.00000E+00  9.000E+00
      21     1     1     2   514   515 -7.129611904E+00 -2.413518206E+01 -1.389204864E+01  2.874591091E+01  1.079486029E-06  0.00000E+00  9.000E+00
</event>
<event>
      5  10001  2.40292E+09  3.91883E+00 -1.00000E+00  2.65476E-01
      21    -1     0     0   511   513  0.000000000E+00  0.000000000E+00  1.011560470E+00  1.011560470E+00  0.000000000E+00  0.00000E+00  9.000E+00
       1    -1     0     0   513     0  0.000000000E+00  0.000000000E+00 -2.044085107E+02  2.044085107E+02  0.000000000E+00  0.00000E+00  9.000E+00
      21     1     1     2   512   514 -5.830670265E+00 -8.121590827E+00 -9.151014764E+01  9.205467981E+01  0.000000000E+00  0.00000E+00  9.000E+00
       1     1     1     2   514     0  4.918317749E+00  1.167222838E+01 -5.867492417E+01  6.002738035E+01  3.300000131E-01  0.00000E+00  9.000E+00
      21     1     1     2   511   512  9.123525166E-01 -3.550637556E+00 -5.321187838E+01  5.333801097E+01  6.743495762E-07  0.00000E+00  9.000E+00
</event>
<event>
      5  10001  2.40292E+09  8.81366E+00 -1.00000E+00  2.02256E-01
      21    -1     0     0   515   514  0.000000000E+00  0.000000000E+00  1.938743829E+01  1.938743829E+01  0.000000000E+00  0.00000E+00  9.000E+00
      21    -1     0     0   513   512  0.000000000E+00  0.000000000E+00 -7.931865378E+01  7.931865378E+01  0.000000000E+00  0.00000E+00  9.000E+00
      21     1     1     2   515   512 -4.987360411E+00 -1.082449838E+01 -7.474976316E+01  7.569392724E+01  0.000000000E+00  0.00000E+00  9.000E+00
      21     1     1     2   513   516 -2.302868498E+00  6.794102931E+00  1.242109611E+01  1.434387209E+01  4.129530925E-07  0.00000E+00  9.000E+00
      21     1     1     2   516   514  7.290228909E+00  4.030395451E+00  2.397451565E+00  8.668292741E+00  2.457562462E-07  0.00000E+00  9.000E+00
</event>
<event>
      5  10001  2.40292E+09  7.28384E+00 -1.00000E+00  2.13073E-01
      21    -1     0     0   511   513  0.000000000E+00  0.000000000E+00  1.572714121E+00  1.572714121E+00  0.000000000E+00  0.00000E+00  9.000E+00
       1    -1     0     0   514     0  0.000000000E+00  0.000000000E+00 -7.467879943E+02  7.467879943E+02  0.000000000E+00  0.00000E+00  9.000E+00
      21     1     1     2   512   513  4.974766261E+00  2.903176992E+00 -9.643386405E+00  1.123261489E+01  9.156639275E-07  0.00000E+00  9.000E+00
       1     1     1     2   511     0 -1.351100072E+01 -1.067236881E+01 -6.865396851E+02  6.867556295E+02  3.300000131E-01  0.00000E+00  9.000E+00
      21     1     1     2   514   512  8.536234454E+00  7.769191820E+00 -4.903220871E+01  5.037246401E+01  1.507891493E-06  0.00000E+00  9.000E+00
</event>
<event>
      5  10001  2.40292E+09  5.06396E+00 -1.00000E+00  2.37468E-01
       2    -1     0     0   512     0  0.000000000E+00  0.000000000E+00  9.521258674E+02  9.521258674E+02  0.000000000E+00  0.00000E+00  9.000E+00
       4    -1     0     0   514     0  0.000000000E+00  0.000000000E+00 -2.384857688E+01  2.384857688E+01  0.000000000E+00  0.00000E+00  9.000E+00
      21     1     1     2   514   511 -2.633288962E+00 -5.392510675E+00  4.118947842E+02  4.119384986E+02  0.000000000E+00  0.00000E+00  9.000E+00
       4     1     1     2   512     0  7.879375603E+00  7.712082852E+00 -2.251149555E+01  2.511131645E+01  1.500000000E+00  0.00000E+00  9.000E+00
       2     1     1     2   511     0 -5.246086641E+00 -2.319572177E+00  5.388940019E+02  5.389246293E+02  3.300000131E-01  0.00000E+00  9.000E+00
</event>
<event>
      5  10001  2.40292E+09  5.63450E+00 -1.00000E+00  2.29715E-01
      21    -1     0     0   513   514  0.000000000E+00  0.000000000E+00  5.601761632E+00  5.601761632E+00  0.000000000E+00  0.00000E+00  9.000E+00
      21    -1     0     0   511   515  0.000000000E+00  0.000000000E+00 -2.616887467E+01  2.616887467E+01  0.000000000E+00  0.00000E+00  9.000E+00
      21     1     1     2   513   515  8.687828349E+00 -2.361427833E+00 -1.292565857E+01  1.575205867E+01  1.685873940E-07  0.00000E+00  9.000E+00
      21     1     1     2   512   514 -8.784069129E+00  4.721670640E+00 -2.382281964E+00  1.025325858E+01  1.397852826E-07  0.00000E+00  9.000E+00
      21     1     1     2   511   512  9.624078055E-02 -2.360242807E+00 -5.259172498E+00  5.765319051E+00  0.000000000E+00  0.00000E+00  9.000E+00
</event>
<event>
      5  10001  2.40292E+09  9.03447E+00 -1.00000E+00  2.00935E-01
      21    -1     0     0   513   514  0.000000000E+00  0.000000000E+00  5.777798039E+01  5.777798039E+01  0.000000000E+00  0.00000E+00  9.000E+00
       2    -1     0     0   514     0  0.000000000E+00  0.000000000E+00 -3.112327982E+02  3.112327982E+02  0.000000000E+00  0.00000E+00  9.000E+00
      21     1     1     2   512   511 -3.977446866E+00  1.254034404E+01  5.130042527E+01  5.296049420E+01  1.907348633E-06  0.00000E+00  9.000E+00
       2     1     1     2   511     0 -3.913401868E+00 -8.140802489E+00 -3.066799199E+02  3.068130857E+02  3.300000131E-01  0.00000E+00  9.000E+00
      21     1     1     2   513   512  7.890848734E+00 -4.399541551E+00  1.924676793E+00  9.237198729E+00  1.349357536E-07  0.00000E+00  9.000E+00
</event>
<event>
      5  10001  2.40292E+09  6.83273E+00 -1.00000E+00  2.16977E-01
      21    -1     0     0   515   516  0.000000000E+00  0.000000000E+00  6.074955161E+00  6.074955161E+00  0.000000000E+00  0.00000E+00  9.000E+00
      21    -1     0     0   514   515  0.000000000E+00  0.000000000E+00 -4.448988681E+02  4.448988681E+02  0.000000000E+00  0.00000E+00  9.000E+00
      21     1     1     2   514   512  1.248084536E+01  6.290157079E-01 -4.161724760E+02  4.163600569E+02  7.629394531E-06  0.00000E+00  9.000E+00
      21     1     1     2   512   511 -1.664129540E+01  4.791021463E+00 -9.398764124E+00  1.970338464E+01  1.535904256E-06  0.00000E+00  9.000E+00
      21     1     1     2   511   516  4.160450043E+00 -5.420037170E+00 -1.325267276E+01  1.491038171E+01  1.685873940E-07  0.00000E+00  9.000E+00
</event>
<event>
      5  10001  2.40292E+09  1.93048E+01 -1.00000E+00  1.67605E-01
       1    -1     0     0   512     0  0.000000000E+00  0.000000000E+00  3.479863712E+01  3.479863712E+01  0.000000000E+00  0.00000E+00  9.000E+00
      21    -1     0     0   511   513  0.000000000E+00  0.000000000E+00 -1.819592716E+01  1.819592716E+01  0.000000000E+00  0.00000E+00  9.000E+00
      21     1     1     2   512   513  1.116108390E+01 -1.200821998E+01  1.350723280E+01  2.124176261E+01  4.460403188E-07  0.00000E+00  9.000E+00
      21     1     1     2   511   514 -5.054916849E+00  1.306029141E+01 -1.003597274E+01  1.722916553E+01  1.192092896E-07  0.00000E+00  9.000E+00
       1     1     1     2   514     0 -6.106167049E+00 -1.052071422E+00  1.313144990E+01  1.452363614E+01  3.300000131E-01  0.00000E+00  9.000E+00
</event>
<event>
      5  10001  2.40292E+09  5.99348E+00 -1.00000E+00  2.25467E-01
      21    -1     0     0   515   514  0.000000000E+00  0.000000000E+00  5.569034820E+00  5.569034820E+00  0.000000000E+00  0.00000E+00  9.000E+00
      21    -1     0     0   516   515  0.000000000E+00  0.000000000E+00 -7.687347095E+01  7.687347095E+01  0.000000000E+00  0.00000E+00  9.000E+00
      21     1     1     2   511   514  1.819636995E+01  3.464082053E+00 -2.014359001E+01  2.736552507E+01  2.384185791E-07  0.00000E+00  9.000E+00
      21     1     1     2   512   511 -1.137398681E+01 -5.496483417E+00 -3.889598478E+01  4.089592324E+01  6.743495762E-07  0.00000E+00  9.000E+00
      21     1     1     2   516   512 -6.822383136E+00  2.032401364E+00 -1.226486134E+01  1.418105746E+01  3.371747881E-07  0.00000E+00  9.000E+00
</event>
<event>
      5  10001  2.40292E+09  1.37978E+01 -1.00000E+00  1.80822E-01
      21    -1     0     0   512   511  0.000000000E+00  0.000000000E+00  5.119539604E+01  5.119539604E+01  0.000000000E+00  0.00000E+00  9.000E+00
       1    -1     0     0   511     0  0.000000000E+00  0.000000000E+00 -1.291339901E+01  1.291339901E+01  0.000000000E+00  0.00000E+00  9.000E+00
      21     1     1     2   512   514 -1.369392225E-01  3.504967882E+00  2.792311439E+01  2.814256331E+01  4.768371582E-07  0.00000E+00  9.000E+00
       1     1     1     2   513     0 -7.287648629E+00 -1.393756637E+01 -4.489243520E+00  1.635933330E+01  3.300000131E-01  0.00000E+00  9.000E+00
      21     1     1     2   514   513  7.424587851E+00  1.043259848E+01  1.484812616E+01  1.960689843E+01  2.384185791E-07  0.00000E+00  9.000E+00
</event>
<event>
      5  10001  2.40292E+09  6.08430E+00 -1.00000E+00  2.24457E-01
      21    -1     0     0   515   513  0.000000000E+00  0.000000000E+00  2.044997597E+01  2.044997597E+01  0.000000000E+00  0.00000E+00  9.000E+00
      21    -1     0     0   511   516  0.000000000E+00  0.000000000E+00 -6.170656864E+00  6.170656864E+00  0.000000000E+00  0.00000E+00  9.000E+00
      21     1     1     2   515   516  9.477250138E+00  3.439195458E+00  3.905545769E+00  1.081201292E+01  2.149076030E-07  0.00000E+00  9.000E+00
      21     1     1     2   512   513 -4.530471143E+00 -1.234998775E+00  9.107672307E+00  1.024695494E+01  2.384185791E-07  0.00000E+00  9.000E+00
      21     1     1     2   511   512 -4.946778995E+00 -2.204196684E+00  1.266101029E+00  5.561664972E+00  1.299053116E-07  0.00000E+00  9.000E+00
</event>
<event>
      5  10001  2.40292E+09  1.17453E+01 -1.00000E+00  1.87959E-01
      21    -1     0     0   514   512  0.000000000E+00  0.000000000E+00  2.396186611E+01  2.396186611E+01  0.000000000E+00  0.00000E+00  9.000E+00
      -3    -1     0     0     0   517  0.000000000E+00  0.000000000E+00 -9.792619609E+01  9.792619609E+01  0.000000000E+00  0.00000E+00  9.000E+00
      21     1     1     2   514   517  1.333554388E+00  1.544948576E+01 -1.948109489E+01  2.489935814E+01  0.000000000E+00  0.00000E+00  9.000E+00
      21     1     1     2   511   512  6.485394647E+00 -6.685559434E+00  1.974695364E+01  2.183344285E+01  5.331201500E-07  0.00000E+00  9.000E+00
      -3     1     1     2     0   511 -7.818949035E+00 -8.763926326E+00 -7.423018873E+01  7.515526121E+01  5.000000000E-01  0.00000E+00  9.000E+00
</event>
<event>
      5  10001  2.40292E+09  6.17225E+00 -1.00000E+00  2.23502E-01
      -2    -1     0     0     0   513  0.000000000E+00  0.000000000E+00  2.575317046E+02  2.575317046E+02  0.000000000E+00  0.00000E+00  9.000E+00
      21    -1     0     0   512   511  0.000000000E+00  0.000000000E+00 -5.213610030E-01  5.213610030E-01  0.000000000E+00  0.00000E+00  9.000E+00
      -2     1     1     2     0   511 -8.584984684E+00 -5.009898613E+00  1.588782077E+02  1.591891794E+02  3.300000131E-01  0.00000E+00  9.000E+00
      21     1     1     2   512   514  3.201591037E+00  3.468765550E+00  2.078349038E+01  2.131281286E+01  5.331201500E-07  0.00000E+00  9.000E+00
      21     1     1     2   514   513  5.383393648E+00  1.541133064E+00  7.734864554E+01  7.755107339E+01  1.348699152E-06  0.00000E+00  9.000E+00
</event>
<event>
      5  10001  2.40292E+09  4.32026E+00 -1.00000E+00  2.55728E-01
      21    -1     0     0   515   511  0.000000000E+00  0.000000000E+00  1.302009770E+00  1.302009770E+00  0.000000000E+00  0.00000E+00  9.000E+00
       2    -1     0     0   516     0  0.000000000E+00  0.000000000E+00 -4.679844083E+02  4.679844083E+02  0.000000000E+00  0.00000E+00  9.000E+00
      21     1     1     2   515   513 -6.252012298E+00 -7.267825611E+00 -2.561518828E+01  2.735044456E+01  6.743495762E-07  0.00000E+00  9.000E+00
      21     1     1     2   516   511  6.004883976E+00  1.158075383E+01 -1.007296361E+02  1.015708229E+02  1.348699152E-06  0.00000E+00  9.000E+00
       2     1     1     2   513     0  2.471283221E-01 -4.312928217E+00 -3.403375742E+02  3.403651505E+02  3.300000131E-01  0.00000E+00  9.000E+00
</event>
<event>
      5  10001  2.40292E+09  7.22077E+00 -1.00000E+00  2.13595E-01
       2    -1     0     0   514     0  0.000000000E+00  0.000000000E+00  2.898221899E+02  2.898221899E+02  0.000000000E+00  0.00000E+00  9.000E+00
      -3    -1     0     0     0   514  0.000000000E+00  0.000000000E+00 -2.186534529E+01  2.186534529E+01  0.000000000E+00  0.00000E+00  9.000E+00
      21     1     1     2   513   512  1.352618759E+01 -1.003094552E+00  9.363707830E+01  9.461430326E+01  1.907348633E-06  0.00000E+00  9.000E+00
       2     1     1     2   512     0 -1.297303880E+01 -6.196341159E+00  1.948111052E+02  1.953411631E+02  3.300000131E-01  0.00000E+00  9.000E+00
      -3     1     1     2     0   513 -5.531487935E-01  7.199435711E+00 -2.049133888E+01  2.173206887E+01  5.000000000E-01  0.00000E+00  9.000E+00
</event>
<event>
      5  10001  2.40292E+09  2.31928E+01 -1.00000E+00  1.61192E-01
      21    -1     0     0   511   512  0.000000000E+00  0.000000000E+00  1.138460147E+03  1.138460147E+03  0.000000000E+00  0.00000E+00  9.000E+00
      21    -1     0     0   515   513  0.000000000E+00  0.000000000E+00 -2.544486865E+01  2.544486865E+01  0.000000000E+00  0.00000E+00  9.000E+00
      21     1     1     2   511   513  2.297841753E+01  8.936571692E+00 -1.854261515E+01  3.084961203E+01  2.929736549E-06  0.00000E+00  9.000E+00
       1     1     1     2   515     0 -2.001045632E+01  1.077133700E+01  9.708611141E+02  9.711271039E+02  3.300000131E-01  0.00000E+00  9.000E+00
      -1     1     1     2     0   512 -2.967961203E+00 -1.970790869E+01  1.606967791E+02  1.619282995E+02  3.300000131E-01  0.00000E+00  9.000E+00
</event>
<event>
      5  10001  2.40292E+09  5.99266E+00 -1.00000E+00  2.25476E-01
      21    -1     0     0   515   512  0.000000000E+00  0.000000000E+00  2.954946492E+01  2.954946492E+01  0.000000000E+00  0.00000E+00  9.000E+00
       2    -1     0     0   512     0  0.000000000E+00  0.000000000E+00 -7.007577761E+02  7.007577761E+02  0.000000000E+00  0.00000E+00  9.000E+00
      21     1     1     2   515   511 -6.320249983E+00 -2.582181502E+00  1.649456989E+01  1.785172420E+01  1.877309769E-06  0.00000E+00  9.000E+00
       2     1     1     2   514     0  9.656955077E+00  1.029540259E+01 -6.985729254E+02  6.987156025E+02  3.300000131E-01  0.00000E+00  9.000E+00
      21     1     1     2   511   514 -3.336705094E+00 -7.713221084E+00  1.087004440E+01  1.373991432E+01  1.455134823E-06  0.00000E+00  9.000E+00
</event>
<event>
      5  10001  2.40292E+09  4.57661E+00 -1.00000E+00  2.50313E-01
      21    -1     0     0   513   512  0.000000000E+00  0.000000000E+00  4.794744026E+01  4.794744026E+01  0.000000000E+00  0.00000E+00  9.000E+00
      -3    -1     0     0     0   513  0.000000000E+00  0.000000000E+00 -1.301085778E+01  1.301085778E+01  0.000000000E+00  0.00000E+00  9.000E+00
      -3     1     1     2     0   515  9.719371257E+00  4.933939112E-01 -1.007548254E+01  1.401695272E+01  5.000000000E-01  0.00000E+00  9.000E+00
      21     1     1     2   515   516 -5.095670051E+00 -1.464961764E+00  3.867557874E+01  3.903732005E+01  0.000000000E+00  0.00000E+00  9.000E+00
      21     1     1     2   516   512 -4.623701205E+00  9.715678532E-01  6.336486286E+00  7.904025265E+00  1.192092896E-07  0.00000E+00  9.000E+00
</event>
<event>
      5  10001  2.40292E+09  1.17830E+01 -1.00000E+00  1.87812E-01
      21    -1     0     0   511   512  0.000000000E+00  0.000000000E+00  2.239377737E+01  2.239377737E+01  0.000000000E+00  0.00000E+00  9.000E+00
       2    -1     0     0   513     0  0.000000000E+00  0.000000000E+00 -1.746206113E+02  1.746206113E+02  0.000000000E+00  0.00000E+00  9.000E+00
      21     1     1     2   514   512 -9.924519147E+00 -7.924939058E+00 -1.042713432E+02  1.050419618E+02  1.907348633E-06  0.00000E+00  9.000E+00
       2     1     1     2   511     0  1.046279823E+01 -3.845665054E+00  2.005588273E+01  2.294791098E+01  3.300000131E-01  0.00000E+00  9.000E+00
      21     1     1     2   513   514 -5.382790872E-01  1.177060411E+01 -6.801137347E+01  6.902451584E+01  0.000000000E+00  0.00000E+00  9.000E+00
</event>
<event>
      5  10001  2.40292E+09  9.79421E+00 -1.00000E+00  1.96748E-01
      21    -1     0     0   515   511  0.000000000E+00  0.000000000E+00  5.489221031E+01  5.489221031E+01  0.000000000E+00  0.00000E+00  9.000E+00
      21    -1     0     0   513   515  0.000000000E+00  0.000000000E+00 -2.574259590E+01  2.574259590E+01  0.000000000E+00  0.00000E+00  9.000E+00
      21     1     1     2   513   514 -1.841812010E+01  6.877794472E+00 -1.760780293E+01  2.639253548E+01  3.371747881E-07  0.00000E+00  9.000E+00
      21     1     1     2   514   512  9.698152156E+00 -2.418116801E+00  4.673585754E+00  1.103375946E+01  1.460009660E-07  0.00000E+00  9.000E+00
      21     1     1     2   512   511  8.719967946E+00 -4.459677671E+00  4.208383158E+01  4.320851127E+01  6.743495762E-07  0.00000E+00  9.000E+00
</event>
<event>
      5  10001  2.40292E+09  5.23250E+00 -1.00000E+00  2.35033E-01
      21    -1     0     0   513   512  0.000000000E+00  0.000000000E+00  4.560150118E+01  4.560150118E+01  0.000000000E+00  0.00000E+00  9.000E+00
      21    -1     0     0   511   516  0.000000000E+00  0.000000000E+00 -3.491469772E+01  3.491469772E+01  0.000000000E+00  0.00000E+00  9.000E+00
      21     1     1     2   517   512  9.028191670E+00 -1.060622125E+01  2.545121951E+01  2.901318232E+01  0.000000000E+00  0.00000E+00  9.000E+00
      21     1     1     2   511   517 -6.421281468E+00  6.069363906E+00 -3.215262188E+01  3.334458168E+01  6.743495762E-07  0.00000E+00  9.000E+00
      21     1     1     2   513   516 -2.606910202E+00  4.536857348E+00  1.738820584E+01  1.815843489E+01  0.000000000E+00  0.00000E+00  9.000E+00
</event>
<event>
      5  10001  2.40292E+09  1.46392E+01 -1.00000E+00  1.78337E-01
      21    -1     0     0   511   512  0.000000000E+00  0.000000000E+00  2.955810631E+01  2.955810631E+01  0.000000000E+00  0.00000E+00  9.000E+00
       4    -1     0     0   512     0  0.000000000E+00  0.000000000E+00 -4.020930334E+01  4.020930334E+01  0.000000000E+00  0.00000E+00  9.000E+00
      21     1     1     2   515   514 -4.612008175E+00 -3.544566020E+00  7.197071802E+00  9.253778158E+00  2.064765462E-07  0.00000E+00  9.000E+00
       4     1     1     2   514     0  2.032458846E+01 -1.731256911E+00 -3.249407971E+01  3.839532996E+01  1.500000000E+00  0.00000E+00  9.000E+00
      21     1     1     2   511   515 -1.571258029E+01  5.275822931E+00  1.464581087E+01  2.211830154E+01  5.331201500E-07  0.00000E+00  9.000E+00
</event>
<event>
      5  10001  2.40292E+09  2.88148E+00 -1.00000E+00  3.02138E-01
      21    -1     0     0   513   514  0.000000000E+00  0.000000000E+00  4.655374636E+01  4.655374636E+01  0.000000000E+00  0.00000E+00  9.000E+00
      21    -1     0     0   516   515  0.000000000E+00  0.000000000E+00 -2.646438862E+02  2.646438862E+02  0.000000000E+00  0.00000E+00  9.000E+00
      21     1     1     2   513   515  2.777077537E+00  1.236567777E+01  4.120286124E+01  4.310797978E+01  4.768371582E-07  0.00000E+00  9.000E+00
      21     1     1     2   512   514 -2.562018400E+00 -9.492239161E+00 -1.114283269E+00  9.894855723E+00  3.285021735E-07  0.00000E+00  9.000E+00
      21     1     1     2   516   512 -2.150591373E-01 -2.873438610E+00 -2.581787178E+02  2.581947970E+02  3.814697266E-06  0.00000E+00  9.000E+00
</event>
<event>
      5  10001  2.40292E+09  3.78624E+00 -1.00000E+00  2.69107E-01
      21    -1     0     0   512   514  0.000000000E+00  0.000000000E+00  9.025007604E+00  9.025007604E+00  0.000000000E+00  0.00000E+00  9.000E+00
      21    -1     0     0   511   512  0.000000000E+00  0.000000000E+00 -2.025598393E+01  2.025598393E+01  0.000000000E+00  0.00000E+00  9.000E+00
      -2     1     1     2     0   514  8.318555918E-01 -1.207600003E+01 -2.501602051E-01  1.211169850E+01  3.300000131E-01  0.00000E+00  9.000E+00
       2     1     1     2   513     0 -4.435592122E-01  9.162318206E+00 -4.876084983E+00  1.039374449E+01  3.300000131E-01  0.00000E+00  9.000E+00
      21     1     1     2   511   513 -3.882963797E-01  2.913681823E+00 -6.104731137E+00  6.775548546E+00  1.884864366E-07  0.00000E+00  9.000E+00
</event>
<event>
      5  10001  2.40292E+09  1.03246E+01 -1.00000E+00  1.94110E-01
      21    -1     0     0   512   513  0.000000000E+00  0.000000000E+00  9.236387912E+01  9.236387912E+01  0.000000000E+00  0.00000E+00  9.000E+00
      21    -1     0     0   511   515  0.000000000E+00  0.000000000E+00 -3.511570673E+01  3.511570673E+01  0.000000000E+00  0.00000E+00  9.000E+00
      21     1     1     2   511   516 -9.749446419E-02 -1.641902825E+01 -3.104845484E+01  3.512264998E+01  6.743495762E-07  0.00000E+00  9.000E+00
      21     1     1     2   516   513 -6.130281098E+00  8.184254904E+00  7.410424063E+01  7.480642255E+01  9.536743164E-07  0.00000E+00  9.000E+00
      21     1     1     2   512   515  6.227775562E+00  8.234773350E+00  1.419238660E+01  1.755051332E+01  2.384185791E-07  0.00000E+00  9.000E+00
</event>
<event>
      5  10001  2.40292E+09  1.48452E+01 -1.00000E+00  1.77761E-01
      -1    -1     0     0     0   511  0.000000000E+00  0.000000000E+00  1.303385825E+02  1.303385825E+02  0.000000000E+00  0.00000E+00  9.000E+00
       1    -1     0     0   511     0  0.000000000E+00  0.000000000E+00 -1.102526943E+02  1.102526943E+02  0.000000000E+00  0.00000E+00  9.000E+00
      -1     1     1     2     0   513  1.786315447E+01  8.672969872E+00  1.217889694E+02  1.233976282E+02  3.300000131E-01  0.00000E+00  9.000E+00
       1     1     1     2   512     0 -1.409618951E+01 -1.897452951E+01 -1.034235217E+02  1.060908529E+02  3.300000131E-01  0.00000E+00  9.000E+00
      21     1     1     2   513   512 -3.766964962E+00  1.030155964E+01  1.720440587E+00  1.110279568E+01  2.179851955E-07  0.00000E+00  9.000E+00
</event>
<event>
      5  10001  2.40292E+09  6.11793E+00 -1.00000E+00  2.24089E-01
      21    -1     0     0   515   516  0.000000000E+00  0.000000000E+00  2.805941661E+01  2.805941661E+01  0.000000000E+00  0.00000E+00  9.000E+00
      -3    -1     0     0     0   514  0.000000000E+00  0.000000000E+00 -7.821704467E+01  7.821704467E+01  0.000000000E+00  0.00000E+00  9.000E+00
      -3     1     1     2     0   511 -4.426830194E+00  1.181387141E+01 -7.296597557E+01  7.405030705E+01  5.000000000E-01  0.00000E+00  9.000E+00
      21     1     1     2   515   514  1.051085533E+01 -1.117235646E+01  1.083440029E+01  1.877987908E+01  8.429369702E-07  0.00000E+00  9.000E+00
      21     1     1     2   511   516 -6.084025131E+00 -6.415149550E-01  1.197394722E+01  1.344627515E+01  1.685873940E-07  0.00000E+00  9.000E+00
</event>
<event>
      5  10001  2.40292E+09  2.06656E+01 -1.00000E+00  1.65163E-01
      21    -1     0     0   512   511  0.000000000E+00  0.000000000E+00  2.452102170E+02  2.452102170E+02  0.000000000E+00  0.00000E+00  9.000E+00
      21    -1     0     0   513   512  0.000000000E+00  0.000000000E+00 -1.091028443E+00  1.091028443E+00  0.000000000E+00  0.00000E+00  9.000E+00
      21     1     1     2   513   516  6.135111225E+00  6.493645084E+00  2.951027414E+01  3.083282822E+01  7.539457465E-07  0.00000E+00  9.000E+00
      21     1     1     2   516   514 -8.081440675E+00  2.196084568E+00  5.742246525E+01  5.802992319E+01  6.743495762E-07  0.00000E+00  9.000E+00
      21     1     1     2   514   511  1.946329449E+00 -8.689729652E+00  1.571864492E+02  1.574384940E+02  1.907348633E-06  0.00000E+00  9.000E+00
</event>
<event>
      5  10001  2.40292E+09  1.75212E+01 -1.00000E+00  1.71210E-01
      21    -1     0     0   515   516  0.000000000E+00  0.000000000E+00  2.366197025E+02  2.366197025E+02  0.000000000E+00  0.00000E+00  9.000E+00
      21    -1     0     0   511   515  0.000000000E+00  0.000000000E+00 -2.201504498E+01  2.201504498E+01  0.000000000E+00  0.00000E+00  9.000E+00
      21     1     1     2   511   513 -3.930316286E+01  1.522105314E+01  6.116378618E+00  4.258907321E+01  1.353957259E-06  0.00000E+00  9.000E+00
      21     1     1     2   513   512  4.042154946E+01 -2.448369601E+01  1.704713880E+02  1.769006703E+02  2.697398305E-06  0.00000E+00  9.000E+00
      21     1     1     2   512   516 -1.118386605E+00  9.262642874E+00  3.801689089E+01  3.914500395E+01  4.768371582E-07  0.00000E+00  9.000E+00
</event>
<event>
      5  10001  2.40292E+09  7.63122E+00 -1.00000E+00  2.10319E-01
       2    -1     0     0   513     0  0.000000000E+00  0.000000000E+00  5.070485859E+01  5.070485859E+01  0.000000000E+00  0.00000E+00  9.000E+00
       2    -1     0     0   512     0  0.000000000E+00  0.000000000E+00 -1.576898716E+03  1.576898716E+03  0.000000000E+00  0.00000E+00  9.000E+00
      21     1     1     2   513   514  1.164691176E+01 -6.024098099E+00 -1.798578261E+02  1.803351821E+02  1.907348633E-06  0.00000E+00  9.000E+00
       2     1     1     2   512     0 -1.087475073E+01 -1.567947312E+00  4.985705258E+01  5.105441464E+01  3.300000131E-01  0.00000E+00  9.000E+00
       2     1     1     2   514     0 -7.721610234E-01  7.592045412E+00 -1.396193084E+03  1.396213978E+03  3.300000131E-01  0.00000E+00  9.000E+00
</event>
<event>
      5  10001  2.40292E+09  5.47535E+00 -1.00000E+00  2.31743E-01
      21    -1     0     0   511   516  0.000000000E+00  0.000000000E+00  4.048196030E+00  4.048196030E+00  0.000000000E+00  0.00000E+00  9.000E+00
      21    -1     0     0   515   511  0.000000000E+00  0.000000000E+00 -5.278883012E+01  5.278883012E+01  0.000000000E+00  0.00000E+00  9.000E+00
      21     1     1     2   512   516  1.848790076E+00  9.826592959E+00 -4.081406859E+00  1.079989981E+01  2.384185791E-07  0.00000E+00  9.000E+00
      -1     1     1     2     0   512 -3.007984318E+00 -4.953078813E+00 -1.811016807E+01  1.901757206E+01  3.300000131E-01  0.00000E+00  9.000E+00
       1     1     1     2   515     0  1.159194242E+00 -4.873514146E+00 -2.654905916E+01  2.701955428E+01  3.300000131E-01  0.00000E+00  9.000E+00
</event>
<event>
      5  10001  2.40292E+09  1.78087E+01 -1.00000E+00  1.70594E-01
      21    -1     0     0   513   511  0.000000000E+00  0.000000000E+00  1.309831274E+00  1.309831274E+00  0.000000000E+00  0.00000E+00  9.000E+00
       2    -1     0     0   515     0  0.000000000E+00  0.000000000E+00 -7.642300431E+02  7.642300431E+02  0.000000000E+00  0.00000E+00  9.000E+00
      21     1     1     2   515   514  5.938984940E+00 -1.619378969E+01 -1.383061777E+02  1.393775777E+02  3.303624740E-06  0.00000E+00  9.000E+00
       2     1     1     2   513     0  1.163803659E+01  1.905349805E+01 -4.692556615E+02  4.697866158E+02  3.300000131E-01  0.00000E+00  9.000E+00
      21     1     1     2   514   511 -1.757702153E+01 -2.859708358E+00 -1.553583726E+02  1.563756809E+02  0.000000000E+00  0.00000E+00  9.000E+00
</event>
<event>
      5  10001  2.40292E+09  8.25046E+00 -1.00000E+00  2.05870E-01
      21    -1     0     0   515   513  0.000000000E+00  0.000000000E+00  9.410856729E+00  9.410856729E+00  0.000000000E+00  0.00000E+00  9.000E+00
      -2    -1     0     0     0   512  0.000000000E+00  0.000000000E+00 -7.231799743E+02  7.231799743E+02  0.000000000E+00  0.00000E+00  9.000E+00
      -2     1     1     2     0   511 -6.543843907E+00 -1.330677809E+01 -6.688392989E+02  6.690037436E+02  3.300000131E-01  0.00000E+00  9.000E+00
      21     1     1     2   515   512  2.110347922E+00  2.026477301E+01 -4.993882841E+01  5.393515715E+01  2.861022949E-06  0.00000E+00  9.000E+00
      21     1     1     2   511   513  4.433495984E+00 -6.957994917E+00  5.009009759E+00  9.651930308E+00  7.177349674E-07  0.00000E+00  9.000E+00
</event>
<event>
      5  10001  2.40292E+09  1.69043E+01 -1.00000E+00  1.72584E-01
      21    -1     0     0   511   513  0.000000000E+00  0.000000000E+00  3.579262064E+00  3.579262064E+00  0.000000000E+00  0.00000E+00  9.000E+00
       1    -1     0     0   513     0  0.000000000E+00  0.000000000E+00 -1.319368789E+02  1.319368789E+02  0.000000000E+00  0.00000E+00  9.000E+00
      21     1     1     2   511   514  2.597948820E+00  9.104790864E+00 -5.025909327E+00  1.071943652E+01  4.539354507E-07  0.00000E+00  9.000E+00
      21     1     1     2   514   512 -9.051169995E+00 -6.006220090E+00 -5.305835132E+01  5.415890511E+01  9.536743164E-07  0.00000E+00  9.000E+00
       1     1     1     2   512     0  6.453221175E+00 -3.098570774E+00 -7.027335623E+01  7.063779938E+01  3.300000131E-01  0.00000E+00  9.000E+00
</event>
<event>
      5  10001  2.40292E+09  7.44481E+00 -1.00000E+00  2.11771E-01
      21    -1     0     0   515   512  0.000000000E+00  0.000000000E+00  1.493705320E+01  1.493705320E+01  0.000000000E+00  0.00000E+00  9.000E+00
      21    -1     0     0   513   515  0.000000000E+00  0.000000000E+00 -2.417713283E+01  2.417713283E+01  0.000000000E+00  0.00000E+00  9.000E+00
      21     1     1     2   516   512  6.006786930E+00 -1.048627901E+01  9.603201812E+00  1.543583563E+01  3.153981341E-07  0.00000E+00  9.000E+00
      21     1     1     2   513   511 -1.604944213E+00  8.564724144E+00 -8.043358074E+00  1.185858148E+01  2.064765462E-07  0.00000E+00  9.000E+00
      21     1     1     2   511   516 -4.401842717E+00  1.921554861E+00 -1.079992338E+01  1.181976892E+01  2.064765462E-07  0.00000E+00  9.000E+00
</event>
<event>
      5  10001  2.40292E+09  8.33205E+00 -1.00000E+00  2.05323E-01
      21    -1     0     0   511   513  0.000000000E+00  0.000000000E+00  4.299676643E+00  4.299676643E+00  0.000000000E+00  0.00000E+00  9.000E+00
      -2    -1     0     0     0   514  0.000000000E+00  0.000000000E+00 -7.386322508E+01  7.386322508E+01  0.000000000E+00  0.00000E+00  9.000E+00
      21     1     1     2   512   513  1.940343541E+00 -3.125409967E+00 -7.036252334E-01  3.745425075E+00  1.504943511E-07  0.00000E+00  9.000E+00
      21     1     1     2   511   514 -1.028275687E+01  2.045572884E+00 -6.367077092E+01  6.452818397E+01  1.168007728E-06  0.00000E+00  9.000E+00
      -2     1     1     2     0   512  8.342413326E+00  1.079837083E+00 -5.189152285E+00  9.889292678E+00  3.300000131E-01  0.00000E+00  9.000E+00
</event>
<event>
      5  10001  2.40292E+09  4.83275E+00 -1.00000E+00  2.45414E-01
      21    -1     0     0   511   516  0.000000000E+00  0.000000000E+00  5.427339787E+02  5.427339787E+02  0.000000000E+00  0.00000E+00  9.000E+00
      21    -1     0     0   513   512  0.000000000E+00  0.000000000E+00 -1.259507055E+02  1.259507055E+02  0.000000000E+00  0.00000E+00  9.000E+00
      21     1     1     2   515   512 -1.045906627E+00 -1.069357860E+01 -1.249905865E+02  1.254515574E+02  3.015782986E-06  0.00000E+00  9.000E+00
      21     1     1     2   513   516  3.850530700E+00  1.462926131E+01  5.330137608E+02  5.332283855E+02  7.629394531E-06  0.00000E+00  9.000E+00
      21     1     1     2   511   515 -2.804624073E+00 -3.935682707E+00  8.760098903E+00  1.000474124E+01  2.064765462E-07  0.00000E+00  9.000E+00
</event>
<event>
      5  10001  2.40292E+09  4.45182E+00 -1.00000E+00  2.52880E-01
      21    -1     0     0   514   512  0.000000000E+00  0.000000000E+00  1.250318807E+01  1.250318807E+01  0.000000000E+00  0.00000E+00  9.000E+00
      21    -1     0     0   513   514  0.000000000E+00  0.000000000E+00 -4.639879689E+01  4.639879689E+01  0.000000000E+00  0.00000E+00  9.000E+00
      21     1     1     2   517   515  6.224786485E+00 -1.100333323E+01 -9.755070765E+00  1.596817818E+01  3.371747881E-07  0.00000E+00  9.000E+00
      21     1     1     2   515   512 -3.895300271E+00  7.209631558E+00  7.423634533E+00  1.105723750E+01  1.884864366E-07  0.00000E+00  9.000E+00
      21     1     1     2   513   517 -2.329486213E+00  3.793701670E+00 -3.156417259E+01  3.187656929E+01  3.371747881E-07  0.00000E+00  9.000E+00
</event>
<event>
      5  10001  2.40292E+09  3.78227E+00 -1.00000E+00  2.69219E-01
      21    -1     0     0   514   512  0.000000000E+00  0.000000000E+00  3.545758726E+00  3.545758726E+00  0.000000000E+00  0.00000E+00  9.000E+00
       3    -1     0     0   512     0  0.000000000E+00  0.000000000E+00 -6.063202580E+02  6.063202580E+02  0.000000000E+00  0.00000E+00  9.000E+00
      21     1     1     2   513   511  1.032575409E+01  7.363977267E+00 -2.956543607E+02  2.959262583E+02  3.814697266E-06  0.00000E+00  9.000E+00
       3     1     1     2   511     0 -6.568239663E+00 -7.794165848E+00 -3.093705481E+02  3.095388131E+02  5.000000000E-01  0.00000E+00  9.000E+00
      21     1     1     2   514   513 -3.757514425E+00  4.301885810E-01  2.250409496E+00  4.400945326E+00  2.965293637E-07  0.00000E+00  9.000E+00
</event>
<event>
      5  10001  2.40292E+09  3.96563E+00 -1.00000E+00  2.64247E-01
       2    -1     0     0   511     0  0.000000000E+00  0.000000000E+00  4.392384818E+01  4.392384818E+01  0.000000000E+00  0.00000E+00  9.000E+00
      21    -1     0     0   514   515  0.000000000E+00  0.000000000E+00 -2.508651335E+00  2.508651335E+00  0.000000000E+00  0.00000E+00  9.000E+00
      21     1     1     2   512   515 -4.588430775E+00 -5.403548296E+00  1.095940442E+01  1.305222496E+01  2.920019320E-07  0.00000E+00  9.000E+00
       2     1     1     2   514     0  6.771223697E+00  6.956822542E+00  1.631351782E+01  1.898648504E+01  3.300000131E-01  0.00000E+00  9.000E+00
      21     1     1     2   511   512 -2.182792922E+00 -1.553274246E+00  1.414227460E+01  1.439378952E+01  1.685873940E-07  0.00000E+00  9.000E+00
</event>
<event>
      5  10001  2.40292E+09  2.65940E+00 -1.00000E+00  3.13553E-01
      21    -1     0     0   512   513  0.000000000E+00  0.000000000E+00  1.249498955E+02  1.249498955E+02  0.000000000E+00  0.00000E+00  9.000E+00
      -4    -1     0     0     0   512  0.000000000E+00  0.000000000E+00 -2.964448279E+00  2.964448279E+00  0.000000000E+00  0.00000E+00  9.000E+00
      -4     1     1     2     0   514  7.719819615E+00  2.426053718E+00  4.005158685E+00  9.152739898E+00  1.500000000E+00  0.00000E+00  9.000E+00
      21     1     1     2   511   513 -8.478787588E+00 -4.561575431E+00  1.111267800E+02  1.115430815E+02  1.907348633E-06  0.00000E+00  9.000E+00
      21     1     1     2   514   511  7.589679727E-01  2.135521713E+00  6.853508565E+00  7.218522357E+00  8.429369702E-08  0.00000E+00  9.000E+00
</event>
<event>
      5  10001  2.40292E+09  7.37971E+00 -1.00000E+00  2.12292E-01
       2    -1     0     0   512     0  0.000000000E+00  0.000000000E+00  9.777651442E+02  9.777651442E+02  0.000000000E+00  0.00000E+00  9.000E+00
       2    -1     0     0   511     0  0.000000000E+00  0.000000000E+00 -2.359798143E+02  2.359798143E+02  0.000000000E+00  0.00000E+00  9.000E+00
      21     1     1     2   511   515  3.323978829E+00  1.042217547E+01 -1.255498057E+02  1.260254907E+02  6.180515955E-06  0.00000E+00  9.000E+00
       2     1     1     2   515     0 -1.039319475E+01 -8.304101854E+00  9.773581518E+02  9.774487416E+02  3.300000131E-01  0.00000E+00  9.000E+00
       2     1     1     2   512     0  7.069215922E+00 -2.118073616E+00 -1.100230162E+02  1.102707262E+02  3.300000131E-01  0.00000E+00  9.000E+00
</event>
<event>
      5  10001  2.40292E+09  7.28525E+00 -1.00000E+00  2.13061E-01
      -1    -1     0     0     0   513  0.000000000E+00  0.000000000E+00  1.017778846E+02  1.017778846E+02  0.000000000E+00  0.00000E+00  9.000E+00
      21    -1     0     0   512   511  0.000000000E+00  0.000000000E+00 -6.017520344E+00  6.017520344E+00  0.000000000E+00  0.00000E+00  9.000E+00
      -1     1     1     2     0   514 -1.497409206E+01  6.259474543E+00  6.255070798E+01  6.462278563E+01  3.300000131E-01  0.00000E+00  9.000E+00
      21     1     1     2   512   513  8.767040865E+00 -2.446143056E+00  3.458190635E+01  3.575965419E+01  6.743495762E-07  0.00000E+00  9.000E+00
      21     1     1     2   514   511  6.207051194E+00 -3.813331487E+00 -1.372250071E+00  7.412965116E+00  1.618680431E-07  0.00000E+00  9.000E+00
</event>
<event>
      5  10001  2.40292E+09  1.14211E+01 -1.00000E+00  1.89260E-01
      21    -1     0     0   515   512  0.000000000E+00  0.000000000E+00  1.363578234E+02  1.363578234E+02  0.000000000E+00  0.00000E+00  9.000E+00
      21    -1     0     0   516   515  0.000000000E+00  0.000000000E+00 -3.102763449E+01  3.102763449E+01  0.000000000E+00  0.00000E+00  9.000E+00
      21     1     1     2   516   511 -1.345949711E+00 -2.258897525E+01 -2.555657101E+01  3.413519746E+01  1.430511475E-06  0.00000E+00  9.000E+00
      -3     1     1     2     0   512  4.087325327E+00  1.404498684E+01  5.829334932E+01  6.010268262E+01  5.000000000E-01  0.00000E+00  9.000E+00
       3     1     1     2   511     0 -2.741375616E+00  8.543988418E+00  7.259341056E+01  7.314757778E+01  5.000000000E-01  0.00000E+00  9.000E+00
</event>
<event>
      5  10001  2.40292E+09  8.93130E+00 -1.00000E+00  2.01546E-01
      21    -1     0     0   513   516  0.000000000E+00  0.000000000E+00  4.550013567E+00  4.550013567E+00  0.000000000E+00  0.00000E+00  9.000E+00
      21    -1     0     0   511   514  0.000000000E+00  0.000000000E+00 -7.902590455E+01  7.902590455E+01  0.000000000E+00  0.00000E+00  9.000E+00
      21     1     1     2   513   514 -2.229047746E+00  9.359611546E+00 -2.452578626E+00  9.929054540E+00  2.190014490E-07  0.00000E+00  9.000E+00
       5     1     1     2   511     0  3.212127659E+00 -5.704001604E+00 -2.651326176E+01  2.772808052E+01  4.800000191E+00  0.00000E+00  9.000E+00
      -5     1     1     2     0   516 -9.830799130E-01 -3.655609942E+00 -4.551005060E+01  4.591878306E+01  4.800000191E+00  0.00000E+00  9.000E+00
</event>
<event>
      5  10001  2.40292E+09  1.36819E+01 -1.00000E+00  1.81181E-01
      21    -1     0     0   512   516  0.000000000E+00  0.000000000E+00  1.539778454E+02  1.539778454E+02  0.000000000E+00  0.00000E+00  9.000E+00
      21    -1     0     0   515   512  0.000000000E+00  0.000000000E+00 -1.052042656E+01  1.052042656E+01  0.000000000E+00  0.00000E+00  9.000E+00
      21     1     1     2   511   516  4.461436300E+00 -9.004580807E+00  1.420425848E+02  1.423976222E+02  1.907348633E-06  0.00000E+00  9.000E+00
      21     1     1     2   513   511 -3.527765492E+00  1.524176378E+01  1.976297683E+00  1.576902803E+01  6.381455989E-07  0.00000E+00  9.000E+00
      21     1     1     2   515   513 -9.336708076E-01 -6.237182971E+00 -5.614636984E-01  6.331621757E+00  3.113237383E-07  0.00000E+00  9.000E+00
</event>
<event>
      5  10001  2.40292E+09  6.37049E+00 -1.00000E+00  2.21430E-01
      21    -1     0     0   514   513  0.000000000E+00  0.000000000E+00  7.867668887E+00  7.867668887E+00  0.000000000E+00  0.00000E+00  9.000E+00
       2    -1     0     0   515     0  0.000000000E+00  0.000000000E+00 -1.007987031E+02  1.007987031E+02  0.000000000E+00  0.00000E+00  9.000E+00
      21     1     1     2   515   513 -4.503037051E+00 -8.356737253E+00  4.054065962E+00  1.032220185E+01  2.384185791E-07  0.00000E+00  9.000E+00
       2     1     1     2   511     0 -3.521026121E-01  9.309838691E+00 -8.275510473E+01  8.327852864E+01  3.300000131E-01  0.00000E+00  9.000E+00
      21     1     1     2   514   511  4.855139663E+00 -9.531014387E-01 -1.422999545E+01  1.506564151E+01  2.920019320E-07  0.00000E+00  9.000E+00
</event>
<event>
      5  10001  2.40292E+09  6.12995E+00 -1.00000E+00  2.23959E-01
      21    -1     0     0   512   515  0.000000000E+00  0.000000000E+00  4.728214805E+02  4.728214805E+02  0.000000000E+00  0.00000E+00  9.000E+00
      21    -1     0     0   516   512  0.000000000E+00  0.000000000E+00 -2.262711884E-01  2.262711884E-01  0.000000000E+00  0.00000E+00  9.000E+00
      21     1     1     2   511   515 -2.768569083E+00  8.027228087E+00  1.979032606E+02  1.980853400E+02  0.000000000E+00  0.00000E+00  9.000E+00
      21     1     1     2   513   511  4.252424062E+00 -6.118205840E+00  1.096977311E+02  1.099504787E+02  2.336015456E-06  0.00000E+00  9.000E+00
      21     1     1     2   516   513 -1.483854979E+00 -1.909022248E+00  1.649942177E+02  1.650119331E+02  1.907348633E-06  0.00000E+00  9.000E+00
</event>
<event>
      5  10001  2.40292E+09  7.81285E+00 -1.00000E+00  2.08957E-01
      21    -1     0     0   514   511  0.000000000E+00  0.000000000E+00  1.146482652E+02  1.146482652E+02  0.000000000E+00  0.00000E+00  9.000E+00
      21    -1     0     0   516   514  0.000000000E+00  0.000000000E+00 -8.455792894E+00  8.455792894E+00  0.000000000E+00  0.00000E+00  9.000E+00
      21     1     1     2   513   511 -7.396703880E+00  1.126026333E+01  1.025554312E+02  1.034365565E+02  1.348699152E-06  0.00000E+00  9.000E+00
      21     1     1     2   512   513  2.082246576E+00 -5.943548693E+00 -5.127206256E+00  8.120946118E+00  5.654593098E-07  0.00000E+00  9.000E+00
      21     1     1     2   516   512  5.314457304E+00 -5.316714633E+00  8.764247381E+00  1.154655546E+01  1.192092896E-07  0.00000E+00  9.000E+00
</event>
<event>
      5  10001  2.40292E+09  5.50529E+00 -1.00000E+00  2.31354E-01
       3    -1     0     0   514     0  0.000000000E+00  0.000000000E+00  1.036682673E+02  1.036682673E+02  0.000000000E+00  0.00000E+00  9.000E+00
      21    -1     0     0   515   512  0.000000000E+00  0.000000000E+00 -2.305669068E+00  2.305669068E+00  0.000000000E+00  0.00000E+00  9.000E+00
      21     1     1     2   514   512  1.201720943E+01  3.869891298E-01  1.821047935E+01  2.182165533E+01  3.371747881E-07  0.00000E+00  9.000E+00
       3     1     1     2   511     0 -3.651199694E+00 -9.378364351E-01  4.089707142E+01  4.107348594E+01  5.000000000E-01  0.00000E+00  9.000E+00
      21     1     1     2   515   511 -8.366009732E+00  5.508473054E-01  4.225504743E+01  4.307879508E+01  0.000000000E+00  0.00000E+00  9.000E+00
</event>
<event>
      5  10001  2.40292E+09  1.19304E+01 -1.00000E+00  1.87241E-01
      21    -1     0     0   513   511  0.000000000E+00  0.000000000E+00  1.827932771E+01  1.827932771E+01  0.000000000E+00  0.00000E+00  9.000E+00
       1    -1     0     0   515     0  0.000000000E+00  0.000000000E+00 -5.842396331E+02  5.842396331E+02  0.000000000E+00  0.00000E+00  9.000E+00
      21     1     1     2   512   511  9.883849263E+00 -1.700129345E+00  1.411697127E+01  1.731674894E+01  2.372234910E-06  0.00000E+00  9.000E+00
       1     1     1     2   513     0 -9.030390218E+00  1.279476943E+01 -5.699225017E+02  5.701377210E+02  3.300000131E-01  0.00000E+00  9.000E+00
      21     1     1     2   515   512 -8.534590453E-01 -1.109464008E+01 -1.015477499E+01  1.506449090E+01  2.665600750E-07  0.00000E+00  9.000E+00
</event>
<event>
      5  10001  2.40292E+09  1.45040E+01 -1.00000E+00  1.78722E-01
      21    -1     0     0   514   515  0.000000000E+00  0.000000000E+00  4.886993841E+01  4.886993841E+01  0.000000000E+00  0.00000E+00  9.000E+00
      21    -1     0     0   511   512  0.000000000E+00  0.000000000E+00 -2.645337912E+02  2.645337912E+02  0.000000000E+00  0.00000E+00  9.000E+00
      21     1     1     2   514   512  1.816286989E+01  9.584123271E+00  4.604584754E+01  5.041790691E+01  6.743495762E-07  0.00000E+00  9.000E+00
      21     1     1     2   511   513 -1.546200550E+01  2.591107810E-01 -1.410576454E+02  1.419027839E+02  0.000000000E+00  0.00000E+00  9.000E+00
      21     1     1     2   513   515 -2.700864384E+00 -9.843234052E+00 -1.206520550E+02  1.210830388E+02  1.348699152E-06  0.00000E+00  9.000E+00
</event>
<event>
      5  10001  2.40292E+09  5.24532E+00 -1.00000E+00  2.34853E-01
      21    -1     0     0   516   513  0.000000000E+00  0.000000000E+00  2.914454330E+02  2.914454330E+02  0.000000000E+00  0.00000E+00  9.000E+00
       2    -1     0     0   515     0  0.000000000E+00  0.000000000E+00 -3.906148008E+02  3.906148008E+02  0.000000000E+00  0.00000E+00  9.000E+00
      21     1     1     2   511   513  1.115440672E+01 -5.509631751E+00  2.903939592E+02  2.906603316E+02  5.394796609E-06  0.00000E+00  9.000E+00
      21     1     1     2   515   511 -1.082720936E+01  2.745277648E-01 -3.172198373E+01  3.351996539E+01  1.168007728E-06  0.00000E+00  9.000E+00
       2     1     1     2   516     0 -3.271973565E-01  5.235103987E+00 -3.578413433E+02  3.578799369E+02  3.300000131E-01  0.00000E+00  9.000E+00
</event>
<event>
      5  10001  2.40292E+09  1.65027E+01 -1.00000E+00  1.73519E-01
      21    -1     0     0   512   515  0.000000000E+00  0.000000000E+00  4.043170309E+01  4.043170309E+01  0.000000000E+00  0.00000E+00  9.000E+00
      21    -1     0     0   513   514  0.000000000E+00  0.000000000E+00 -3.651375012E+01  3.651375012E+01  0.000000000E+00  0.00000E+00  9.000E+00
      21     1     1     2   512   514 -3.618437934E+00 -1.238549937E+01  3.456526195E+01  3.689513547E+01  8.259061849E-07  0.00000E+00  9.000E+00
      21     1     1     2   511   515 -7.069541424E+00  5.354754969E+00 -2.409818652E+01  2.567828675E+01  4.768371582E-07  0.00000E+00  9.000E+00
      21     1     1     2   513   511  1.068797936E+01  7.030744402E+00 -6.549122461E+00  1.437203098E+01  3.576278687E-07  0.00000E+00  9.000E+00
</event>
<event>
      5  10001  2.40292E+09  4.71622E+00 -1.00000E+00  2.47585E-01
      21    -1     0     0   516   515  0.000000000E+00  0.000000000E+00  7.632178079E-01  7.632178079E-01  0.000000000E+00  0.00000E+00  9.000E+00
      21    -1     0     0   512   516  0.000000000E+00  0.000000000E+00 -2.385756933E+02  2.385756933E+02  0.000000000E+00  0.00000E+00  9.000E+00
      21     1     1     2   511   515  9.536453752E+00  2.493698898E+00 -7.991862687E+01  8.052421627E+01  1.651812370E-06  0.00000E+00  9.000E+00
      21     1     1     2   513   511 -9.480347219E+00 -7.209583542E+00 -9.488520190E+01  9.562978939E+01  2.336015456E-06  0.00000E+00  9.000E+00
      21     1     1     2   512   513 -5.610653256E-02  4.715884644E+00 -6.300864668E+01  6.318490541E+01  6.743495762E-07  0.00000E+00  9.000E+00
</event>
<event>
      5  10001  2.40292E+09  9.03174E+00 -1.00000E+00  2.00951E-01
      21    -1     0     0   512   513  0.000000000E+00  0.000000000E+00  4.403700148E+01  4.403700148E+01  0.000000000E+00  0.00000E+00  9.000E+00
       1    -1     0     0   511     0  0.000000000E+00  0.000000000E+00 -1.619730456E+02  1.619730456E+02  0.000000000E+00  0.00000E+00  9.000E+00
      21     1     1     2   514   513  6.199886069E+00  1.306959156E+01  4.147391413E+01  4.392423436E+01  8.259061849E-07  0.00000E+00  9.000E+00
       1     1     1     2   512     0 -1.522648308E+01 -1.337289238E+01 -1.067751111E+02  1.086817063E+02  3.300000131E-01  0.00000E+00  9.000E+00
      21     1     1     2   511   514  9.026597008E+00  3.033008206E-01 -5.263484720E+01  5.340410644E+01  9.536743164E-07  0.00000E+00  9.000E+00
</event>
<event>
      5  10001  2.40292E+09  1.71383E+01 -1.00000E+00  1.72054E-01
      21    -1     0     0   515   511  0.000000000E+00  0.000000000E+00  1.216634642E+00  1.216634642E+00  0.000000000E+00  0.00000E+00  9.000E+00
      21    -1     0     0   514   515  0.000000000E+00  0.000000000E+00 -3.257329831E+02  3.257329831E+02  0.000000000E+00  0.00000E+00  9.000E+00
      -2     1     1     2     0   511  1.192323719E+00  1.147751023E+01 -3.869485668E+01  4.038014005E+01  3.300000131E-01  0.00000E+00  9.000E+00
       2     1     1     2   512     0  7.882613427E+00 -7.030538893E+00 -1.401108070E+02  1.405087585E+02  3.300000131E-01  0.00000E+00  9.000E+00
      21     1     1     2   514   512 -9.074937146E+00 -4.446971336E+00 -1.457106848E+02  1.460607192E+02  1.907348633E-06  0.00000E+00  9.000E+00
</event>
<event>
      5  10001  2.40292E+09  3.66174E+01 -1.00000E+00  1.47228E-01
      21    -1     0     0   513   512  0.000000000E+00  0.000000000E+00  1.322019508E+01  1.322019508E+01  0.000000000E+00  0.00000E+00  9.000E+00
      21    -1     0     0   511   516  0.000000000E+00  0.000000000E+00 -5.138276164E+01  5.138276164E+01  0.000000000E+00  0.00000E+00  9.000E+00
      21     1     1     2   513   516  7.526548883E+00  8.939410205E+00  3.178011518E+00  1.211039843E+01  3.318646170E-07  0.00000E+00  9.000E+00
      21     1     1     2   515   512  1.013311516E+01  1.440283692E+00 -2.225207368E+01  2.449304438E+01  4.129530925E-07  0.00000E+00  9.000E+00
      21     1     1     2   511   515 -1.765966404E+01 -1.037969390E+01 -1.908850440E+01  2.799951392E+01  4.768371582E-07  0.00000E+00  9.000E+00
</event>
<event>
      5  10001  2.40292E+09  2.16370E+01 -1.00000E+00  1.63558E-01
      21    -1     0     0   514   515  0.000000000E+00  0.000000000E+00  2.155094848E+01  2.155094848E+01  0.000000000E+00  0.00000E+00  9.000E+00
      21    -1     0     0   511   517  0.000000000E+00  0.000000000E+00 -6.438955854E+00  6.438955854E+00  0.000000000E+00  0.00000E+00  9.000E+00
      21     1     1     2   514   517 -5.080842547E-01 -1.004569638E+00  5.126853794E-02  1.126915361E+00  1.314039718E-07  0.00000E+00  9.000E+00
      21     1     1     2   511   512 -3.999467325E-01  3.278697724E-02  2.088496638E+01  2.088882125E+01  0.000000000E+00  0.00000E+00  9.000E+00
      21     1     1     2   512   515  9.080309872E-01  9.717826608E-01 -5.824242289E+00  5.974167729E+00  1.685873940E-07  0.00000E+00  9.000E+00
</event>
<event>
      5  10001  2.40292E+09  4.99478E+00 -1.00000E+00  2.42544E-01
       1    -1     0     0   511     0  0.000000000E+00  0.000000000E+00  1.771866993E+02  1.771866993E+02  0.000000000E+00  0.00000E+00  9.000E+00
      21    -1     0     0   512   513  0.000000000E+00  0.000000000E+00 -2.030145892E+01  2.030145892E+01  0.000000000E+00  0.00000E+00  9.000E+00
      21     1     1     2   511   514  6.002829805E+00 -1.243751630E+01 -1.469664503E+01  2.016722967E+01  1.011524364E-06  0.00000E+00  9.000E+00
       1     1     1     2   512     0 -2.163630955E+00  1.519211265E+01  1.719010970E+02  1.725849867E+02  3.300000131E-01  0.00000E+00  9.000E+00
      21     1     1     2   514   513 -3.839198850E+00 -2.754596355E+00 -3.192116261E-01  4.735941823E+00  4.485843546E-08  0.00000E+00  9.000E+00
</event>
<event>
      5  10001  2.40292E+09  5.27498E+00 -1.00000E+00  2.34439E-01
      21    -1     0     0   512   514  0.000000000E+00  0.000000000E+00  2.393203285E+01  2.393203285E+01  0.000000000E+00  0.00000E+00  9.000E+00
       2    -1     0     0   514     0  0.000000000E+00  0.000000000E+00 -6.791242227E+02  6.791242227E+02  0.000000000E+00  0.00000E+00  9.000E+00
      21     1     1     2   512   515  9.331593551E+00  3.508002102E+00  2.268999811E+01  2.478347698E+01  1.430511475E-06  0.00000E+00  9.000E+00
       2     1     1     2   511     0 -4.372666035E+00 -1.952290559E+00 -6.418256436E+02  6.418435926E+02  3.300000131E-01  0.00000E+00  9.000E+00
      21     1     1     2   515   511 -4.958927516E+00 -1.555711543E+00 -3.605654428E+01  3.642918591E+01  6.743495762E-07  0.00000E+00  9.000E+00
</event>
<event>
      5  10001  2.40292E+09  1.09343E+01 -1.00000E+00  1.91321E-01
      21    -1     0     0   513   511  0.000000000E+00  0.000000000E+00  2.410753893E+00  2.410753893E+00  0.000000000E+00  0.00000E+00  9.000E+00
      21    -1     0     0   514   516  0.000000000E+00  0.000000000E+00 -3.945788620E+02  3.945788620E+02  0.000000000E+00  0.00000E+00  9.000E+00
      21     1     1     2   513   516  6.504715062E+00  1.272251809E+01 -2.075551246E+01  2.519851349E+01  8.596304120E-07  0.00000E+00  9.000E+00
      21     1     1     2   512   511 -5.079516020E+00 -7.658684894E+00 -1.314537473E+02  1.317745978E+02  3.303624740E-06  0.00000E+00  9.000E+00
      21     1     1     2   514   512 -1.425199043E+00 -5.063833195E+00 -2.399588483E+02  2.400165046E+02  0.000000000E+00  0.00000E+00  9.000E+00
</event>
<event>
      5  10001  2.40292E+09  8.86586E+00 -1.00000E+00  2.01939E-01
      21    -1     0     0   515   511  0.000000000E+00  0.000000000E+00  1.210575250E+02  1.210575250E+02  0.000000000E+00  0.00000E+00  9.000E+00
      21    -1     0     0   514   515  0.000000000E+00  0.000000000E+00 -3.201989791E+00  3.201989791E+00  0.000000000E+00  0.00000E+00  9.000E+00
      21     1     1     2   512   511  1.265691933E+01 -7.335888465E-01  1.040315282E+02  1.048012148E+02  1.348699152E-06  0.00000E+00  9.000E+00
      21     1     1     2   513   512 -4.284262074E+00  1.548720204E+00  8.067919977E+00  9.265245196E+00  2.064765462E-07  0.00000E+00  9.000E+00
      21     1     1     2   514   513 -8.372657261E+00 -8.151313576E-01  5.756087054E+00  1.019305484E+01  1.685873940E-07  0.00000E+00  9.000E+00
</event>
<event>
      5  10001  2.40292E+09  1.99283E+00 -1.00000E+00  3.63585E-01
       1    -1     0     0   516     0  0.000000000E+00  0.000000000E+00  1.004735891E+02  1.004735891E+02  0.000000000E+00  0.00000E+00  9.000E+00
      21    -1     0     0   514   516  0.000000000E+00  0.000000000E+00 -3.455993346E+01  3.455993346E+01  0.000000000E+00  0.00000E+00  9.000E+00
      21     1     1     2   514   517 -9.201926343E+00  1.348258109E+00 -3.267869392E+01  3.397631947E+01  6.743495762E-07  0.00000E+00  9.000E+00
      21     1     1     2   517   511  1.068054712E+01 -2.684284230E+00  2.365766026E+01  2.609529378E+01  0.000000000E+00  0.00000E+00  9.000E+00
       1     1     1     2   511     0 -1.478620780E+00  1.336026121E+00  7.493468931E+01  7.496190930E+01  3.300000131E-01  0.00000E+00  9.000E+00
</event>
<event>
      5  10001  2.40292E+09  8.25679E+00 -1.00000E+00  2.05828E-01
      21    -1     0     0   512   515  0.000000000E+00  0.000000000E+00  1.266844517E+01  1.266844517E+01  0.000000000E+00  0.00000E+00  9.000E+00
      21    -1     0     0   514   513  0.000000000E+00  0.000000000E+00 -2.714431998E+01  2.714431998E+01  0.000000000E+00  0.00000E+00  9.000E+00
      21     1     1     2   512   513 -1.695298730E+01 -4.604155347E+00 -9.352977366E+00  1.990176401E+01  2.384185791E-07  0.00000E+00  9.000E+00
      21     1     1     2   514   516  7.164525765E+00  5.759874185E+00 -3.874178681E+00  9.975762654E+00  1.460009660E-07  0.00000E+00  9.000E+00
      21     1     1     2   516   515  9.788461538E+00 -1.155718838E+00 -1.248718763E+00  9.935238491E+00  9.064022497E-08  0.00000E+00  9.000E+00
</event>
<event>
      5  10001  2.40292E+09  8.00706E+00 -1.00000E+00  2.07554E-01
      21    -1     0     0   511   513  0.000000000E+00  0.000000000E+00  1.220073547E+01  1.220073547E+01  0.000000000E+00  0.00000E+00  9.000E+00
      21    -1     0     0   517   515  0.000000000E+00  0.000000000E+00 -1.824965386E+01  1.824965386E+01  0.000000000E+00  0.00000E+00  9.000E+00
      21     1     1     2   511   515  5.964926731E+00  7.066035181E+00  7.257930909E+00  1.175528669E+01  1.460009660E-07  0.00000E+00  9.000E+00
      21     1     1     2   512   513  4.544176147E-01 -5.327389822E+00 -9.831116991E+00  1.119099812E+01  1.192092896E-07  0.00000E+00  9.000E+00
      21     1     1     2   517   512 -6.419344346E+00 -1.738645358E+00 -3.475732306E+00  7.504104515E+00  1.032382731E-07  0.00000E+00  9.000E+00
</event>
<event>
      5  10001  2.40292E+09  9.69351E+00 -1.00000E+00  1.97274E-01
      21    -1     0     0   514   512  0.000000000E+00  0.000000000E+00  3.347504769E-01  3.347504769E-01  0.000000000E+00  0.00000E+00  9.000E+00
      21    -1     0     0   517   516  0.000000000E+00  0.000000000E+00 -4.104038099E+02  4.104038099E+02  0.000000000E+00  0.00000E+00  9.000E+00
      21     1     1     2   514   516 -5.650646660E+00  4.029955198E+00 -1.866010030E+02  1.867300315E+02  0.000000000E+00  0.00000E+00  9.000E+00
      21     1     1     2   511   512  7.866471007E+00 -1.555028743E+00 -6.328002503E+01  6.378605684E+01  9.536743164E-07  0.00000E+00  9.000E+00
      21     1     1     2   517   511 -2.215824347E+00 -2.474926455E+00 -1.601880314E+02  1.602224720E+02  3.303624740E-06  0.00000E+00  9.000E+00
</event>
<event>
      5  10001  2.40292E+09  7.07186E+00 -1.00000E+00  2.14858E-01
      21    -1     0     0   513   512  0.000000000E+00  0.000000000E+00  4.257297155E+01  4.257297155E+01  0.000000000E+00  0.00000E+00  9.000E+00
      21    -1     0     0   515   513  0.000000000E+00  0.000000000E+00 -9.237747129E+00  9.237747129E+00  0.000000000E+00  0.00000E+00  9.000E+00
      21     1     1     2   511   512  8.880533776E+00 -8.904887615E+00  3.198992262E+01  3.437318800E+01  4.768371582E-07  0.00000E+00  9.000E+00
      21     1     1     2   515   514 -4.457490616E+00  5.811585635E+00 -5.178829880E+00  8.970174419E+00  8.429369702E-08  0.00000E+00  9.000E+00
      21     1     1     2   514   511 -4.423043160E+00  3.093301980E+00  6.524131675E+00  8.467356261E+00  8.429369702E-08  0.00000E+00  9.000E+00
</event>
<event>
      5  10001  2.40292E+09  5.87773E+00 -1.00000E+00  2.26790E-01
      21    -1     0     0   514   515  0.000000000E+00  0.000000000E+00  3.117905995E+01  3.117905995E+01  0.000000000E+00  0.00000E+00  9.000E+00
      -2    -1     0     0     0   511  0.000000000E+00  0.000000000E+00 -2.279894962E+01  2.279894962E+01  0.000000000E+00  0.00000E+00  9.000E+00
      -2     1     1     2     0   515  3.134165753E+00 -1.251652349E+01 -1.798998289E+01  2.214124521E+01  3.300000131E-01  0.00000E+00  9.000E+00
      21     1     1     2   512   511 -6.727751166E+00  9.248180052E+00  2.364864848E+01  2.626880365E+01  3.371747881E-07  0.00000E+00  9.000E+00
      21     1     1     2   514   512  3.593585413E+00  3.268343436E+00  2.721444737E+00  5.567960703E+00  1.490116119E-07  0.00000E+00  9.000E+00
</event>
<event>
      5  10001  2.40292E+09  5.76284E+00 -1.00000E+00  2.28146E-01
      21    -1     0     0   511   512  0.000000000E+00  0.000000000E+00  8.327031174E+01  8.327031174E+01  0.000000000E+00  0.00000E+00  9.000E+00
      21    -1     0     0   516   513  0.000000000E+00  0.000000000E+00 -1.848606157E+01  1.848606157E+01  0.000000000E+00  0.00000E+00  9.000E+00
      21     1     1     2   516   517  4.329949313E+00 -1.525931278E+01 -1.381196190E+01  2.103248390E+01  4.129530925E-07  0.00000E+00  9.000E+00
      21     1     1     2   517   512 -3.505205507E+00  9.555791901E+00  2.785320752E+01  2.965469260E+01  5.840038640E-07  0.00000E+00  9.000E+00
      21     1     1     2   511   513 -8.247438065E-01  5.703520879E+00  5.074300454E+01  5.106919681E+01  6.743495762E-07  0.00000E+00  9.000E+00
</event>
<event>
      5  10001  2.40292E+09  2.33672E+01 -1.00000E+00  1.60941E-01
       3    -1     0     0   514     0  0.000000000E+00  0.000000000E+00  1.303601721E+02  1.303601721E+02  0.000000000E+00  0.00000E+00  9.000E+00
      21    -1     0     0   511   513  0.000000000E+00  0.000000000E+00 -5.147509623E+00  5.147509623E+00  0.000000000E+00  0.00000E+00  9.000E+00
      21     1     1     2   514   513  3.223102755E+00 -6.144989106E+00  7.734580537E+01  7.765644140E+01  9.536743164E-07  0.00000E+00  9.000E+00
      21     1     1     2   511   512 -1.907878712E+00 -3.257041063E+00 -3.776885528E+00  5.339773587E+00  4.693274423E-07  0.00000E+00  9.000E+00
       3     1     1     2   512     0 -1.315224042E+00  9.402030169E+00  5.164374267E+01  5.251146678E+01  5.000000000E-01  0.00000E+00  9.000E+00
</event>
<event>
      5  10001  2.40292E+09  7.95135E+00 -1.00000E+00  2.07951E-01
      21    -1     0     0   515   512  0.000000000E+00  0.000000000E+00  9.466925533E-01  9.466925533E-01  0.000000000E+00  0.00000E+00  9.000E+00
      21    -1     0     0   516   515  0.000000000E+00  0.000000000E+00 -3.621175925E+02  3.621175925E+02  0.000000000E+00  0.00000E+00  9.000E+00
      21     1     1     2   511   512 -7.973950673E+00 -9.812442686E+00 -5.402670582E+01  5.548651064E+01  0.000000000E+00  0.00000E+00  9.000E+00
      21     1     1     2   513   511  3.466450596E+00  3.911007302E+00 -2.338427969E+02  2.339011883E+02  2.697398305E-06  0.00000E+00  9.000E+00
      21     1     1     2   516   513  4.507500078E+00  5.901435384E+00 -7.330139725E+01  7.367658608E+01  9.536743164E-07  0.00000E+00  9.000E+00
</event>
<event>
      5  10001  2.40292E+09  5.13240E+00 -1.00000E+00  2.36463E-01
      21    -1     0     0   512   516  0.000000000E+00  0.000000000E+00  1.644972750E+01  1.644972750E+01  0.000000000E+00  0.00000E+00  9.000E+00
      -2    -1     0     0     0   514  0.000000000E+00  0.000000000E+00 -1.519095058E+02  1.519095058E+02  0.000000000E+00  0.00000E+00  9.000E+00
      -2     1     1     2     0   511  5.512898417E+00  1.332761227E+01 -1.416521023E+02  1.423848457E+02  3.300000131E-01  0.00000E+00  9.000E+00
      21     1     1     2   511   516 -6.373305000E+00 -1.838732012E+01  7.189408544E+00  2.074608765E+01  5.397430145E-07  0.00000E+00  9.000E+00
      21     1     1     2   512   514  8.604065829E-01  5.059707848E+00 -9.970845619E-01  5.228299974E+00  1.268788156E-07  0.00000E+00  9.000E+00
</event>
<event>
      5  10001  2.40292E+09  3.49963E+01 -1.00000E+00  1.48501E-01
      21    -1     0     0   513   511  0.000000000E+00  0.000000000E+00  5.022152130E+01  5.022152130E+01  0.000000000E+00  0.00000E+00  9.000E+00
      21    -1     0     0   517   515  0.000000000E+00  0.000000000E+00 -1.961710749E+01  1.961710749E+01  0.000000000E+00  0.00000E+00  9.000E+00
      21     1     1     2   513   515 -4.094342260E-01  1.878856034E+01  6.530443166E+00  1.989533423E+01  5.900558792E-07  0.00000E+00  9.000E+00
      21     1     1     2   516   511  9.734216721E+00 -1.315027552E+01  3.235529821E+01  3.625672412E+01  6.743495762E-07  0.00000E+00  9.000E+00
      21     1     1     2   517   516 -9.324782495E+00 -5.638284827E+00 -8.281327571E+00  1.368657045E+01  4.129530925E-07  0.00000E+00  9.000E+00
</event>
<event>
      5  10001  2.40292E+09  5.56703E+00 -1.00000E+00  2.30563E-01
       1    -1     0     0   514     0  0.000000000E+00  0.000000000E+00  3.650778905E+02  3.650778905E+02  0.000000000E+00  0.00000E+00  9.000E+00
      21    -1     0     0   512   514  0.000000000E+00  0.000000000E+00 -1.395526633E+00  1.395526633E+00  0.000000000E+00  0.00000E+00  9.000E+00
      -5     1     1     2     0   511 -8.354579030E+00  1.109618449E+01  1.232630324E+02  1.241359716E+02  4.800000191E+00  0.00000E+00  9.000E+00
       5     1     1     2   512     0  3.338223208E+00 -9.147636728E+00  3.095227197E+01  3.280100812E+01  4.800000191E+00  0.00000E+00  9.000E+00
       1     1     1     2   511     0  5.016355822E+00 -1.948547762E+00  2.094670595E+02  2.095364374E+02  3.300000131E-01  0.00000E+00  9.000E+00
</event>
<event>
      5  10001  2.40292E+09  8.96400E+00 -1.00000E+00  2.01351E-01
      21    -1     0     0   513   511  0.000000000E+00  0.000000000E+00  9.317566381E+01  9.317566381E+01  0.000000000E+00  0.00000E+00  9.000E+00
      21    -1     0     0   515   513  0.000000000E+00  0.000000000E+00 -2.173303265E+00  2.173303265E+00  0.000000000E+00  0.00000E+00  9.000E+00
      21     1     1     2   515   516 -1.348610659E+01  9.503647500E-01  3.695133739E+01  3.934691346E+01  6.743495762E-07  0.00000E+00  9.000E+00
      21     1     1     2   516   512  3.155599973E+00 -2.727376328E+00  1.529496423E+01  1.585346409E+01  2.920019320E-07  0.00000E+00  9.000E+00
      21     1     1     2   512   511  1.033050662E+01  1.777011578E+00  3.875605893E+01  4.014858952E+01  8.259061849E-07  0.00000E+00  9.000E+00
</event>
<event>
      5  10001  2.40292E+09  1.50361E+01 -1.00000E+00  1.77238E-01
      21    -1     0     0   512   511  0.000000000E+00  0.000000000E+00  4.018691554E+01  4.018691554E+01  0.000000000E+00  0.00000E+00  9.000E+00
      21    -1     0     0   511   513  0.000000000E+00  0.000000000E+00 -3.713805487E+00  3.713805487E+00  0.000000000E+00  0.00000E+00  9.000E+00
      -1     1     1     2     0   514 -1.515345995E+00 -7.840603757E+00  3.572751454E+00  8.754701235E+00  3.300000131E-01  0.00000E+00  9.000E+00
       1     1     1     2   512     0 -3.452316509E+00  4.904692893E+00  1.141234442E+01  1.289670527E+01  3.300000131E-01  0.00000E+00  9.000E+00
      21     1     1     2   514   513  4.967662504E+00  2.935910864E+00  2.148801418E+01  2.224931453E+01  2.384185791E-07  0.00000E+00  9.000E+00
</event>
<event>
      5  10001  2.40292E+09  4.51372E+00 -1.00000E+00  2.51591E-01
      21    -1     0     0   512   513  0.000000000E+00  0.000000000E+00  3.758907185E+01  3.758907185E+01  0.000000000E+00  0.00000E+00  9.000E+00
      21    -1     0     0   511   516  0.000000000E+00  0.000000000E+00 -5.990462041E+01  5.990462041E+01  0.000000000E+00  0.00000E+00  9.000E+00
      21     1     1     2   515   516 -9.772543918E+00  4.918516430E+00  3.517874070E+00  1.149216500E+01  5.144678504E-07  0.00000E+00  9.000E+00
      21     1     1     2   511   513  1.389530258E+01 -3.080993046E+00 -5.483438679E+01  5.665140710E+01  6.743495762E-07  0.00000E+00  9.000E+00
      21     1     1     2   512   515 -4.122758664E+00 -1.837523384E+00  2.900096416E+01  2.935012016E+01  5.840038640E-07  0.00000E+00  9.000E+00
</event>
<event>
      5  10001  2.40292E+09  6.22724E+00 -1.00000E+00  2.22917E-01
      21    -1     0     0   513   511  0.000000000E+00  0.000000000E+00  9.874072240E+00  9.874072240E+00  0.000000000E+00  0.00000E+00  9.000E+00
      21    -1     0     0   517   515  0.000000000E+00  0.000000000E+00 -7.519775931E+01  7.519775931E+01  0.000000000E+00  0.00000E+00  9.000E+00
      21     1     1     2   514   515 -1.161123906E+01  7.998975407E+00 -1.388737385E+01  1.979049349E+01  3.769728732E-07  0.00000E+00  9.000E+00
      21     1     1     2   517   511  9.380651838E+00 -1.381300657E+01 -5.542549330E+01  5.788593169E+01  9.536743164E-07  0.00000E+00  9.000E+00
      21     1     1     2   513   514  2.230587221E+00  5.814031166E+00  3.989180082E+00  7.395406376E+00  1.976862425E-07  0.00000E+00  9.000E+00
</event>
<event>
      5  10001  2.40292E+09  3.54476E+00 -1.00000E+00  2.76360E-01
      21    -1     0     0   512   515  0.000000000E+00  0.000000000E+00  1.447001238E+02  1.447001238E+02  0.000000000E+00  0.00000E+00  9.000E+00
      21    -1     0     0   516   514  0.000000000E+00  0.000000000E+00 -6.765379029E+00  6.765379029E+00  0.000000000E+00  0.00000E+00  9.000E+00
      21     1     1     2   512   514 -4.400721353E+00 -1.530077146E+01  3.790026502E+00  1.636594808E+01  4.086288572E-07  0.00000E+00  9.000E+00
      21     1     1     2   516   511  1.260666619E+00  2.735717593E+00  3.063007763E+01  3.077783434E+01  4.768371582E-07  0.00000E+00  9.000E+00
      21     1     1     2   511   515  3.140054734E+00  1.256505387E+01  1.035146406E+02  1.043217204E+02  1.348699152E-06  0.00000E+00  9.000E+00
</event>
<event>
      5  10001  2.40292E+09  4.02015E+00 -1.00000E+00  2.62849E-01
      21    -1     0     0   511   515  0.000000000E+00  0.000000000E+00  7.947565297E+01  7.947565297E+01  0.000000000E+00  0.00000E+00  9.000E+00
      -2    -1     0     0     0   513  0.000000000E+00  0.000000000E+00 -2.041442074E+00  2.041442074E+00  0.000000000E+00  0.00000E+00  9.000E+00
      -2     1     1     2     0   515 -1.091407165E+01 -7.979026247E-01  2.034396433E+01  2.310280055E+01  3.300000131E-01  0.00000E+00  9.000E+00
      21     1     1     2   512   513  8.882845636E+00 -3.662151538E-01  3.190627209E+01  3.312173393E+01  0.000000000E+00  0.00000E+00  9.000E+00
      21     1     1     2   511   512  2.031226012E+00  1.164117779E+00  2.518397448E+01  2.529256056E+01  3.371747881E-07  0.00000E+00  9.000E+00
</event>
<event>
      5  10001  2.40292E+09  5.62234E+00 -1.00000E+00  2.29866E-01
      21    -1     0     0   514   512  0.000000000E+00  0.000000000E+00  3.814535894E+00  3.814535894E+00  0.000000000E+00  0.00000E+00  9.000E+00
      21    -1     0     0   515   516  0.000000000E+00  0.000000000E+00 -3.646162501E+01  3.646162501E+01  0.000000000E+00  0.00000E+00  9.000E+00
      21     1     1     2   514   516 -7.955410318E+00 -5.488286762E+00 -6.366322733E+00  1.157324112E+01  0.000000000E+00  0.00000E+00  9.000E+00
      21     1     1     2   513   512  2.482178487E+00  5.226136390E+00 -1.659481727E+01  1.757446078E+01  3.371747881E-07  0.00000E+00  9.000E+00
      21     1     1     2   515   513  5.473231831E+00  2.621503727E-01 -9.685949115E+00  1.112845900E+01  1.685873940E-07  0.00000E+00  9.000E+00
</event>
<event>
      5  10001  2.40292E+09  1.36870E+01 -1.00000E+00  1.81166E-01
      21    -1     0     0   513   512  0.000000000E+00  0.000000000E+00  6.000325597E+00  6.000325597E+00  0.000000000E+00  0.00000E+00  9.000E+00
       1    -1     0     0   512     0  0.000000000E+00  0.000000000E+00 -1.385788847E+03  1.385788847E+03  0.000000000E+00  0.00000E+00  9.000E+00
      21     1     1     2   514   511 -6.764948274E+00  1.013730530E+01 -1.028015652E+01  1.594399893E+01  8.840797528E-07  0.00000E+00  9.000E+00
       1     1     1     2   511     0  1.233056574E+01 -7.678904434E+00 -1.369681259E+03  1.369758325E+03  3.300000131E-01  0.00000E+00  9.000E+00
      21     1     1     2   513   514 -5.565617471E+00 -2.458400864E+00  1.728943668E-01  6.086848537E+00  5.188160588E-07  0.00000E+00  9.000E+00
</event>
<event>
      5  10001  2.40292E+09  2.50029E+01 -1.00000E+00  1.58709E-01
      21    -1     0     0   515   512  0.000000000E+00  0.000000000E+00  1.148703942E+01  1.148703942E+01  0.000000000E+00  0.00000E+00  9.000E+00
      -4    -1     0     0     0   514  0.000000000E+00  0.000000000E+00 -1.499567749E+01  1.499567749E+01  0.000000000E+00  0.00000E+00  9.000E+00
      21     1     1     2   511   512 -1.436284802E+00  4.806560207E+00  6.729372589E+00  8.393473089E+00  1.460009660E-07  0.00000E+00  9.000E+00
      21     1     1     2   515   514  2.479920815E+00  2.707136478E+00  1.555051189E+00  3.987076543E+00  1.264405455E-07  0.00000E+00  9.000E+00
      -4     1     1     2     0   511 -1.043636013E+00 -7.513696684E+00 -1.179306186E+01  1.410216728E+01  1.500000000E+00  0.00000E+00  9.000E+00
</event>
<event>
      5  10001  2.40292E+09  1.11191E+01 -1.00000E+00  1.90523E-01
       2    -1     0     0   513     0  0.000000000E+00  0.000000000E+00  1.221272567E+02  1.221272567E+02  0.000000000E+00  0.00000E+00  9.000E+00
      21    -1     0     0   512   511  0.000000000E+00  0.000000000E+00 -2.359031114E+01  2.359031114E+01  0.000000000E+00  0.00000E+00  9.000E+00
      21     1     1     2   513   511  2.761517719E+01 -8.180533256E+00  2.672895530E+01  3.929320790E+01  3.371747881E-07  0.00000E+00  9.000E+00
      21     1     1     2   512   516 -2.468082177E+01 -2.544178215E+00 -7.826486336E+00  2.601671951E+01  3.039252468E-07  0.00000E+00  9.000E+00
       2     1     1     2   516     0 -2.934355421E+00  1.072471147E+01  7.963447655E+01  8.040764039E+01  3.300000131E-01  0.00000E+00  9.000E+00
</event>
<event>
      5  10001  2.40292E+09  5.26438E+00 -1.00000E+00  2.34586E-01
       2    -1     0     0   512     0  0.000000000E+00  0.000000000E+00  7.005506476E+01  7.005506476E+01  0.000000000E+00  0.00000E+00  9.000E+00
       1    -1     0     0   515     0  0.000000000E+00  0.000000000E+00 -1.964435942E+01  1.964435942E+01  0.000000000E+00  0.00000E+00  9.000E+00
      21     1     1     2   512   514  1.027123937E+00  1.552158057E+01  2.242504798E+01  2.729207254E+01  2.384185791E-07  0.00000E+00  9.000E+00
       1     1     1     2   514     0  3.213943307E+00 -1.863991746E+01 -1.178507025E+01  2.228839912E+01  3.300000131E-01  0.00000E+00  9.000E+00
       2     1     1     2   515     0 -4.241067244E+00  3.118336889E+00  3.977072761E+01  4.011895252E+01  3.300000131E-01  0.00000E+00  9.000E+00
</event>
<event>
      5  10001  2.40292E+09  1.94601E+00 -1.00000E+00  3.68487E-01
      -2    -1     0     0     0   511  0.000000000E+00  0.000000000E+00  6.702617393E+01  6.702617393E+01  0.000000000E+00  0.00000E+00  9.000E+00
       1    -1     0     0   511     0  0.000000000E+00  0.000000000E+00 -3.980314362E+00  3.980314362E+00  0.000000000E+00  0.00000E+00  9.000E+00
      -2     1     1     2     0   512 -9.286146661E+00  9.684253296E+00  5.028052674E+01  5.204092188E+01  3.300000131E-01  0.00000E+00  9.000E+00
       1     1     1     2   513     0  8.125089415E+00 -8.882255785E+00  1.277253182E+01  1.755443007E+01  3.300000131E-01  0.00000E+00  9.000E+00
      21     1     1     2   512   513  1.161057245E+00 -8.019975111E-01 -7.198994423E-03  1.411136337E+00  9.139177407E-08  0.00000E+00  9.000E+00
</event>
<event>
      5  10001  2.40292E+09  1.72894E+01 -1.00000E+00  1.71718E-01
      21    -1     0     0   514   512  0.000000000E+00  0.000000000E+00  4.109756289E+00  4.109756289E+00  0.000000000E+00  0.00000E+00  9.000E+00
      21    -1     0     0   511   515  0.000000000E+00  0.000000000E+00 -2.563988015E+01  2.563988015E+01  0.000000000E+00  0.00000E+00  9.000E+00
      21     1     1     2   514   515  6.148891336E+00  4.475651003E+00 -1.044497596E+01  1.292044269E+01  1.192092896E-07  0.00000E+00  9.000E+00
      21     1     1     2   516   512  2.171055958E+00 -1.500246828E+00 -6.187219959E+00  6.726508407E+00  8.429369702E-08  0.00000E+00  9.000E+00
      21     1     1     2   511   516 -8.319947294E+00 -2.975404175E+00 -4.897927945E+00  1.010268534E+01  1.332800375E-07  0.00000E+00  9.000E+00
</event>
<event>
      5  10001  2.40292E+09  1.22545E+01 -1.00000E+00  1.86022E-01
      -2    -1     0     0     0   515  0.000000000E+00  0.000000000E+00  1.168072149E+02  1.168072149E+02  0.000000000E+00  0.00000E+00  9.000E+00
      21    -1     0     0   511   517  0.000000000E+00  0.000000000E+00 -1.217827605E+01  1.217827605E+01  0.000000000E+00  0.00000E+00  9.000E+00
      21     1     1     2   513   517  5.266121200E+00  1.629155720E+00 -6.320223821E+00  8.386382414E+00  8.429369702E-08  0.00000E+00  9.000E+00
      21     1     1     2   511   515 -1.730037719E+01  6.823401556E-01  1.241409504E+01  2.130442195E+01  4.460403188E-07  0.00000E+00  9.000E+00
      -2     1     1     2     0   513  1.203425599E+01 -2.311495875E+00  9.853506760E+01  9.929468655E+01  3.300000131E-01  0.00000E+00  9.000E+00
</event>
<event>
      5  10001  2.40292E+09  5.04240E+00 -1.00000E+00  2.37790E-01
      21    -1     0     0   512   511  0.000000000E+00  0.000000000E+00  1.552285102E+02  1.552285102E+02  0.000000000E+00  0.00000E+00  9.000E+00
      21    -1     0     0   514   512  0.000000000E+00  0.000000000E+00 -4.119589515E+00  4.119589515E+00  0.000000000E+00  0.00000E+00  9.000E+00
      21     1     1     2   514   513  1.003171906E+01 -3.646321494E-01  2.977040840E+00  1.047048786E+01  3.816559456E-07  0.00000E+00  9.000E+00
       5     1     1     2   513     0 -6.601306210E+00  2.506125363E+00  7.824174341E+01  7.870621526E+01  4.800000191E+00  0.00000E+00  9.000E+00
      -5     1     1     2     0   511 -3.430412854E+00 -2.141493214E+00  6.989013648E+01  7.017139663E+01  4.800000191E+00  0.00000E+00  9.000E+00
</event>
<event>
      5  10001  2.40292E+09  5.87631E+00 -1.00000E+00  2.26807E-01
      -1    -1     0     0     0   511  0.000000000E+00  0.000000000E+00  1.529207412E+02  1.529207412E+02  0.000000000E+00  0.00000E+00  9.000E+00
      21    -1     0     0   515   512  0.000000000E+00  0.000000000E+00 -2.006665349E+01  2.006665349E+01  0.000000000E+00  0.00000E+00  9.000E+00
      -1     1     1     2     0   512  1.110338506E+01  2.792547484E+00  1.507627653E+02  1.511972347E+02  3.300000131E-01  0.00000E+00  9.000E+00
      21     1     1     2   515   513 -2.490664299E+00  1.259817918E-01 -7.819331934E+00  8.207388864E+00  4.042583694E-07  0.00000E+00  9.000E+00
      21     1     1     2   513   511 -8.612720762E+00 -2.918529276E+00 -1.008934573E+01  1.358277105E+01  4.616955931E-07  0.00000E+00  9.000E+00
</event>
<event>
      5  10001  2.40292E+09  6.16518E+00 -1.00000E+00  2.23578E-01
       4    -1     0     0   514     0  0.000000000E+00  0.000000000E+00  6.053826077E+01  6.053826077E+01  0.000000000E+00  0.00000E+00  9.000E+00
      21    -1     0     0   516   511  0.000000000E+00  0.000000000E+00 -1.319570022E+01  1.319570022E+01  0.000000000E+00  0.00000E+00  9.000E+00
      21     1     1     2   514   511  1.234591524E+01 -1.180531065E+01  9.451064749E+00  1.952202877E+01  4.298152060E-07  0.00000E+00  9.000E+00
      21     1     1     2   516   512 -7.977613583E+00  7.463348923E+00 -4.156727306E+00  1.168855327E+01  1.576990671E-07  0.00000E+00  9.000E+00
       4     1     1     2   512     0 -4.368301656E+00  4.341961722E+00  4.204822310E+01  4.252337895E+01  1.500000000E+00  0.00000E+00  9.000E+00
</event>
<event>
      5  10001  2.40292E+09  6.31613E+00 -1.00000E+00  2.21988E-01
       2    -1     0     0   511     0  0.000000000E+00  0.000000000E+00  9.063029478E+02  9.063029478E+02  0.000000000E+00  0.00000E+00  9.000E+00
      -3    -1     0     0     0   513  0.000000000E+00  0.000000000E+00 -1.786958843E+01  1.786958843E+01  0.000000000E+00  0.00000E+00  9.000E+00
      21     1     1     2   511   513 -1.541115197E+01 -4.742983956E+00  1.474412103E+02  1.483202953E+02  1.907348633E-06  0.00000E+00  9.000E+00
       2     1     1     2   512     0  1.587249394E+01 -1.556233716E+00  7.577596915E+02  7.579275803E+02  3.300000131E-01  0.00000E+00  9.000E+00
      -3     1     1     2     0   512 -4.613419741E-01  6.299217673E+00 -1.676754246E+01  1.792466066E+01  5.000000000E-01  0.00000E+00  9.000E+00
</event>
<event>
      5  10001  2.40292E+09  6.30438E+00 -1.00000E+00  2.22109E-01
      21    -1     0     0   514   516  0.000000000E+00  0.000000000E+00  1.154571900E+02  1.154571900E+02  0.000000000E+00  0.00000E+00  9.000E+00
      21    -1     0     0   511   514  0.000000000E+00  0.000000000E+00 -2.219205395E+02  2.219205395E+02  0.000000000E+00  0.00000E+00  9.000E+00
      21     1     1     2   512   516 -7.351635651E+00 -6.310658351E+00  1.032951009E+02  1.037484883E+02  0.000000000E+00  0.00000E+00  9.000E+00
      21     1     1     2   515   512  3.771380449E+00  1.149978212E+01  8.810276543E+00  1.496961162E+01  1.192092896E-07  0.00000E+00  9.000E+00
      21     1     1     2   511   515  3.580255203E+00 -5.189123765E+00 -2.185687269E+02  2.186596296E+02  2.697398305E-06  0.00000E+00  9.000E+00
</event>
<event>
      5  10001  2.40292E+09  1.94018E+01 -1.00000E+00  1.67422E-01
      21    -1     0     0   511   513  0.000000000E+00  0.000000000E+00  5.742476907E+00  5.742476907E+00  0.000000000E+00  0.00000E+00  9.000E+00
       3    -1     0     0   515     0  0.000000000E+00  0.000000000E+00 -1.224509884E+02  1.224509884E+02  0.000000000E+00  0.00000E+00  9.000E+00
      21     1     1     2   515   512  1.487403021E+01  3.597201972E+00 -1.046789400E+01  1.854058903E+01  5.196212463E-07  0.00000E+00  9.000E+00
       3     1     1     2   511     0 -1.093582599E+01  7.157219408E+00 -7.941327386E+01  8.048314200E+01  5.000000000E-01  0.00000E+00  9.000E+00
      21     1     1     2   512   513 -3.938204226E+00 -1.075442138E+01 -2.682734360E+01  2.916973425E+01  4.768371582E-07  0.00000E+00  9.000E+00
</event>
<event>
      5  10001  2.40292E+09  2.31090E+00 -1.00000E+00  3.35937E-01
      21    -1     0     0   514   512  0.000000000E+00  0.000000000E+00  8.661681024E+01  8.661681024E+01  0.000000000E+00  0.00000E+00  9.000E+00
      21    -1     0     0   513   514  0.000000000E+00  0.000000000E+00 -1.478343481E+00  1.478343481E+00  0.000000000E+00  0.00000E+00  9.000E+00
      21     1     1     2   513   515 -1.003134216E+01  4.611829890E+00  3.514240024E+01  3.683592126E+01  6.743495762E-07  0.00000E+00  9.000E+00
      21     1     1     2   511   512  5.775072044E+00 -1.350789109E+00  2.763701574E+01  2.826624714E+01  5.840038640E-07  0.00000E+00  9.000E+00
      21     1     1     2   515   511  4.256270112E+00 -3.261040781E+00  2.235905078E+01  2.299298532E+01  0.000000000E+00  0.00000E+00  9.000E+00
</event>
<event>
      5  10001  2.40292E+09  1.20366E+01 -1.00000E+00  1.86836E-01
      21    -1     0     0   516   511  0.000000000E+00  0.000000000E+00  6.177845376E-01  6.177845376E-01  0.000000000E+00  0.00000E+00  9.000E+00
      21    -1     0     0   517   516  0.000000000E+00  0.000000000E+00 -7.331968653E+02  7.331968653E+02  0.000000000E+00  0.00000E+00  9.000E+00
      21     1     1     2   517   513  7.919233154E+00 -8.274254233E+00 -6.061858376E+02  6.062940270E+02  1.078959322E-05  0.00000E+00  9.000E+00
      21     1     1     2   512   511  1.519172765E+00  5.117429951E+00 -2.136070788E+01  2.201762513E+01  8.596304120E-07  0.00000E+00  9.000E+00
      21     1     1     2   513   512 -9.438405919E+00  3.156824282E+00 -1.050325353E+02  1.055029977E+02  2.336015456E-06  0.00000E+00  9.000E+00
</event>
<event>
      5  10001  2.40292E+09  1.29810E+01 -1.00000E+00  1.83459E-01
      21    -1     0     0   515   511  0.000000000E+00  0.000000000E+00  7.012105669E+01  7.012105669E+01  0.000000000E+00  0.00000E+00  9.000E+00
      -3    -1     0     0     0   514  0.000000000E+00  0.000000000E+00 -2.306804964E+00  2.306804964E+00  0.000000000E+00  0.00000E+00  9.000E+00
      -3     1     1     2     0   516  5.069379362E+00 -8.495746055E+00  1.653734219E+01  1.927718845E+01  5.000000000E-01  0.00000E+00  9.000E+00
      21     1     1     2   515   514 -4.997452697E+00  5.398372130E+00  1.465305191E+01  1.639600211E+01  2.920019320E-07  0.00000E+00  9.000E+00
      21     1     1     2   516   511 -7.192666475E-02  3.097373925E+00  3.662385763E+01  3.675467108E+01  0.000000000E+00  0.00000E+00  9.000E+00
</event>
<event>
      5  10001  2.40292E+09  6.80324E+00 -1.00000E+00  2.17246E-01
      21    -1     0     0   512   514  0.000000000E+00  0.000000000E+00  7.524232090E+01  7.524232090E+01  0.000000000E+00  0.00000E+00  9.000E+00
      21    -1     0     0   513   511  0.000000000E+00  0.000000000E+00 -4.809194905E+01  4.809194905E+01  0.000000000E+00  0.00000E+00  9.000E+00
      21     1     1     2   512   511  2.208829080E+01  2.805262587E+01 -2.874139353E+01  4.583568600E+01  1.545128989E-06  0.00000E+00  9.000E+00
      21     1     1     2   513   516 -2.885181323E+01 -2.878669741E+01  2.967991020E+01  5.041823226E+01  1.305872339E-06  0.00000E+00  9.000E+00
      21     1     1     2   516   514  6.763522425E+00  7.340715420E-01  2.621185518E+01  2.708035170E+01  3.371747881E-07  0.00000E+00  9.000E+00
</event>
<event>
      5  10001  2.40292E+09  2.93196E+00 -1.00000E+00  2.99782E-01
      21    -1     0     0   511   514  0.000000000E+00  0.000000000E+00  4.141728497E+00  4.141728497E+00  0.000000000E+00  0.00000E+00  9.000E+00
      -1    -1     0     0     0   515  0.000000000E+00  0.000000000E+00 -9.744337001E+01  9.744337001E+01  0.000000000E+00  0.00000E+00  9.000E+00
      -1     1     1     2     0   512  9.652600817E+00 -1.261700236E+00 -8.006180939E+01  8.065213458E+01  3.300000131E-01  0.00000E+00  9.000E+00
      21     1     1     2   512   514 -1.008116612E+01  4.161949298E+00 -1.414792403E+01  1.786380382E+01  6.078504936E-07  0.00000E+00  9.000E+00
      21     1     1     2   511   515  4.285653043E-01 -2.900249062E+00  9.080919123E-01  3.069160107E+00  1.016123719E-07  0.00000E+00  9.000E+00
</event>
<event>
      5  10001  2.40292E+09  8.17984E+00 -1.00000E+00  2.06351E-01
      21    -1     0     0   513   514  0.000000000E+00  0.000000000E+00  5.168200667E+00  5.168200667E+00  0.000000000E+00  0.00000E+00  9.000E+00
      21    -1     0     0   516   513  0.000000000E+00  0.000000000E+00 -5.757040996E+01  5.757040996E+01  0.000000000E+00  0.00000E+00  9.000E+00
      21     1     1     2   515   514 -9.238451310E+00 -8.916767177E+00 -5.645401627E+00  1.402598585E+01  1.788139343E-07  0.00000E+00  9.000E+00
      21     1     1     2   516   512  2.100646894E+00  3.568064269E+00 -8.851580842E+00  9.772117652E+00  2.064765462E-07  0.00000E+00  9.000E+00
      21     1     1     2   512   515  7.137804416E+00  5.348702908E+00 -3.790522682E+01  3.894050712E+01  4.768371582E-07  0.00000E+00  9.000E+00
</event>
<event>
      5  10001  2.40292E+09  5.29548E+00 -1.00000E+00  2.34155E-01
      21    -1     0     0   511   516  0.000000000E+00  0.000000000E+00  5.056497357E+01  5.056497357E+01  0.000000000E+00  0.00000E+00  9.000E+00
      21    -1     0     0   514   515  0.000000000E+00  0.000000000E+00 -8.018180946E+00  8.018180946E+00  0.000000000E+00  0.00000E+00  9.000E+00
      21     1     1     2   511   515 -1.745551175E+01  6.989104309E+00  1.857127976E+01  2.642791898E+01  3.371747881E-07  0.00000E+00  9.000E+00
      21     1     1     2   514   513  1.631722154E+01 -3.984413846E+00  1.463671963E+01  2.227915694E+01  2.920019320E-07  0.00000E+00  9.000E+00
      21     1     1     2   513   516  1.138290212E+00 -3.004690463E+00  9.338793233E+00  9.876078596E+00  1.685873940E-07  0.00000E+00  9.000E+00
</event>
<event>
      5  10001  2.40292E+09  6.91757E+00 -1.00000E+00  2.16212E-01
      21    -1     0     0   512   514  0.000000000E+00  0.000000000E+00  5.502454457E+00  5.502454457E+00  0.000000000E+00  0.00000E+00  9.000E+00
      21    -1     0     0   517   516  0.000000000E+00  0.000000000E+00 -2.556630969E+01  2.556630969E+01  0.000000000E+00  0.00000E+00  9.000E+00
      21     1     1     2   512   516  8.752264823E+00 -2.408713625E+00 -1.286677926E+01  1.574668376E+01  1.685873940E-07  0.00000E+00  9.000E+00
      21     1     1     2   511   514 -5.867421177E+00  2.525904006E+00  1.149160565E+00  6.490561788E+00  4.290395990E-07  0.00000E+00  9.000E+00
      21     1     1     2   517   511 -2.884843646E+00 -1.171903808E-01 -8.346236535E+00  8.831518598E+00  1.192092896E-07  0.00000E+00  9.000E+00
</event>
<event>
      5  10001  2.40292E+09  5.29838E+00 -1.00000E+00  2.34115E-01
      21    -1     0     0   513   511  0.000000000E+00  0.000000000E+00  7.007897744E-01  7.007897744E-01  0.000000000E+00  0.00000E+00  9.000E+00
       2    -1     0     0   514     0  0.000000000E+00  0.000000000E+00 -2.244266627E+02  2.244266627E+02  0.000000000E+00  0.00000E+00  9.000E+00
      21     1     1     2   514   511  9.619296802E+00 -1.887064878E+00 -4.355046132E+01  4.464005562E+01  1.066240300E-06  0.00000E+00  9.000E+00
       2     1     1     2   512     0 -3.003248005E+00  2.551428488E+00 -6.488037944E+01  6.500078324E+01  3.300000131E-01  0.00000E+00  9.000E+00
      21     1     1     2   513   512 -6.616048798E+00 -6.643636105E-01 -1.152950322E+02  1.154866136E+02  1.907348633E-06  0.00000E+00  9.000E+00
</event>
<event>
      5  10001  2.40292E+09  1.99494E+01 -1.00000E+00  1.66418E-01
      21    -1     0     0   515   511  0.000000000E+00  0.000000000E+00  2.898613318E+00  2.898613318E+00  0.000000000E+00  0.00000E+00  9.000E+00
      21    -1     0     0   516   515  0.000000000E+00  0.000000000E+00 -5.546912203E+01  5.546912203E+01  0.000000000E+00  0.00000E+00  9.000E+00
      21     1     1     2   516   514 -5.190622525E+00  5.929143698E+00 -1.169606953E+01  1.410302626E+01  3.371747881E-07  0.00000E+00  9.000E+00
      21     1     1     2   514   517 -2.414168313E+00 -2.922709605E+00 -1.544117366E+00  4.093255247E+00  1.299053116E-07  0.00000E+00  9.000E+00
      21     1     1     2   517   511  7.604790839E+00 -3.006434093E+00 -3.933032181E+01  4.017145384E+01  8.259061849E-07  0.00000E+00  9.000E+00
</event>
<event>
      5  10001  2.40292E+09  3.47758E+00 -1.00000E+00  2.78545E-01
      21    -1     0     0   515   514  0.000000000E+00  0.000000000E+00  1.690081828E+01  1.690081828E+01  0.000000000E+00  0.00000E+00  9.000E+00
      21    -1     0     0   513   511  0.000000000E+00  0.000000000E+00 -2.342277094E+01  2.342277094E+01  0.000000000E+00  0.00000E+00  9.000E+00
      21     1     1     2   512   511 -1.308549869E+01 -3.363507485E+00 -4.347283420E+00  1.419303815E+01  1.332800375E-07  0.00000E+00  9.000E+00
      21     1     1     2   513   514  9.607971171E+00  3.381816634E+00 -1.198115723E+01  1.572570896E+01  2.384185791E-07  0.00000E+00  9.000E+00
      21     1     1     2   515   512  3.477527523E+00 -1.830914870E-02  9.806487982E+00  1.040484211E+01  1.192092896E-07  0.00000E+00  9.000E+00
</event>
<event>
      5  10001  2.40292E+09  6.65673E+00 -1.00000E+00  2.18613E-01
      21    -1     0     0   516   512  0.000000000E+00  0.000000000E+00  6.435081469E+01  6.435081469E+01  0.000000000E+00  0.00000E+00  9.000E+00
       1    -1     0     0   517     0  0.000000000E+00  0.000000000E+00 -1.369531768E+02  1.369531768E+02  0.000000000E+00  0.00000E+00  9.000E+00
      21     1     1     2   513   512  1.386927892E+00  9.766988260E+00  4.982529796E+01  5.079249891E+01  9.536743164E-07  0.00000E+00  9.000E+00
      21     1     1     2   517   513  4.588249155E+00 -1.270110222E+01  1.069226715E+01  1.722482524E+01  2.920019320E-07  0.00000E+00  9.000E+00
       1     1     1     2   516     0 -5.975177048E+00  2.934113956E+00 -1.331199272E+02  1.332866674E+02  3.300000131E-01  0.00000E+00  9.000E+00
</event>
<event>
      5  10001  2.40292E+09  9.26886E+00 -1.00000E+00  1.99587E-01
      21    -1     0     0   511   514  0.000000000E+00  0.000000000E+00  1.913409666E-01  1.913409666E-01  0.000000000E+00  0.00000E+00  9.000E+00
       2    -1     0     0   512     0  0.000000000E+00  0.000000000E+00 -5.385871671E+02  5.385871671E+02  0.000000000E+00  0.00000E+00  9.000E+00
      21     1     1     2   513   514 -1.103730600E+00 -4.566842932E+00 -4.594996375E+01  4.618953825E+01  6.743495762E-07  0.00000E+00  9.000E+00
       2     1     1     2   511     0  5.751932210E-01  7.387139401E+00 -2.143026378E+02  2.144309450E+02  3.300000131E-01  0.00000E+00  9.000E+00
      21     1     1     2   512   513  5.285373792E-01 -2.820296469E+00 -2.781432246E+02  2.781580249E+02  3.814697266E-06  0.00000E+00  9.000E+00
</event>
<event>
      5  10001  2.40292E+09  4.26303E+00 -1.00000E+00  2.57016E-01
       2    -1     0     0   512     0  0.000000000E+00  0.000000000E+00  8.316613607E+01  8.316613607E+01  0.000000000E+00  0.00000E+00  9.000E+00
      21    -1     0     0   515   511  0.000000000E+00  0.000000000E+00 -2.136604351E+01  2.136604351E+01  0.000000000E+00  0.00000E+00  9.000E+00
      21     1     1     2   512   514 -7.560934501E+00  2.093188993E+01 -1.893743295E+00  2.233602494E+01  6.443783137E-07  0.00000E+00  9.000E+00
       2     1     1     2   515     0  7.265598598E+00 -2.940477449E+01  6.665574998E+01  7.321562396E+01  3.300000131E-01  0.00000E+00  9.000E+00
      21     1     1     2   514   511  2.953359033E-01  8.472884564E+00 -2.961914119E+00  8.980530685E+00  3.097148194E-07  0.00000E+00  9.000E+00
</event>
<event>
      5  10001  2.40292E+09  8.34713E+00 -1.00000E+00  2.05223E-01
       2    -1     0     0   514     0  0.000000000E+00  0.000000000E+00  9.255160256E+01  9.255160256E+01  0.000000000E+00  0.00000E+00  9.000E+00
      21    -1     0     0   513   511  0.000000000E+00  0.000000000E+00 -3.533813342E+02  3.533813342E+02  0.000000000E+00  0.00000E+00  9.000E+00
      21     1     1     2   514   512 -2.630676571E-01 -8.258003819E+00 -3.002078149E+02  3.003214877E+02  5.394796609E-06  0.00000E+00  9.000E+00
       2     1     1     2   513     0 -7.623902038E+00  7.404259451E+00  9.189028322E+01  9.250340529E+01  3.300000131E-01  0.00000E+00  9.000E+00
      21     1     1     2   512   511  7.886969695E+00  8.537443673E-01 -5.251219989E+01  5.310804372E+01  0.000000000E+00  0.00000E+00  9.000E+00
</event>
<event>
      5  10001  2.40292E+09  5.98111E+00 -1.00000E+00  2.25606E-01
      21    -1     0     0   513   511  0.000000000E+00  0.000000000E+00  9.078527045E+00  9.078527045E+00  0.000000000E+00  0.00000E+00  9.000E+00
      21    -1     0     0   512   516  0.000000000E+00  0.000000000E+00 -9.165608660E+01  9.165608660E+01  0.000000000E+00  0.00000E+00  9.000E+00
      21     1     1     2   515   516  2.652220931E+00 -1.825553703E+01 -7.396847939E+01  7.623407933E+01  1.651812370E-06  0.00000E+00  9.000E+00
      21     1     1     2   512   511 -5.276975418E+00  1.288112248E+01 -1.131216880E+01  1.793697157E+01  4.298152060E-07  0.00000E+00  9.000E+00
      21     1     1     2   513   515  2.624754487E+00  5.374414543E+00  2.703088637E+00  6.563562750E+00  9.884312124E-08  0.00000E+00  9.000E+00
</event>
<event>
      5  10001  2.40292E+09  1.03681E+01 -1.00000E+00  1.93903E-01
      21    -1     0     0   514   512  0.000000000E+00  0.000000000E+00  5.303042122E+01  5.303042122E+01  0.000000000E+00  0.00000E+00  9.000E+00
      21    -1     0     0   517   515  0.000000000E+00  0.000000000E+00 -8.656902573E+00  8.656902573E+00  0.000000000E+00  0.00000E+00  9.000E+00
      21     1     1     2   514   515  1.905933187E+00 -1.673291593E+01  3.601931006E+01  3.976196366E+01  4.768371582E-07  0.00000E+00  9.000E+00
      21     1     1     2   511   512  3.410648588E+00  7.846626028E+00 -1.013430260E-01  8.556420643E+00  2.623554041E-07  0.00000E+00  9.000E+00
      21     1     1     2   517   511 -5.316581775E+00  8.886289903E+00  8.455551614E+00  1.336893949E+01  2.384185791E-07  0.00000E+00  9.000E+00
</event>
<event>
      5  10001  2.40292E+09  7.33733E+00 -1.00000E+00  2.12635E-01
      21    -1     0     0   512   511  0.000000000E+00  0.000000000E+00  3.895953180E+02  3.895953180E+02  0.000000000E+00  0.00000E+00  9.000E+00
      21    -1     0     0   517   516  0.000000000E+00  0.000000000E+00 -6.225539466E+00  6.225539466E+00  0.000000000E+00  0.00000E+00  9.000E+00
      21     1     1     2   513   516 -2.768880852E-01 -3.694857434E+01  6.559618884E+01  7.528700952E+01  1.651812370E-06  0.00000E+00  9.000E+00
      21     1     1     2   517   511 -2.191012180E+00  3.003873301E+01  1.750782780E+02  1.776500195E+02  3.303624740E-06  0.00000E+00  9.000E+00
      21     1     1     2   512   513  2.467900265E+00  6.909841328E+00  1.426953117E+02  1.428838284E+02  1.907348633E-06  0.00000E+00  9.000E+00
</event>
<event>
      5  10001  2.40292E+09  4.57249E+00 -1.00000E+00  2.50396E-01
      21    -1     0     0   514   516  0.000000000E+00  0.000000000E+00  3.017690404E+01  3.017690404E+01  0.000000000E+00  0.00000E+00  9.000E+00
      21    -1     0     0   515   513  0.000000000E+00  0.000000000E+00 -6.700480878E+00  6.700480878E+00  0.000000000E+00  0.00000E+00  9.000E+00
      21     1     1     2   514   513  6.011446269E+00 -1.155314512E+01  4.766619190E+00  1.386842843E+01  2.920019320E-07  0.00000E+00  9.000E+00
      21     1     1     2   511   516 -8.385241405E-01  4.384427543E+00  5.071973359E+00  6.756570237E+00  1.032382731E-07  0.00000E+00  9.000E+00
      21     1     1     2   515   511 -5.172922129E+00  7.168717581E+00  1.363783061E+01  1.625238625E+01  1.685873940E-07  0.00000E+00  9.000E+00
</event>
<event>
      5  10001  2.40292E+09  9.31537E+00 -1.00000E+00  1.99326E-01
      21    -1     0     0   512   513  0.000000000E+00  0.000000000E+00  1.921090299E+02  1.921090299E+02  0.000000000E+00  0.00000E+00  9.000E+00
      21    -1     0     0   515   517  0.000000000E+00  0.000000000E+00 -4.131390917E+01  4.131390917E+01  0.000000000E+00  0.00000E+00  9.000E+00
      21     1     1     2   512   517  1.139441353E+01  3.726734052E-01  1.781880321E+02  1.785523630E+02  2.697398305E-06  0.00000E+00  9.000E+00
      21     1     1     2   515   511 -1.803686057E+01  6.158327305E+00 -3.691804294E+01  4.154750569E+01  1.507891493E-06  0.00000E+00  9.000E+00
      21     1     1     2   511   513  6.642447040E+00 -6.531000710E+00  9.525131511E+00  1.332307034E+01  2.384185791E-07  0.00000E+00  9.000E+00
</event>
<event>
      5  10001  2.40292E+09  4.99112E+00 -1.00000E+00  2.42608E-01
      21    -1     0     0   514   515  0.000000000E+00  0.000000000E+00  2.471904414E-01  2.471904414E-01  0.000000000E+00  0.00000E+00  9.000E+00
      21    -1     0     0   516   513  0.000000000E+00  0.000000000E+00 -6.340942408E+02  6.340942408E+02  0.000000000E+00  0.00000E+00  9.000E+00
      21     1     1     2   514   513 -8.905061759E+00 -4.671347471E+00 -3.499192460E+02  3.500637089E+02  0.000000000E+00  0.00000E+00  9.000E+00
      21     1     1     2   516   512  1.054279210E+01  4.598739444E+00 -2.713320622E+02  2.715757479E+02  0.000000000E+00  0.00000E+00  9.000E+00
      21     1     1     2   512   515 -1.637730337E+00  7.260802683E-02 -1.259574221E+01  1.270197443E+01  4.460403188E-07  0.00000E+00  9.000E+00
</event>
<event>
      5  10001  2.40292E+09  2.73181E+00 -1.00000E+00  3.09629E-01
      21    -1     0     0   511   513  0.000000000E+00  0.000000000E+00  1.779809597E+00  1.779809597E+00  0.000000000E+00  0.00000E+00  9.000E+00
      21    -1     0     0   517   515  0.000000000E+00  0.000000000E+00 -6.292685695E+01  6.292685695E+01  0.000000000E+00  0.00000E+00  9.000E+00
      21     1     1     2   511   515 -6.101594306E+00 -7.935027243E+00 -2.542601095E+01  2.732537545E+01  3.371747881E-07  0.00000E+00  9.000E+00
      21     1     1     2   517   514  3.441985256E+00  7.434228952E+00 -2.429321965E+01  2.563738566E+01  4.768371582E-07  0.00000E+00  9.000E+00
      21     1     1     2   514   513  2.659609051E+00  5.007982904E-01 -1.142781676E+01  1.174390545E+01  1.685873940E-07  0.00000E+00  9.000E+00
</event>
<event>
      5  10001  2.40292E+09  1.05214E+01 -1.00000E+00  1.93183E-01
       3    -1     0     0   511     0  0.000000000E+00  0.000000000E+00  4.067884392E+02  4.067884392E+02  0.000000000E+00  0.00000E+00  9.000E+00
      -1    -1     0     0     0   511  0.000000000E+00  0.000000000E+00 -4.535723758E+02  4.535723758E+02  0.000000000E+00  0.00000E+00  9.000E+00
      -1     1     1     2     0   512 -2.977423186E+00 -1.072214151E+01 -4.519106816E+02  4.520477878E+02  3.300000131E-01  0.00000E+00  9.000E+00
       3     1     1     2   515     0  1.218111866E+01  7.548993150E+00  3.903760647E+02  3.906393335E+02  5.000000000E-01  0.00000E+00  9.000E+00
      21     1     1     2   512   515 -9.203695472E+00  3.173148357E+00  1.475068027E+01  1.767369371E+01  4.129530925E-07  0.00000E+00  9.000E+00
</event>
<event>
      5  10001  2.40292E+09  4.54198E+00 -1.00000E+00  2.51013E-01
       4    -1     0     0   512     0  0.000000000E+00  0.000000000E+00  4.416903832E+00  4.416903832E+00  0.000000000E+00  0.00000E+00  9.000E+00
      21    -1     0     0   514   511  0.000000000E+00  0.000000000E+00 -6.323769970E+02  6.323769970E+02  0.000000000E+00  0.00000E+00  9.000E+00
      21     1     1     2   512   511 -1.056049790E+01  2.411644067E+00 -2.424338987E+02  2.426757824E+02  0.000000000E+00  0.00000E+00  9.000E+00
       4     1     1     2   513     0  1.066724406E+01  2.128144796E+00 -2.755991666E+00  1.132097991E+01  1.500000000E+00  0.00000E+00  9.000E+00
      21     1     1     2   514   513 -1.067461650E-01 -4.539788862E+00 -3.827702029E+02  3.827971386E+02  0.000000000E+00  0.00000E+00  9.000E+00
</event>
<event>
      5  10001  2.40292E+09  1.26103E+01 -1.00000E+00  1.84739E-01
      21    -1     0     0   515   511  0.000000000E+00  0.000000000E+00  1.671717164E+00  1.671717164E+00  0.000000000E+00  0.00000E+00  9.000E+00
      21    -1     0     0   514   516  0.000000000E+00  0.000000000E+00 -1.569428112E+02  1.569428112E+02  0.000000000E+00  0.00000E+00  9.000E+00
      21     1     1     2   515   516 -7.127680146E+00  8.781285094E+00 -3.166217336E+01  3.362154093E+01  4.768371582E-07  0.00000E+00  9.000E+00
      21     1     1     2   512   511 -1.097033233E+00 -9.636384998E+00 -8.190119220E+01  8.247344228E+01  1.651812370E-06  0.00000E+00  9.000E+00
      21     1     1     2   514   512  8.224713378E+00  8.550999038E-01 -4.170772844E+01  4.251954512E+01  4.768371582E-07  0.00000E+00  9.000E+00
</event>
<event>
      5  10001  2.40292E+09  1.04369E+01 -1.00000E+00  1.93577E-01
      21    -1     0     0   513   514  0.000000000E+00  0.000000000E+00  1.400006900E+02  1.400006900E+02  0.000000000E+00  0.00000E+00  9.000E+00
      -1    -1     0     0     0   515  0.000000000E+00  0.000000000E+00 -1.252776725E+01  1.252776725E+01  0.000000000E+00  0.00000E+00  9.000E+00
      -1     1     1     2     0   511 -8.338569661E+00  1.714652091E+01  3.188374986E-01  1.907211264E+01  3.300000131E-01  0.00000E+00  9.000E+00
      21     1     1     2   511   514  6.197245560E-01 -1.012192182E+01  1.208264095E+02  1.212512210E+02  0.000000000E+00  0.00000E+00  9.000E+00
      21     1     1     2   513   515  7.718845105E+00 -7.024599084E+00  6.327675754E+00  1.220512362E+01  1.192092896E-07  0.00000E+00  9.000E+00
</event>
<event>
      5  10001  2.40292E+09  6.00010E+00 -1.00000E+00  2.25392E-01
      21    -1     0     0   512   511  0.000000000E+00  0.000000000E+00  7.161508705E+02  7.161508705E+02  0.000000000E+00  0.00000E+00  9.000E+00
      21    -1     0     0   517   516  0.000000000E+00  0.000000000E+00 -5.913800079E-01  5.913800079E-01  0.000000000E+00  0.00000E+00  9.000E+00
      21     1     1     2   512   516  9.387112311E+00 -1.385364393E+01  1.593830564E+02  1.602591651E+02  1.907348633E-06  0.00000E+00  9.000E+00
       1     1     1     2   517     0 -2.782759089E+00  1.026001774E+01  3.741386513E+02  3.742897955E+02  3.300000131E-01  0.00000E+00  9.000E+00
      -1     1     1     2     0   511 -6.604353222E+00  3.593626196E+00  1.820377828E+02  1.821932899E+02  3.300000131E-01  0.00000E+00  9.000E+00
</event>
<event>
      5  10001  2.40292E+09  5.62106E+00 -1.00000E+00  2.29882E-01
      21    -1     0     0   515   512  0.000000000E+00  0.000000000E+00  3.049768260E+01  3.049768260E+01  0.000000000E+00  0.00000E+00  9.000E+00
      21    -1     0     0   513   514  0.000000000E+00  0.000000000E+00 -2.921153824E+01  2.921153824E+01  0.000000000E+00  0.00000E+00  9.000E+00
      21     1     1     2   515   514 -8.928469822E+00  2.808904063E-02 -1.764940835E+00  9.101284443E+00  2.715120786E-07  0.00000E+00  9.000E+00
       5     1     1     2   513     0  1.420172156E+01  1.651721256E+00 -2.078004118E+01  2.567619893E+01  4.800000191E+00  0.00000E+00  9.000E+00
      -5     1     1     2     0   512 -5.273251740E+00 -1.679810296E+00  2.383112638E+01  2.493173746E+01  4.800000191E+00  0.00000E+00  9.000E+00
</event>
<event>
      5  10001  2.40292E+09  3.95799E+00 -1.00000E+00  2.64446E-01
      -1    -1     0     0     0   511  0.000000000E+00  0.000000000E+00  4.946183435E+01  4.946183435E+01  0.000000000E+00  0.00000E+00  9.000E+00
      21    -1     0     0   512   513  0.000000000E+00  0.000000000E+00 -7.993425867E+01  7.993425867E+01  0.000000000E+00  0.00000E+00  9.000E+00
      -1     1     1     2     0   515  3.495116806E+00 -1.440318293E+01  4.735521667E+01  4.962149702E+01  3.300000131E-01  0.00000E+00  9.000E+00
      21     1     1     2   512   511 -6.447287897E+00  1.176686497E+01 -6.401813306E+01  6.540908189E+01  1.348699152E-06  0.00000E+00  9.000E+00
      21     1     1     2   515   513  2.952171091E+00  2.636317961E+00 -1.380950793E+01  1.436551411E+01  1.685873940E-07  0.00000E+00  9.000E+00
</event>
<event>
      5  10001  2.40292E+09  1.75221E+01 -1.00000E+00  1.71208E-01
      21    -1     0     0   514   512  0.000000000E+00  0.000000000E+00  1.992759153E+01  1.992759153E+01  0.000000000E+00  0.00000E+00  9.000E+00
      21    -1     0     0   515   516  0.000000000E+00  0.000000000E+00 -8.681027590E+00  8.681027590E+00  0.000000000E+00  0.00000E+00  9.000E+00
      21     1     1     2   514   516 -6.618946216E+00  6.483111713E+00  9.507342455E+00  1.327519292E+01  2.064765462E-07  0.00000E+00  9.000E+00
      21     1     1     2   511   512  4.256167385E+00  1.063676730E+00  5.111833498E+00  6.736260885E+00  1.032382731E-07  0.00000E+00  9.000E+00
      21     1     1     2   515   511  2.362778831E+00 -7.546788444E+00 -3.372612016E+00  8.597165314E+00  3.009887021E-07  0.00000E+00  9.000E+00
</event>
<event>
      5  10001  2.40292E+09  5.18728E+00 -1.00000E+00  2.35673E-01
      21    -1     0     0   511   514  0.000000000E+00  0.000000000E+00  3.923480884E+01  3.923480884E+01  0.000000000E+00  0.00000E+00  9.000E+00
       1    -1     0     0   512     0  0.000000000E+00  0.000000000E+00 -3.502927421E+02  3.502927421E+02  0.000000000E+00  0.00000E+00  9.000E+00
      21     1     1     2   511   513  4.679691629E+00 -1.017011308E+01 -3.562714696E+01  3.734466916E+01  1.507891493E-06  0.00000E+00  9.000E+00
       1     1     1     2   513     0 -9.556234166E+00  8.401760137E+00 -3.135018035E+02  3.137601009E+02  3.300000131E-01  0.00000E+00  9.000E+00
      21     1     1     2   512   514  4.876542537E+00  1.768352947E+00  3.807101724E+01  3.842278091E+01  1.168007728E-06  0.00000E+00  9.000E+00
</event>
<event>
      5  10001  2.40292E+09  5.75192E+00 -1.00000E+00  2.28278E-01
      21    -1     0     0   515   511  0.000000000E+00  0.000000000E+00  1.714572231E+02  1.714572231E+02  0.000000000E+00  0.00000E+00  9.000E+00
      21    -1     0     0   512   514  0.000000000E+00  0.000000000E+00 -1.453813904E+01  1.453813904E+01  0.000000000E+00  0.00000E+00  9.000E+00
      21     1     1     2   515   514  8.002806811E+00  9.166846818E+00 -8.953835720E+00  1.510785132E+01  3.153981341E-07  0.00000E+00  9.000E+00
      21     1     1     2   512   513 -8.100438178E+00 -3.415758180E+00  5.411891520E+00  1.032342348E+01  0.000000000E+00  0.00000E+00  9.000E+00
      21     1     1     2   513   511  9.763136667E-02 -5.751088638E+00  1.604610282E+02  1.605640873E+02  1.907348633E-06  0.00000E+00  9.000E+00
</event>
<event>
      5  10001  2.40292E+09  1.04614E+01 -1.00000E+00  1.93463E-01
      21    -1     0     0   513   511  0.000000000E+00  0.000000000E+00  9.846805647E+00  9.846805647E+00  0.000000000E+00  0.00000E+00  9.000E+00
      -3    -1     0     0     0   516  0.000000000E+00  0.000000000E+00 -8.105143291E+01  8.105143291E+01  0.000000000E+00  0.00000E+00  9.000E+00
      -3     1     1     2     0   511  7.536689959E+00 -4.870101834E+00 -6.748480798E+01  6.808060587E+01  5.000000000E-01  0.00000E+00  9.000E+00
      21     1     1     2   513   512 -6.987602011E+00 -1.423988830E+00  7.243084665E+00  1.016447743E+01  4.129530925E-07  0.00000E+00  9.000E+00
      21     1     1     2   512   516 -5.490879476E-01  6.294090665E+00 -1.096290394E+01  1.265315525E+01  1.685873940E-07  0.00000E+00  9.000E+00
</event>
<event>
      5  10001  2.40292E+09  6.44783E+00 -1.00000E+00  2.20649E-01
      21    -1     0     0   514   516  0.000000000E+00  0.000000000E+00  2.720697047E+01  2.720697047E+01  0.000000000E+00  0.00000E+00  9.000E+00
      21    -1     0     0   511   515  0.000000000E+00  0.000000000E+00 -8.871070902E+01  8.871070902E+01  0.000000000E+00  0.00000E+00  9.000E+00
      21     1     1     2   514   515 -1.237220906E+01  4.961482749E+00 -8.627310443E+01  8.729682936E+01  1.348699152E-06  0.00000E+00  9.000E+00
      21     1     1     2   511   513  2.654930597E+00 -1.035668317E+00  1.072467032E+01  1.109683824E+01  6.419616708E-07  0.00000E+00  9.000E+00
      21     1     1     2   513   516  9.717278463E+00 -3.925814432E+00  1.404469555E+01  1.752401189E+01  4.460403188E-07  0.00000E+00  9.000E+00
</event>
<event>
      5  10001  2.40292E+09  1.13223E+01 -1.00000E+00  1.89667E-01
      21    -1     0     0   512   511  0.000000000E+00  0.000000000E+00  1.500246431E+01  1.500246431E+01  0.000000000E+00  0.00000E+00  9.000E+00
      21    -1     0     0   516   512  0.000000000E+00  0.000000000E+00 -1.352620480E+02  1.352620480E+02  0.000000000E+00  0.00000E+00  9.000E+00
      21     1     1     2   516   517 -1.345561651E+01  3.598178350E+00 -1.285835617E+02  1.293357369E+02  2.697398305E-06  0.00000E+00  9.000E+00
      21     1     1     2   514   511  5.547758357E+00  3.871393352E+00  7.377715420E+00  1.000979491E+01  5.591411304E-07  0.00000E+00  9.000E+00
      21     1     1     2   517   514  7.907858157E+00 -7.469571702E+00  9.462625811E-01  1.091898049E+01  2.821400200E-07  0.00000E+00  9.000E+00
</event>
<event>
      5  10001  2.40292E+09  2.98833E+00 -1.00000E+00  2.97243E-01
      21    -1     0     0   513   511  0.000000000E+00  0.000000000E+00  1.037863176E+02  1.037863176E+02  0.000000000E+00  0.00000E+00  9.000E+00
       2    -1     0     0   514     0  0.000000000E+00  0.000000000E+00 -2.033492202E+00  2.033492202E+00  0.000000000E+00  0.00000E+00  9.000E+00
      21     1     1     2   514   511  1.140850157E+01  8.659574518E+00  5.576744163E+01  5.757733655E+01  9.536743164E-07  0.00000E+00  9.000E+00
       2     1     1     2   512     0 -4.355309897E+00 -4.934788993E+00  2.197357339E+01  2.294052515E+01  3.300000131E-01  0.00000E+00  9.000E+00
      21     1     1     2   513   512 -7.053191668E+00 -3.724785524E+00  2.401181042E+01  2.530194814E+01  3.371747881E-07  0.00000E+00  9.000E+00
</event>
<event>
      5  10001  2.40292E+09  4.45106E+00 -1.00000E+00  2.52896E-01
       2    -1     0     0   514     0  0.000000000E+00  0.000000000E+00  7.677389879E-01  7.677389879E-01  0.000000000E+00  0.00000E+00  9.000E+00
       1    -1     0     0   511     0  0.000000000E+00  0.000000000E+00 -3.314969314E+02  3.314969314E+02  0.000000000E+00  0.00000E+00  9.000E+00
       1     1     1     2   513     0  2.179423323E+00  9.910023771E+00 -1.815179032E+02  1.818015856E+02  3.300000131E-01  0.00000E+00  9.000E+00
       2     1     1     2   511     0 -5.825585712E+00 -1.246085272E+01 -1.307988536E+02  1.315205661E+02  3.300000131E-01  0.00000E+00  9.000E+00
      21     1     1     2   514   513  3.646162389E+00  2.550828948E+00 -1.841243565E+01  1.894251871E+01  3.371747881E-07  0.00000E+00  9.000E+00
</event>
<event>
      5  10001  2.40292E+09  6.99674E+00 -1.00000E+00  2.15511E-01
      21    -1     0     0   516   511  0.000000000E+00  0.000000000E+00  3.437352492E+02  3.437352492E+02  0.000000000E+00  0.00000E+00  9.000E+00
      21    -1     0     0   515   513  0.000000000E+00  0.000000000E+00 -1.482611100E+02  1.482611100E+02  0.000000000E+00  0.00000E+00  9.000E+00
      21     1     1     2   512   513  6.227328559E+00 -9.736863089E+00 -6.537120142E+01  6.638508943E+01  0.000000000E+00  0.00000E+00  9.000E+00
      21     1     1     2   515   511  7.317226759E-01  1.046214394E+01 -8.201334563E+01  8.268119941E+01  1.348699152E-06  0.00000E+00  9.000E+00
      21     1     1     2   516   512 -6.959051235E+00 -7.252808501E-01  3.428586863E+02  3.429300704E+02  3.814697266E-06  0.00000E+00  9.000E+00
</event>
<event>
      5  10001  2.40292E+09  2.54726E+01 -1.00000E+00  1.58107E-01
      21    -1     0     0   514   513  0.000000000E+00  0.000000000E+00  4.789025576E+01  4.789025576E+01  0.000000000E+00  0.00000E+00  9.000E+00
      21    -1     0     0   517   512  0.000000000E+00  0.000000000E+00 -1.730392454E+01  1.730392454E+01  0.000000000E+00  0.00000E+00  9.000E+00
      21     1     1     2   514   512  4.262781601E+00 -1.299597335E+01  2.587315440E+01  2.926579486E+01  0.000000000E+00  0.00000E+00  9.000E+00
      21     1     1     2   511   513 -1.526324941E+01  4.739251187E+00 -7.389197951E+00  1.760759867E+01  2.665600750E-07  0.00000E+00  9.000E+00
      21     1     1     2   517   511  1.100046781E+01  8.256722164E+00  1.210237477E+01  1.832078677E+01  0.000000000E+00  0.00000E+00  9.000E+00
</event>
<event>
      5  10001  2.40292E+09  8.79773E+00 -1.00000E+00  2.02353E-01
      -3    -1     0     0     0   511  0.000000000E+00  0.000000000E+00  5.600032871E+01  5.600032871E+01  0.000000000E+00  0.00000E+00  9.000E+00
      21    -1     0     0   517   516  0.000000000E+00  0.000000000E+00 -1.784081191E+01  1.784081191E+01  0.000000000E+00  0.00000E+00  9.000E+00
      21     1     1     2   515   516  6.248107619E+00 -1.317156823E+01  1.388008270E+01  2.012922637E+01  2.384185791E-07  0.00000E+00  9.000E+00
      21     1     1     2   517   511  5.338976128E-01  7.568825640E+00 -1.319201816E+01  1.521845956E+01  2.920019320E-07  0.00000E+00  9.000E+00
      -3     1     1     2     0   515 -6.782005232E+00  5.602742594E+00  3.747145226E+01  3.849345469E+01  5.000000000E-01  0.00000E+00  9.000E+00
</event>
<event>
      5  10001  2.40292E+09  3.12410E+00 -1.00000E+00  2.91492E-01
      21    -1     0     0   511   515  0.000000000E+00  0.000000000E+00  2.072255214E+01  2.072255214E+01  0.000000000E+00  0.00000E+00  9.000E+00
      21    -1     0     0   514   513  0.000000000E+00  0.000000000E+00 -3.967786976E+01  3.967786976E+01  0.000000000E+00  0.00000E+00  9.000E+00
      21     1     1     2   512   513  9.539751778E+00  8.026780181E+00  1.066152965E+01  1.640439815E+01  2.920019320E-07  0.00000E+00  9.000E+00
      21     1     1     2   514   515 -9.770484430E+00 -4.911207578E+00 -3.560253563E+01  3.724409844E+01  0.000000000E+00  0.00000E+00  9.000E+00
      21     1     1     2   511   512  2.307326523E-01 -3.115572604E+00  5.985688361E+00  6.751925308E+00  8.429369702E-08  0.00000E+00  9.000E+00
</event>
<event>
      5  10001  2.40292E+09  4.67919E+00 -1.00000E+00  2.48294E-01
      21    -1     0     0   516   513  0.000000000E+00  0.000000000E+00  5.827486084E+01  5.827486084E+01  0.000000000E+00  0.00000E+00  9.000E+00
      21    -1     0     0   517   512  0.000000000E+00  0.000000000E+00 -9.412442827E+01  9.412442827E+01  0.000000000E+00  0.00000E+00  9.000E+00
      21     1     1     2   516   512  5.714838778E+00  8.655675498E+00 -9.265731206E+01  9.323603155E+01  1.348699152E-06  0.00000E+00  9.000E+00
      21     1     1     2   517   514 -2.124631614E+00 -1.046435873E+01  5.096203507E+01  5.206866507E+01  6.743495762E-07  0.00000E+00  9.000E+00
      21     1     1     2   514   513 -3.590207164E+00  1.808683227E+00  5.845709553E+00  7.094592496E+00  8.429369702E-08  0.00000E+00  9.000E+00
</event>
<event>
      5  10001  2.40292E+09  5.33110E+00 -1.00000E+00  2.33667E-01
      21    -1     0     0   514   513  0.000000000E+00  0.000000000E+00  1.336346999E+01  1.336346999E+01  0.000000000E+00  0.00000E+00  9.000E+00
       2    -1     0     0   512     0  0.000000000E+00  0.000000000E+00 -2.517434688E+01  2.517434688E+01  0.000000000E+00  0.00000E+00  9.000E+00
      21     1     1     2   514   511  9.733349203E-01  9.048049599E+00  7.018807379E+00  1.149252972E+01  2.795705652E-07  0.00000E+00  9.000E+00
       2     1     1     2   511     0 -3.886371383E+00 -1.351230352E+01 -1.311042523E+01  1.922702210E+01  3.300000131E-01  0.00000E+00  9.000E+00
      21     1     1     2   512   513  2.913036463E+00  4.464253921E+00 -5.719259033E+00  7.818265049E+00  1.192092896E-07  0.00000E+00  9.000E+00
</event>
<event>
      5  10001  2.40292E+09  1.61437E+01 -1.00000E+00  1.74383E-01
      21    -1     0     0   515   511  0.000000000E+00  0.000000000E+00  1.602845292E+02  1.602845292E+02  0.000000000E+00  0.00000E+00  9.000E+00
      21    -1     0     0   514   515  0.000000000E+00  0.000000000E+00 -2.929960409E+01  2.929960409E+01  0.000000000E+00  0.00000E+00  9.000E+00
      21     1     1     2   512   513 -1.235706060E+01  2.197564624E-01  1.013266153E+01  1.598174174E+01  8.172577143E-07  0.00000E+00  9.000E+00
      21     1     1     2   513   511  1.699440336E+01 -1.568310518E+01  1.437431651E+02  1.455914388E+02  0.000000000E+00  0.00000E+00  9.000E+00
      21     1     1     2   514   512 -4.637342768E+00  1.546334872E+01 -2.289090153E+01  2.801095276E+01  6.743495762E-07  0.00000E+00  9.000E+00
</event>
<event>
      5  10001  2.40292E+09  4.04263E+00 -1.00000E+00  2.62283E-01
      21    -1     0     0   516   513  0.000000000E+00  0.000000000E+00  4.603028271E+00  4.603028271E+00  0.000000000E+00  0.00000E+00  9.000E+00
      21    -1     0     0   511   512  0.000000000E+00  0.000000000E+00 -1.821254454E+02  1.821254454E+02  0.000000000E+00  0.00000E+00  9.000E+00
      21     1     1     2   516   512 -4.699200710E+00  1.458469071E+01 -5.254506388E+01  5.473371382E+01  6.743495762E-07  0.00000E+00  9.000E+00
      21     1     1     2   514   513  1.401224607E+00 -1.692267738E+01 -1.729840553E+01  2.423995202E+01  3.371747881E-07  0.00000E+00  9.000E+00
      21     1     1     2   511   514  3.297976103E+00  2.337986666E+00 -1.076789478E+02  1.077548079E+02  1.348699152E-06  0.00000E+00  9.000E+00
</event>
<event>
      5  10001  2.40292E+09  2.21199E+00 -1.00000E+00  3.43625E-01
      21    -1     0     0   515   512  0.000000000E+00  0.000000000E+00  5.014800294E+00  5.014800294E+00  0.000000000E+00  0.00000E+00  9.000E+00
      21    -1     0     0   511   517  0.000000000E+00  0.000000000E+00 -2.689358424E+01  2.689358424E+01  0.000000000E+00  0.00000E+00  9.000E+00
      21     1     1     2   515   517 -5.039376263E-01 -1.147376629E+01 -9.583483869E+00  1.495808909E+01  2.384185791E-07  0.00000E+00  9.000E+00
      21     1     1     2   513   512  9.239239628E-01  5.342284008E+00 -4.662126153E+00  7.150458319E+00  1.332800375E-07  0.00000E+00  9.000E+00
      21     1     1     2   511   513 -4.199863365E-01  6.131482287E+00 -7.633173926E+00  9.799837129E+00  1.460009660E-07  0.00000E+00  9.000E+00
</event>
<event>
      5  10001  2.40292E+09  4.97712E+00 -1.00000E+00  2.42849E-01
      21    -1     0     0   514   513  0.000000000E+00  0.000000000E+00  3.482657076E+01  3.482657076E+01  0.000000000E+00  0.00000E+00  9.000E+00
      21    -1     0     0   511   516  0.000000000E+00  0.000000000E+00 -3.248221811E+01  3.248221811E+01  0.000000000E+00  0.00000E+00  9.000E+00
      21     1     1     2   514   516  1.302939028E+00 -1.119035668E+01 -3.048112523E+01  3.249647255E+01  6.743495762E-07  0.00000E+00  9.000E+00
      21     1     1     2   511   512 -1.153279940E+00  3.286693987E+00  7.255505384E+00  8.048277478E+00  0.000000000E+00  0.00000E+00  9.000E+00
      21     1     1     2   512   513 -1.496590879E-01  7.903662695E+00  2.556997250E+01  2.676403885E+01  4.768371582E-07  0.00000E+00  9.000E+00
</event>
<event>
      5  10001  2.40292E+09  3.81345E+00 -1.00000E+00  2.68343E-01
      -2    -1     0     0     0   513  0.000000000E+00  0.000000000E+00  7.736134903E+00  7.736134903E+00  0.000000000E+00  0.00000E+00  9.000E+00
      21    -1     0     0   513   514  0.000000000E+00  0.000000000E+00 -1.490369213E+02  1.490369213E+02  0.000000000E+00  0.00000E+00  9.000E+00
      -2     1     1     2     0   512 -1.206961433E+01  7.323991192E+00  5.491050771E-01  1.413247513E+01  3.300000131E-01  0.00000E+00  9.000E+00
      21     1     1     2   512   511  6.683601137E+00 -2.695194213E+00 -9.277788946E+01  9.305735526E+01  1.907348633E-06  0.00000E+00  9.000E+00
      21     1     1     2   511   514  5.386013192E+00 -4.628796979E+00 -4.907200202E+01  4.958322581E+01  6.743495762E-07  0.00000E+00  9.000E+00
</event>
<event>
      5  10001  2.40292E+09  6.77873E+00 -1.00000E+00  2.17472E-01
       3    -1     0     0   514     0  0.000000000E+00  0.000000000E+00  3.191359872E+00  3.191359872E+00  0.000000000E+00  0.00000E+00  9.000E+00
       2    -1     0     0   512     0  0.000000000E+00  0.000000000E+00 -6.961343818E+02  6.961343818E+02  0.000000000E+00  0.00000E+00  9.000E+00
      21     1     1     2   512   511 -9.963344465E-01 -1.496767953E+01 -3.749828951E+01  4.038744643E+01  8.259061849E-07  0.00000E+00  9.000E+00
       3     1     1     2   511     0 -2.627464820E+00  9.239379211E+00 -1.164952258E+01  1.510731862E+01  5.000000000E-01  0.00000E+00  9.000E+00
       2     1     1     2   514     0  3.623799266E+00  5.728300323E+00 -6.437952098E+02  6.438309766E+02  3.300000131E-01  0.00000E+00  9.000E+00
</event>
<event>
      5  10001  2.40292E+09  1.76423E+01 -1.00000E+00  1.70949E-01
      21    -1     0     0   513   511  0.000000000E+00  0.000000000E+00  1.756706863E+01  1.756706863E+01  0.000000000E+00  0.00000E+00  9.000E+00
      21    -1     0     0   515   513  0.000000000E+00  0.000000000E+00 -3.833804193E+01  3.833804193E+01  0.000000000E+00  0.00000E+00  9.000E+00
      21     1     1     2   515   512  8.110617539E+00 -5.485468211E+00 -3.451931361E+01  3.588113000E+01  4.768371582E-07  0.00000E+00  9.000E+00
      21     1     1     2   512   516 -6.195743520E+00  1.732543513E+00  8.921132220E-01  6.494983510E+00  4.214684851E-08  0.00000E+00  9.000E+00
      21     1     1     2   516   511 -1.914874019E+00  3.752924697E+00  1.285622708E+01  1.352899704E+01  2.384185791E-07  0.00000E+00  9.000E+00
</event>
<event>
      5  10001  2.40292E+09  1.25108E+01 -1.00000E+00  1.85092E-01
      21    -1     0     0   513   512  0.000000000E+00  0.000000000E+00  2.121874933E+01  2.121874933E+01  0.000000000E+00  0.00000E+00  9.000E+00
      21    -1     0     0   515   511  0.000000000E+00  0.000000000E+00 -1.119189175E+03  1.119189175E+03  0.000000000E+00  0.00000E+00  9.000E+00
      21     1     1     2   514   511  1.484714971E+01  4.044261969E+00 -1.106015033E+03  1.106122076E+03  2.157918644E-05  0.00000E+00  9.000E+00
      21     1     1     2   515   512 -8.600393272E+00 -1.488395074E+01 -3.175289577E+00  1.748088150E+01  1.074538015E-06  0.00000E+00  9.000E+00
      21     1     1     2   513   514 -6.246756439E+00  1.083968877E+01  1.121989696E+01  1.680496672E+01  7.633118912E-07  0.00000E+00  9.000E+00
</event>
<event>
      5  10001  2.40292E+09  8.83410E+00 -1.00000E+00  2.02131E-01
      21    -1     0     0   515   512  0.000000000E+00  0.000000000E+00  5.290873378E-01  5.290873378E-01  0.000000000E+00  0.00000E+00  9.000E+00
       1    -1     0     0   512     0  0.000000000E+00  0.000000000E+00 -6.478038429E+02  6.478038429E+02  0.000000000E+00  0.00000E+00  9.000E+00
      21     1     1     2   515   516  6.236578338E+00 -9.496997275E+00 -8.080343966E+01  8.159830714E+01  1.348699152E-06  0.00000E+00  9.000E+00
       1     1     1     2   511     0 -8.621668760E+00  3.432856266E+00 -4.377461329E+02  4.378446111E+02  3.300000131E-01  0.00000E+00  9.000E+00
      21     1     1     2   516   511  2.385090422E+00  6.064141009E+00 -1.287251830E+02  1.288900120E+02  2.697398305E-06  0.00000E+00  9.000E+00
</event>
<event>
      5  10001  2.40292E+09  1.87885E+01 -1.00000E+00  1.68597E-01
      21    -1     0     0   513   511  0.000000000E+00  0.000000000E+00  8.955502112E-01  8.955502112E-01  0.000000000E+00  0.00000E+00  9.000E+00
      21    -1     0     0   512   514  0.000000000E+00  0.000000000E+00 -2.957544811E+02  2.957544811E+02  0.000000000E+00  0.00000E+00  9.000E+00
      21     1     1     2   513   514 -8.195639448E+00  1.116183356E+00 -3.258652608E+01  3.361987586E+01  4.768371582E-07  0.00000E+00  9.000E+00
      21     1     1     2   515   511  7.897747806E+00  6.610711553E+00 -9.057037640E+01  9.115409486E+01  1.907348633E-06  0.00000E+00  9.000E+00
      21     1     1     2   512   515  2.978916418E-01 -7.726894909E+00 -1.717020284E+02  1.718760606E+02  1.907348633E-06  0.00000E+00  9.000E+00
</event>
<event>
      5  10001  2.40292E+09  4.27777E+00 -1.00000E+00  2.56681E-01
      21    -1     0     0   516   514  0.000000000E+00  0.000000000E+00  1.688375709E+02  1.688375709E+02  0.000000000E+00  0.00000E+00  9.000E+00
      21    -1     0     0   512   516  0.000000000E+00  0.000000000E+00 -2.434119934E+00  2.434119934E+00  0.000000000E+00  0.00000E+00  9.000E+00
      21     1     1     2   512   517 -8.783769915E+00  5.836893222E+00  1.117532064E+01  1.536592749E+01  3.153981341E-07  0.00000E+00  9.000E+00
      21     1     1     2   511   514  5.581091881E+00 -6.772553208E+00  1.417274695E+02  1.419989144E+02  0.000000000E+00  0.00000E+00  9.000E+00
      21     1     1     2   517   511  3.202678033E+00  9.356599857E-01  1.350066081E+01  1.390684898E+01  0.000000000E+00  0.00000E+00  9.000E+00
</event>
<event>
      5  10001  2.40292E+09  8.72730E+00 -1.00000E+00  2.02786E-01
      -2    -1     0     0     0   513  0.000000000E+00  0.000000000E+00  1.176110020E+01  1.176110020E+01  0.000000000E+00  0.00000E+00  9.000E+00
      21    -1     0     0   513   515  0.000000000E+00  0.000000000E+00 -1.950928792E+01  1.950928792E+01  0.000000000E+00  0.00000E+00  9.000E+00
      -2     1     1     2     0   512 -2.150108077E+00 -1.173081230E+01  3.203111815E+00  1.235328893E+01  3.300000131E-01  0.00000E+00  9.000E+00
      21     1     1     2   514   515  5.986173451E+00  5.857544062E+00 -6.587604058E+00  1.065559113E+01  2.528810911E-07  0.00000E+00  9.000E+00
      21     1     1     2   512   514 -3.836065375E+00  5.873268241E+00 -4.363695478E+00  8.261508071E+00  2.598106231E-07  0.00000E+00  9.000E+00
</event>
<event>
      5  10001  2.40292E+09  4.82310E+00 -1.00000E+00  2.45590E-01
      21    -1     0     0   511   513  0.000000000E+00  0.000000000E+00  6.634424313E+02  6.634424313E+02  0.000000000E+00  0.00000E+00  9.000E+00
      21    -1     0     0   512   515  0.000000000E+00  0.000000000E+00 -6.354529060E+01  6.354529060E+01  0.000000000E+00  0.00000E+00  9.000E+00
      21     1     1     2   511   516  3.336874206E+00 -8.820784805E+00  6.617311678E+02  6.617983677E+02  1.078959322E-05  0.00000E+00  9.000E+00
      21     1     1     2   512   513 -4.466467154E+00  1.350974265E+01 -3.274088866E+01  3.569913536E+01  2.236564522E-06  0.00000E+00  9.000E+00
      21     1     1     2   516   515  1.129592949E+00 -4.688957847E+00 -2.909313844E+01  2.949021889E+01  7.539457465E-07  0.00000E+00  9.000E+00
</event>
<event>
      5  10001  2.40292E+09  7.74849E+00 -1.00000E+00  2.09434E-01
       1    -1     0     0   511     0  0.000000000E+00  0.000000000E+00  1.816074212E+01  1.816074212E+01  0.000000000E+00  0.00000E+00  9.000E+00
      21    -1     0     0   516   511  0.000000000E+00  0.000000000E+00 -2.601400584E+01  2.601400584E+01  0.000000000E+00  0.00000E+00  9.000E+00
      21     1     1     2   516   514  3.898701815E+00  1.148683273E+01 -2.054918884E+01  2.386244673E+01  2.384185791E-07  0.00000E+00  9.000E+00
       1     1     1     2   512     0 -4.735437163E+00 -3.852043735E+00  1.078589190E+01  1.239786151E+01  3.300000131E-01  0.00000E+00  9.000E+00
      21     1     1     2   514   512  8.367353482E-01 -7.634788995E+00  1.910033219E+00  7.914439711E+00  1.800514158E-07  0.00000E+00  9.000E+00
</event>
<event>
      5  10001  2.40292E+09  9.04093E+00 -1.00000E+00  2.00897E-01
      21    -1     0     0   513   516  0.000000000E+00  0.000000000E+00  2.468664429E+01  2.468664429E+01  0.000000000E+00  0.00000E+00  9.000E+00
      21    -1     0     0   511   513  0.000000000E+00  0.000000000E+00 -1.519395482E+01  1.519395482E+01  0.000000000E+00  0.00000E+00  9.000E+00
      21     1     1     2   512   516 -1.396532577E+01  3.285086898E-01 -3.585931298E+00  1.442210613E+01  3.674277069E-07  0.00000E+00  9.000E+00
      21     1     1     2   515   512  8.642844974E+00  6.979676397E+00  1.200102840E+01  1.635357253E+01  0.000000000E+00  0.00000E+00  9.000E+00
      21     1     1     2   511   515  5.322480801E+00 -7.308185086E+00  1.077592368E+00  9.104920453E+00  6.322027277E-08  0.00000E+00  9.000E+00
</event>
<event>
      5  10001  2.40292E+09  3.40762E+00 -1.00000E+00  2.80905E-01
      21    -1     0     0   514   515  0.000000000E+00  0.000000000E+00  1.448087671E-01  1.448087671E-01  0.000000000E+00  0.00000E+00  9.000E+00
      21    -1     0     0   511   517  0.000000000E+00  0.000000000E+00 -8.784791810E+02  8.784791810E+02  0.000000000E+00  0.00000E+00  9.000E+00
      21     1     1     2   514   517 -5.365734392E-01 -1.107404132E+01 -3.915388083E+02  3.916957502E+02  7.629394531E-06  0.00000E+00  9.000E+00
       3     1     1     2   511     0  1.183775537E+00  3.263299746E+00 -1.433664463E+02  1.434093385E+02  5.000000000E-01  0.00000E+00  9.000E+00
      -3     1     1     2     0   515 -6.472020975E-01  7.810741576E+00 -3.434291176E+02  3.435189011E+02  5.000000000E-01  0.00000E+00  9.000E+00
</event>
<event>
      5  10001  2.40292E+09  8.65219E+00 -1.00000E+00  2.03255E-01
      21    -1     0     0   513   511  0.000000000E+00  0.000000000E+00  7.099629161E+01  7.099629161E+01  0.000000000E+00  0.00000E+00  9.000E+00
      -4    -1     0     0     0   512  0.000000000E+00  0.000000000E+00 -2.730121256E+00  2.730121256E+00  0.000000000E+00  0.00000E+00  9.000E+00
      -4     1     1     2     0   511  4.793444428E+00  8.111830424E+00  8.350663614E+00  1.267921469E+01  1.500000000E+00  0.00000E+00  9.000E+00
      21     1     1     2   514   512 -4.512665186E+00 -3.350071853E+00  1.789492809E+01  1.875674758E+01  2.384185791E-07  0.00000E+00  9.000E+00
      21     1     1     2   513   514 -2.807792424E-01 -4.761758571E+00  4.202057865E+01  4.229045060E+01  9.536743164E-07  0.00000E+00  9.000E+00
</event>
<event>
      5  10001  2.40292E+09  1.12175E+01 -1.00000E+00  1.90106E-01
      21    -1     0     0   512   511  0.000000000E+00  0.000000000E+00  2.250997955E+02  2.250997955E+02  0.000000000E+00  0.00000E+00  9.000E+00
      21    -1     0     0   515   512  0.000000000E+00  0.000000000E+00 -2.656775665E+01  2.656775665E+01  0.000000000E+00  0.00000E+00  9.000E+00
      -5     1     1     2     0   514 -3.278300385E+01 -1.036577765E+01  2.477415576E+00  3.480448646E+01  4.800000191E+00  0.00000E+00  9.000E+00
       5     1     1     2   515     0  2.638381053E+01  1.200258948E+00  7.355651288E+00  2.783328381E+01  4.800000191E+00  0.00000E+00  9.000E+00
      21     1     1     2   514   511  6.399193321E+00  9.165518700E+00  1.886989720E+02  1.890297819E+02  3.814697266E-06  0.00000E+00  9.000E+00
</event>
<event>
      5  10001  2.40292E+09  1.77336E+01 -1.00000E+00  1.70753E-01
      21    -1     0     0   512   511  0.000000000E+00  0.000000000E+00  2.942457006E+00  2.942457006E+00  0.000000000E+00  0.00000E+00  9.000E+00
       2    -1     0     0   511     0  0.000000000E+00  0.000000000E+00 -9.523652119E+02  9.523652119E+02  0.000000000E+00  0.00000E+00  9.000E+00
      21     1     1     2   514   513  8.459196785E+00  2.246201018E+01 -6.318781922E+01  6.759290206E+01  2.431401974E-06  0.00000E+00  9.000E+00
       2     1     1     2   513     0 -1.453331502E+01 -5.801357423E+00 -7.678051255E+02  7.679646428E+02  3.300000131E-01  0.00000E+00  9.000E+00
      21     1     1     2   512   514  6.074118237E+00 -1.666065276E+01 -1.184298102E+02  1.197501240E+02  1.348699152E-06  0.00000E+00  9.000E+00
</event>
<event>
      5  10001  2.40292E+09  8.05884E+00 -1.00000E+00  2.07190E-01
       2    -1     0     0   513     0  0.000000000E+00  0.000000000E+00  2.383709623E+02  2.383709623E+02  0.000000000E+00  0.00000E+00  9.000E+00
      21    -1     0     0   512   515  0.000000000E+00  0.000000000E+00 -2.829773438E+00  2.829773438E+00  0.000000000E+00  0.00000E+00  9.000E+00
      21     1     1     2   511   515 -1.706341993E+00 -8.258762562E+00  1.281090475E+01  1.533747185E+01  4.768371582E-07  0.00000E+00  9.000E+00
       2     1     1     2   512     0 -2.809003656E+00  1.198341817E+01  2.179730874E+02  2.183205637E+02  3.300000131E-01  0.00000E+00  9.000E+00
      21     1     1     2   513   511  4.515345650E+00 -3.724655603E+00  4.757196777E+00  7.542700237E+00  1.788139343E-07  0.00000E+00  9.000E+00
</event>
<event>
      5  10001  2.40292E+09  1.20827E+01 -1.00000E+00  1.86662E-01
      21    -1     0     0   514   512  0.000000000E+00  0.000000000E+00  1.331593328E+02  1.331593328E+02  0.000000000E+00  0.00000E+00  9.000E+00
      21    -1     0     0   516   514  0.000000000E+00  0.000000000E+00 -5.131537464E+00  5.131537464E+00  0.000000000E+00  0.00000E+00  9.000E+00
      21     1     1     2   516   511 -1.019478950E+01 -2.599717844E+00  7.994614741E-01  1.055136979E+01  5.217534721E-07  0.00000E+00  9.000E+00
      21     1     1     2   511   515  1.377091893E+00 -1.095052125E+00  1.446569592E+01  1.457229837E+01  0.000000000E+00  0.00000E+00  9.000E+00
      21     1     1     2   515   512  8.817697611E+00  3.694769969E+00  1.127626380E+02  1.131672021E+02  1.907348633E-06  0.00000E+00  9.000E+00
</event>
<event>
      5  10001  2.40292E+09  4.52736E+00 -1.00000E+00  2.51311E-01
      21    -1     0     0   514   511  0.000000000E+00  0.000000000E+00  1.262211969E+02  1.262211969E+02  0.000000000E+00  0.00000E+00  9.000E+00
      21    -1     0     0   512   513  0.000000000E+00  0.000000000E+00 -2.096777098E+01  2.096777098E+01  0.000000000E+00  0.00000E+00  9.000E+00
      21     1     1     2   512   516  4.206950808E+00  1.094910904E+01 -1.102890915E+01  1.610025654E+01  3.153981341E-07  0.00000E+00  9.000E+00
      21     1     1     2   516   511 -6.126490019E+00 -6.848818321E+00 -4.492863940E+00  1.022868607E+01  3.209808354E-07  0.00000E+00  9.000E+00
      21     1     1     2   514   513  1.919539210E+00 -4.100290716E+00  1.207751990E+02  1.208600253E+02  1.907348633E-06  0.00000E+00  9.000E+00
</event>
<event>
      5  10001  2.40292E+09  3.32866E+00 -1.00000E+00  2.83681E-01
      21    -1     0     0   515   513  0.000000000E+00  0.000000000E+00  3.337306359E+01  3.337306359E+01  0.000000000E+00  0.00000E+00  9.000E+00
      21    -1     0     0   512   511  0.000000000E+00  0.000000000E+00 -2.969878617E+01  2.969878617E+01  0.000000000E+00  0.00000E+00  9.000E+00
      21     1     1     2   515   517 -9.752667852E+00  1.268927777E+01  2.043109513E+01  2.595307205E+01  3.371747881E-07  0.00000E+00  9.000E+00
      21     1     1     2   512   513  9.810589246E+00 -9.361124777E+00  5.486295564E+00  1.462797858E+01  1.976862425E-07  0.00000E+00  9.000E+00
      21     1     1     2   517   511 -5.792139385E-02 -3.328152995E+00 -2.224311327E+01  2.249079912E+01  4.129530925E-07  0.00000E+00  9.000E+00
</event>
<event>
      5  10001  2.40292E+09  4.47785E+00 -1.00000E+00  2.52334E-01
      21    -1     0     0   512   511  0.000000000E+00  0.000000000E+00  1.040563707E+02  1.040563707E+02  0.000000000E+00  0.00000E+00  9.000E+00
      21    -1     0     0   517   516  0.000000000E+00  0.000000000E+00 -2.755129037E+00  2.755129037E+00  0.000000000E+00  0.00000E+00  9.000E+00
      21     1     1     2   514   516  7.580209547E+00 -4.137413489E+00  7.551534280E+00  1.147185413E+01  1.460009660E-07  0.00000E+00  9.000E+00
      21     1     1     2   517   511 -1.029808922E+01  7.696107977E+00  6.851878164E+01  6.971444726E+01  0.000000000E+00  0.00000E+00  9.000E+00
      21     1     1     2   512   514  2.717879676E+00 -3.558694488E+00  2.523092570E+01  2.562519830E+01  4.768371582E-07  0.00000E+00  9.000E+00
</event>
<event>
      5  10001  2.40292E+09  1.01863E+01 -1.00000E+00  1.94777E-01
       1    -1     0     0   515     0  0.000000000E+00  0.000000000E+00  3.429649423E+02  3.429649423E+02  0.000000000E+00  0.00000E+00  9.000E+00
      21    -1     0     0   512   513  0.000000000E+00  0.000000000E+00 -5.097615687E+01  5.097615687E+01  0.000000000E+00  0.00000E+00  9.000E+00
      21     1     1     2   515   511  2.228980016E+00 -1.543975634E+01 -2.366380981E+01  2.834308245E+01  1.784161275E-06  0.00000E+00  9.000E+00
       1     1     1     2   512     0 -5.575055231E+00  1.991094783E+01  3.399949571E+02  3.406232623E+02  3.300000131E-01  0.00000E+00  9.000E+00
      21     1     1     2   511   513  3.346075214E+00 -4.471191490E+00 -2.434236190E+01  2.497475436E+01  8.259061849E-07  0.00000E+00  9.000E+00
</event>
<event>
      5  10001  2.40292E+09  1.48387E+01 -1.00000E+00  1.77779E-01
      21    -1     0     0   514   512  0.000000000E+00  0.000000000E+00  4.301026939E+01  4.301026939E+01  0.000000000E+00  0.00000E+00  9.000E+00
      21    -1     0     0   511   516  0.000000000E+00  0.000000000E+00 -8.987000159E+01  8.987000159E+01  0.000000000E+00  0.00000E+00  9.000E+00
      21     1     1     2   514   516 -2.976045248E+01  4.018621228E+00 -7.386256691E+01  7.973401181E+01  9.536743164E-07  0.00000E+00  9.000E+00
      21     1     1     2   511   515  2.842929074E+01 -1.414773707E+01  2.868478154E+01  4.279251954E+01  5.840038640E-07  0.00000E+00  9.000E+00
      21     1     1     2   515   512  1.331161738E+00  1.012911584E+01 -1.681946842E+00  1.035373963E+01  2.169641819E-07  0.00000E+00  9.000E+00
</event>
<event>
      5  10001  2.40292E+09  1.86158E+01 -1.00000E+00  1.68938E-01
       2    -1     0     0   511     0  0.000000000E+00  0.000000000E+00  3.844496182E+02  3.844496182E+02  0.000000000E+00  0.00000E+00  9.000E+00
      21    -1     0     0   513   515  0.000000000E+00  0.000000000E+00 -1.944145741E+01  1.944145741E+01  0.000000000E+00  0.00000E+00  9.000E+00
      21     1     1     2   511   515 -5.149540404E+01 -2.746596019E+01  3.507562275E+01  6.809151869E+01  0.000000000E+00  0.00000E+00  9.000E+00
       2     1     1     2   514     0  2.402199590E+01  1.202795642E+01  2.132673511E+02  2.149530180E+02  3.300000131E-01  0.00000E+00  9.000E+00
      21     1     1     2   513   514  2.747340814E+01  1.543800377E+01  1.166651870E+02  1.208465389E+02  0.000000000E+00  0.00000E+00  9.000E+00
</event>
<event>
      5  10001  2.40292E+09  4.93118E+00 -1.00000E+00  2.43651E-01
      -1    -1     0     0     0   515  0.000000000E+00  0.000000000E+00  2.549150807E+01  2.549150807E+01  0.000000000E+00  0.00000E+00  9.000E+00
       1    -1     0     0   512     0  0.000000000E+00  0.000000000E+00 -2.560298462E+02  2.560298462E+02  0.000000000E+00  0.00000E+00  9.000E+00
      -1     1     1     2     0   511 -1.233770651E+00  8.969408397E+00  2.201405254E+01  2.380545916E+01  3.300000131E-01  0.00000E+00  9.000E+00
       1     1     1     2   511     0 -1.307538271E+00 -1.319526589E+01 -2.524351303E+02  2.527833630E+02  3.300000131E-01  0.00000E+00  9.000E+00
      21     1     1     2   512   515  2.541308922E+00  4.225857491E+00 -1.172603244E-01  4.932532064E+00  5.042920400E-08  0.00000E+00  9.000E+00
</event>
<event>
      5  10001  2.40292E+09  7.63599E+00 -1.00000E+00  2.10283E-01
      21    -1     0     0   512   513  0.000000000E+00  0.000000000E+00  1.002814756E+01  1.002814756E+01  0.000000000E+00  0.00000E+00  9.000E+00
       1    -1     0     0   511     0  0.000000000E+00  0.000000000E+00 -2.904877840E+02  2.904877840E+02  0.000000000E+00  0.00000E+00  9.000E+00
      21     1     1     2   511   514  3.476803883E+00 -4.402365806E+00  3.483463028E+00  6.603294980E+00  6.925433897E-07  0.00000E+00  9.000E+00
       1     1     1     2   512     0 -1.410107370E+01  9.779615494E+00 -2.811609952E+02  2.816843895E+02  3.300000131E-01  0.00000E+00  9.000E+00
      21     1     1     2   514   513  1.062426981E+01 -5.377249689E+00 -2.782104298E+00  1.222824712E+01  1.032382731E-07  0.00000E+00  9.000E+00
</event>
<event>
      5  10001  2.40292E+09  1.42062E+01 -1.00000E+00  1.79588E-01
      21    -1     0     0   514   511  0.000000000E+00  0.000000000E+00  2.188814844E+01  2.188814844E+01  0.000000000E+00  0.00000E+00  9.000E+00
       2    -1     0     0   511     0  0.000000000E+00  0.000000000E+00 -3.091910579E+02  3.091910579E+02  0.000000000E+00  0.00000E+00  9.000E+00
      21     1     1     2   514   512  1.022810468E+01  5.750700661E+00  6.712281919E+00  1.351811422E+01  2.920019320E-07  0.00000E+00  9.000E+00
       2     1     1     2   515     0 -1.440973649E+01 -1.690757057E-01 -3.045696237E+02  3.049105339E+02  3.300000131E-01  0.00000E+00  9.000E+00
      21     1     1     2   512   515  4.181631811E+00 -5.581624955E+00  1.055443233E+01  1.265055823E+01  3.371747881E-07  0.00000E+00  9.000E+00
</event>
<event>
      5  10001  2.40292E+09  8.34397E+00 -1.00000E+00  2.05244E-01
      -2    -1     0     0     0   513  0.000000000E+00  0.000000000E+00  8.241200074E+01  8.241200074E+01  0.000000000E+00  0.00000E+00  9.000E+00
      21    -1     0     0   516   514  0.000000000E+00  0.000000000E+00 -1.269066497E+02  1.269066497E+02  0.000000000E+00  0.00000E+00  9.000E+00
      -2     1     1     2     0   511 -1.219609615E+01  2.032244052E+00  8.045314004E+01  8.139835022E+01  3.300000131E-01  0.00000E+00  9.000E+00
      21     1     1     2   511   514  9.400962445E+00  5.829606187E+00 -2.189879307E+01  2.453404861E+01  7.152557373E-07  0.00000E+00  9.000E+00
      21     1     1     2   516   513  2.795133701E+00 -7.861850239E+00 -1.030489959E+02  1.033862516E+02  1.348699152E-06  0.00000E+00  9.000E+00
</event>
<event>
      5  10001  2.40292E+09  4.08011E+00 -1.00000E+00  2.61351E-01
      21    -1     0     0   514   515  0.000000000E+00  0.000000000E+00  3.118342748E+01  3.118342748E+01  0.000000000E+00  0.00000E+00  9.000E+00
      21    -1     0     0   511   514  0.000000000E+00  0.000000000E+00 -2.833045034E+01  2.833045034E+01  0.000000000E+00  0.00000E+00  9.000E+00
      21     1     1     2   511   512  1.576787721E+01 -4.649009204E+00 -2.255062233E+01  2.790644739E+01  3.371747881E-07  0.00000E+00  9.000E+00
       4     1     1     2   512     0 -1.211504869E+01  2.854391908E+00  1.139116928E+01  1.693902877E+01  1.500000000E+00  0.00000E+00  9.000E+00
      -4     1     1     2     0   515 -3.652828521E+00  1.794617296E+00  1.401243019E+01  1.466840166E+01  1.500000000E+00  0.00000E+00  9.000E+00
</event>
<event>
      5  10001  2.40292E+09  1.42333E+01 -1.00000E+00  1.79508E-01
      21    -1     0     0   513   512  0.000000000E+00  0.000000000E+00  1.699681354E+02  1.699681354E+02  0.000000000E+00  0.00000E+00  9.000E+00
      21    -1     0     0   511   514  0.000000000E+00  0.000000000E+00 -2.471928552E+02  2.471928552E+02  0.000000000E+00  0.00000E+00  9.000E+00
      21     1     1     2   513   515 -9.513955974E+00 -2.746914957E+00 -6.617716820E+00  1.191029286E+01  7.633118912E-07  0.00000E+00  9.000E+00
      21     1     1     2   511   512  1.908940533E+01 -7.783945434E+00  1.664726030E+02  1.677442182E+02  1.907348633E-06  0.00000E+00  9.000E+00
      21     1     1     2   515   514 -9.575449359E+00  1.053086039E+01 -2.370796059E+02  2.375064795E+02  0.000000000E+00  0.00000E+00  9.000E+00
</event>
<event>
      5  10001  2.40292E+09  1.16750E+01 -1.00000E+00  1.88237E-01
      21    -1     0     0   516   512  0.000000000E+00  0.000000000E+00  3.449178604E-01  3.449178604E-01  0.000000000E+00  0.00000E+00  9.000E+00
      21    -1     0     0   517   516  0.000000000E+00  0.000000000E+00 -3.888090160E+02  3.888090160E+02  0.000000000E+00  0.00000E+00  9.000E+00
      21     1     1     2   511   512 -5.629340315E+00  6.404774964E+00 -1.883038664E+02  1.884968347E+02  2.697398305E-06  0.00000E+00  9.000E+00
       4     1     1     2   517     0 -1.627924820E-02 -6.104007698E+00 -1.539330333E+02  1.540613122E+02  1.500000000E+00  0.00000E+00  9.000E+00
      -4     1     1     2     0   511  5.645619563E+00 -3.007672663E-01 -4.622719843E+01  4.659578689E+01  1.500000000E+00  0.00000E+00  9.000E+00
</event>
<event>
      5  10001  2.40292E+09  5.32042E+00 -1.00000E+00  2.33813E-01
      21    -1     0     0   513   514  0.000000000E+00  0.000000000E+00  4.104111907E+01  4.104111907E+01  0.000000000E+00  0.00000E+00  9.000E+00
      21    -1     0     0   512   515  0.000000000E+00  0.000000000E+00 -1.591988649E+01  1.591988649E+01  0.000000000E+00  0.00000E+00  9.000E+00
      21     1     1     2   513   511 -1.077963348E+01 -1.126167613E+01  3.294627252E+01  3.644835689E+01  4.768371582E-07  0.00000E+00  9.000E+00
      21     1     1     2   512   514  5.466447718E+00  1.098439979E+01 -1.679218799E+00  1.238381465E+01  2.250025998E-07  0.00000E+00  9.000E+00
      21     1     1     2   511   515  5.313185763E+00  2.772763338E-01 -6.145821140E+00  8.128834025E+00  1.192092896E-07  0.00000E+00  9.000E+00
</event>
<event>
      5  10001  2.40292E+09  1.23310E+01 -1.00000E+00  1.85742E-01
      21    -1     0     0   512   511  0.000000000E+00  0.000000000E+00  9.280215286E+02  9.280215286E+02  0.000000000E+00  0.00000E+00  9.000E+00
      21    -1     0     0   517   516  0.000000000E+00  0.000000000E+00 -3.948652013E+01  3.948652013E+01  0.000000000E+00  0.00000E+00  9.000E+00
      21     1     1     2   517   515  2.833878487E+00 -2.521474425E+01 -3.436277185E+01  4.271550402E+01  4.768371582E-07  0.00000E+00  9.000E+00
      21     1     1     2   515   511  4.285729346E+00  1.514677406E+01  6.770453249E+01  6.951040181E+01  9.536743164E-07  0.00000E+00  9.000E+00
      21     1     1     2   512   516 -7.119607833E+00  1.006797019E+01  8.551932478E+02  8.552821429E+02  0.000000000E+00  0.00000E+00  9.000E+00
</event>
<event>
      5  10001  2.40292E+09  4.40776E+00 -1.00000E+00  2.53817E-01
      21    -1     0     0   513   515  0.000000000E+00  0.000000000E+00  3.376915677E+00  3.376915677E+00  0.000000000E+00  0.00000E+00  9.000E+00
      21    -1     0     0   514   513  0.000000000E+00  0.000000000E+00 -5.225215140E+01  5.225215140E+01  0.000000000E+00  0.00000E+00  9.000E+00
      21     1     1     2   514   516 -9.334014015E+00 -3.705890562E+00 -4.062807522E+01  4.185090129E+01  0.000000000E+00  0.00000E+00  9.000E+00
      21     1     1     2   516   511  4.278527079E+00  4.119080161E+00 -4.916758899E+00  7.710196717E+00  1.788139343E-07  0.00000E+00  9.000E+00
      21     1     1     2   511   515  5.055486935E+00 -4.131895988E-01 -3.330401600E+00  6.067969068E+00  1.685873940E-07  0.00000E+00  9.000E+00
</event>
<event>
      5  10001  2.40292E+09  7.44789E+00 -1.00000E+00  2.11747E-01
      21    -1     0     0   511   514  0.000000000E+00  0.000000000E+00  2.868191430E+00  2.868191430E+00  0.000000000E+00  0.00000E+00  9.000E+00
      -2    -1     0     0     0   512  0.000000000E+00  0.000000000E+00 -5.981712879E+01  5.981712879E+01  0.000000000E+00  0.00000E+00  9.000E+00
      21     1     1     2   513   514 -2.423772935E-01  2.130720379E+00  1.524596912E-01  2.149874425E+00  9.208326857E-08  0.00000E+00  9.000E+00
      21     1     1     2   511   512 -4.002888993E+00 -8.691441991E+00 -4.581642105E+01  4.680500744E+01  0.000000000E+00  0.00000E+00  9.000E+00
      -2     1     1     2     0   513  4.245266287E+00  6.560721612E+00 -1.128497601E+01  1.373043835E+01  3.300000131E-01  0.00000E+00  9.000E+00
</event>
<event>
      5  10001  2.40292E+09  4.10618E+00 -1.00000E+00  2.60712E-01
       3    -1     0     0   515     0  0.000000000E+00  0.000000000E+00  3.467083124E+02  3.467083124E+02  0.000000000E+00  0.00000E+00  9.000E+00
       2    -1     0     0   513     0  0.000000000E+00  0.000000000E+00 -5.739625035E+00  5.739625035E+00  0.000000000E+00  0.00000E+00  9.000E+00
       2     1     1     2   515     0  1.408129347E+01  3.212799974E+00  3.792631217E+00  1.493646079E+01  3.300000131E-01  0.00000E+00  9.000E+00
      21     1     1     2   513   511 -7.047652588E+00 -3.690109241E+00  1.697081613E+02  1.698945153E+02  2.697398305E-06  0.00000E+00  9.000E+00
       3     1     1     2   511     0 -7.033640884E+00  4.773092670E-01  1.674678948E+02  1.676169613E+02  5.000000000E-01  0.00000E+00  9.000E+00
</event>
<event>
      5  10001  2.40292E+09  8.98941E+00 -1.00000E+00  2.01201E-01
      21    -1     0     0   512   513  0.000000000E+00  0.000000000E+00  9.754537226E+01  9.754537226E+01  0.000000000E+00  0.00000E+00  9.000E+00
      21    -1     0     0   516   515  0.000000000E+00  0.000000000E+00 -1.503603768E+02  1.503603768E+02  0.000000000E+00  0.00000E+00  9.000E+00
      21     1     1     2   512   514 -2.864868633E+01 -8.820776339E+00  8.859027727E+01  9.352427787E+01  0.000000000E+00  0.00000E+00  9.000E+00
      21     1     1     2   516   513  3.019500162E+01  1.767618882E+01 -4.241472665E+01  5.498358674E+01  1.066240300E-06  0.00000E+00  9.000E+00
      21     1     1     2   514   515 -1.546315289E+00 -8.855412484E+00 -9.899055517E+01  9.939788445E+01  1.348699152E-06  0.00000E+00  9.000E+00
</event>
<event>
      5  10001  2.40292E+09  1.14327E+01 -1.00000E+00  1.89213E-01
      21    -1     0     0   511   515  0.000000000E+00  0.000000000E+00  2.614313921E+01  2.614313921E+01  0.000000000E+00  0.00000E+00  9.000E+00
      21    -1     0     0   514   517  0.000000000E+00  0.000000000E+00 -5.090426949E+01  5.090426949E+01  0.000000000E+00  0.00000E+00  9.000E+00
      21     1     1     2   511   517  2.131644529E+01 -5.430100417E-02 -4.205793741E+01  4.715149931E+01  4.768371582E-07  0.00000E+00  9.000E+00
      21     1     1     2   514   512 -9.486798231E+00  5.604364201E+00  1.025507059E+01  1.505239886E+01  2.064765462E-07  0.00000E+00  9.000E+00
      21     1     1     2   512   515 -1.182964706E+01 -5.550063197E+00  7.041736545E+00  1.484351052E+01  2.795705652E-07  0.00000E+00  9.000E+00
</event>
<event>
      5  10001  2.40292E+09  8.50698E+00 -1.00000E+00  2.04178E-01
      21    -1     0     0   511   514  0.000000000E+00  0.000000000E+00  6.383486734E+02  6.383486734E+02  0.000000000E+00  0.00000E+00  9.000E+00
      21    -1     0     0   515   513  0.000000000E+00  0.000000000E+00 -1.871272914E+01  1.871272914E+01  0.000000000E+00  0.00000E+00  9.000E+00
      21     1     1     2   515   516  8.563909814E+00 -1.223849502E+01 -1.498973978E+01  2.116160699E+01  1.884864366E-06  0.00000E+00  9.000E+00
      21     1     1     2   516   514 -6.860097016E+00  3.903885302E+00  6.056427248E+02  6.056941566E+02  7.629394531E-06  0.00000E+00  9.000E+00
      21     1     1     2   511   513 -1.703812798E+00  8.334609722E+00  2.898295925E+01  3.020563895E+01  4.768371582E-07  0.00000E+00  9.000E+00
</event>
<event>
      5  10001  2.40292E+09  6.55631E+00 -1.00000E+00  2.19579E-01
      21    -1     0     0   513   514  0.000000000E+00  0.000000000E+00  2.009074943E+01  2.009074943E+01  0.000000000E+00  0.00000E+00  9.000E+00
      21    -1     0     0   512   513  0.000000000E+00  0.000000000E+00 -1.907084807E+01  1.907084807E+01  0.000000000E+00  0.00000E+00  9.000E+00
      21     1     1     2   515   514 -1.501314350E+01  3.043132958E+00  9.912151072E+00  1.824570840E+01  3.371747881E-07  0.00000E+00  9.000E+00
       3     1     1     2   512     0  1.230954865E+01 -5.886567460E+00 -9.862550341E+00  1.684329432E+01  5.000000000E-01  0.00000E+00  9.000E+00
      -3     1     1     2     0   515  2.703594851E+00  2.843434502E+00  9.703006295E-01  4.072594775E+00  5.000000000E-01  0.00000E+00  9.000E+00
</event>
<event>
      5  10001  2.40292E+09  4.21346E+00 -1.00000E+00  2.58157E-01
      21    -1     0     0   511   512  0.000000000E+00  0.000000000E+00  2.691269747E+00  2.691269747E+00  0.000000000E+00  0.00000E+00  9.000E+00
      21    -1     0     0   516   511  0.000000000E+00  0.000000000E+00 -4.361735197E+01  4.361735197E+01  0.000000000E+00  0.00000E+00  9.000E+00
      21     1     1     2   516   515 -9.438770482E+00  6.313215856E-02 -2.425668716E+01  2.602846991E+01  3.371747881E-07  0.00000E+00  9.000E+00
      21     1     1     2   515   513  7.211451071E+00  2.213665948E+00 -7.776930893E+00  1.083448188E+01  3.039252468E-07  0.00000E+00  9.000E+00
      21     1     1     2   513   512  2.227319410E+00 -2.276798106E+00 -8.892464165E+00  9.445669924E+00  1.192092896E-07  0.00000E+00  9.000E+00
</event>
<event>
      5  10001  2.40292E+09  1.75899E+01 -1.00000E+00  1.71062E-01
      21    -1     0     0   513   512  0.000000000E+00  0.000000000E+00  1.002239761E+01  1.002239761E+01  0.000000000E+00  0.00000E+00  9.000E+00
      -3    -1     0     0     0   514  0.000000000E+00  0.000000000E+00 -5.567715234E+01  5.567715234E+01  0.000000000E+00  0.00000E+00  9.000E+00
      -3     1     1     2     0   512 -9.630717616E+00 -1.168161107E+00 -4.581182317E+01  4.683042242E+01  5.000000000E-01  0.00000E+00  9.000E+00
      21     1     1     2   513   511  1.027424422E+01 -3.863844023E+00 -4.612119270E+00  1.190634407E+01  2.980232239E-07  0.00000E+00  9.000E+00
      21     1     1     2   511   514 -6.435266056E-01  5.032005130E+00  4.769187711E+00  6.962783462E+00  1.032382731E-07  0.00000E+00  9.000E+00
</event>
<event>
      5  10001  2.40292E+09  4.29550E+00 -1.00000E+00  2.56281E-01
       2    -1     0     0   515     0  0.000000000E+00  0.000000000E+00  6.954972125E+01  6.954972125E+01  0.000000000E+00  0.00000E+00  9.000E+00
      21    -1     0     0   512   516  0.000000000E+00  0.000000000E+00 -6.842205866E+01  6.842205866E+01  0.000000000E+00  0.00000E+00  9.000E+00
      21     1     1     2   515   516  1.230175490E+01 -1.097163086E+00 -3.434802010E-01  1.235535993E+01  4.347112106E-07  0.00000E+00  9.000E+00
      21     1     1     2   512   514 -9.559312219E+00 -2.208910514E+00 -6.161101994E+01  6.238731854E+01  9.536743164E-07  0.00000E+00  9.000E+00
       2     1     1     2   514     0 -2.742442676E+00  3.306073600E+00  6.308216274E+01  6.322910145E+01  3.300000131E-01  0.00000E+00  9.000E+00
</event>
<event>
      5  10001  2.40292E+09  5.91088E+00 -1.00000E+00  2.26407E-01
      21    -1     0     0   512   513  0.000000000E+00  0.000000000E+00  1.270609514E+02  1.270609514E+02  0.000000000E+00  0.00000E+00  9.000E+00
       2    -1     0     0   513     0  0.000000000E+00  0.000000000E+00 -1.271900539E+02  1.271900539E+02  0.000000000E+00  0.00000E+00  9.000E+00
      21     1     1     2   512   515  7.820133887E+00 -7.448980609E-01  1.233793557E+02  1.236291826E+02  1.907348633E-06  0.00000E+00  9.000E+00
       2     1     1     2   511     0 -1.157965711E+01  3.884359112E+00 -1.249265992E+02  1.255226704E+02  3.300000131E-01  0.00000E+00  9.000E+00
      21     1     1     2   515   511  3.759523225E+00 -3.139461051E+00  1.418140946E+00  5.099152313E+00  5.161913656E-08  0.00000E+00  9.000E+00
</event>
<event>
      5  10001  2.40292E+09  2.06581E+00 -1.00000E+00  3.56429E-01
      21    -1     0     0   514   511  0.000000000E+00  0.000000000E+00  8.616260198E+01  8.616260198E+01  0.000000000E+00  0.00000E+00  9.000E+00
      21    -1     0     0   513   512  0.000000000E+00  0.000000000E+00 -1.667125531E+01  1.667125531E+01  0.000000000E+00  0.00000E+00  9.000E+00
      21     1     1     2   514   516  3.826881144E+00 -1.348904965E+01  5.693760157E+01  5.863863873E+01  1.507891493E-06  0.00000E+00  9.000E+00
      21     1     1     2   513   511 -5.313678572E+00  1.492327408E+01  2.607896773E+01  3.051314221E+01  0.000000000E+00  0.00000E+00  9.000E+00
      21     1     1     2   516   512  1.486797428E+00 -1.434224436E+00 -1.352522263E+01  1.368207635E+01  3.371747881E-07  0.00000E+00  9.000E+00
</event>
<event>
      5  10001  2.40292E+09  1.17729E+01 -1.00000E+00  1.87851E-01
      21    -1     0     0   515   513  0.000000000E+00  0.000000000E+00  1.683584502E+02  1.683584502E+02  0.000000000E+00  0.00000E+00  9.000E+00
      21    -1     0     0   517   515  0.000000000E+00  0.000000000E+00 -4.066903086E+02  4.066903086E+02  0.000000000E+00  0.00000E+00  9.000E+00
      21     1     1     2   512   511  1.401815830E+01  4.431448268E+00  1.359049759E+02  1.366978748E+02  5.046370146E-06  0.00000E+00  9.000E+00
      21     1     1     2   517   512 -1.196707011E+01  7.161384166E+00 -4.050889085E+02  4.053289034E+02  7.629394531E-06  0.00000E+00  9.000E+00
      21     1     1     2   511   513 -2.051088182E+00 -1.159283243E+01  3.085207414E+01  3.302198064E+01  3.371747881E-07  0.00000E+00  9.000E+00
</event>
<event>
      5  10001  2.40292E+09  5.86245E+00 -1.00000E+00  2.26968E-01
      21    -1     0     0   514   511  0.000000000E+00  0.000000000E+00  9.760621129E+00  9.760621129E+00  0.000000000E+00  0.00000E+00  9.000E+00
      21    -1     0     0   513   514  0.000000000E+00  0.000000000E+00 -1.164675230E+01  1.164675230E+01  0.000000000E+00  0.00000E+00  9.000E+00
      21     1     1     2   513   516 -7.577706207E+00 -3.639344576E+00 -3.244893713E+00  9.010870964E+00  1.685873940E-07  0.00000E+00  9.000E+00
      21     1     1     2   516   512  5.927147195E+00  6.502171026E+00 -6.445943325E-02  8.798491742E+00  1.516512330E-07  0.00000E+00  9.000E+00
      21     1     1     2   512   511  1.650559012E+00 -2.862826449E+00  1.423221979E+00  3.598010719E+00  6.664001875E-08  0.00000E+00  9.000E+00
</event>
<event>
      5  10001  2.40292E+09  4.89160E+00 -1.00000E+00  2.44353E-01
      21    -1     0     0   513   511  0.000000000E+00  0.000000000E+00  1.551735371E+01  1.551735371E+01  0.000000000E+00  0.00000E+00  9.000E+00
       2    -1     0     0   515     0  0.000000000E+00  0.000000000E+00 -3.553879338E+01  3.553879338E+01  0.000000000E+00  0.00000E+00  9.000E+00
      21     1     1     2   515   511  1.301182608E+00 -1.273658377E+01  4.669340793E+00  1.362777992E+01  4.500051996E-07  0.00000E+00  9.000E+00
       2     1     1     2   512     0 -2.575813851E+00  8.014258952E+00 -2.943341307E+01  3.061532081E+01  3.300000131E-01  0.00000E+00  9.000E+00
      21     1     1     2   513   512  1.274631243E+00  4.722324813E+00  4.742632609E+00  6.813046346E+00  1.032382731E-07  0.00000E+00  9.000E+00
</event>
<event>
      5  10001  2.40292E+09  6.52712E+00 -1.00000E+00  2.19864E-01
      21    -1     0     0   512   511  0.000000000E+00  0.000000000E+00  1.340826240E+01  1.340826240E+01  0.000000000E+00  0.00000E+00  9.000E+00
       2    -1     0     0   511     0  0.000000000E+00  0.000000000E+00 -9.914766516E+02  9.914766516E+02  0.000000000E+00  0.00000E+00  9.000E+00
      21     1     1     2   512   515  3.357252470E+00  4.271955119E+00  1.207541095E+01  1.324146119E+01  2.191636123E-06  0.00000E+00  9.000E+00
       2     1     1     2   514     0 -5.181389375E+00 -1.012650687E+01 -9.777439872E+02  9.778102098E+02  3.300000131E-01  0.00000E+00  9.000E+00
      21     1     1     2   515   514  1.824136905E+00  5.854551747E+00 -1.239981301E+01  1.383324308E+01  1.685873940E-07  0.00000E+00  9.000E+00
</event>
<event>
      5  10001  2.40292E+09  4.75608E+00 -1.00000E+00  2.46832E-01
      21    -1     0     0   513   511  0.000000000E+00  0.000000000E+00  1.422083211E+02  1.422083211E+02  0.000000000E+00  0.00000E+00  9.000E+00
       3    -1     0     0   514     0  0.000000000E+00  0.000000000E+00 -8.908228972E-01  8.908228972E-01  0.000000000E+00  0.00000E+00  9.000E+00
      -1     1     1     2     0   511  2.099877565E+00  7.409439506E+00  4.928661661E+01  4.988575705E+01  3.300000131E-01  0.00000E+00  9.000E+00
       3     1     1     2   513     0 -5.425365315E+00 -8.345714355E+00  4.679746588E+01  4.784703073E+01  5.000000000E-01  0.00000E+00  9.000E+00
       1     1     1     2   514     0  3.325487750E+00  9.362748489E-01  4.523341569E+01  4.536635619E+01  3.300000131E-01  0.00000E+00  9.000E+00
</event>
<event>
      5  10001  2.40292E+09  1.00864E+01 -1.00000E+00  1.95268E-01
      21    -1     0     0   512   514  0.000000000E+00  0.000000000E+00  4.999209389E+01  4.999209389E+01  0.000000000E+00  0.00000E+00  9.000E+00
      21    -1     0     0   511   513  0.000000000E+00  0.000000000E+00 -3.166530488E+02  3.166530488E+02  0.000000000E+00  0.00000E+00  9.000E+00
      21     1     1     2   512   515 -1.491267095E+01 -1.770005568E+01 -2.435498948E+01  3.359829220E+01  4.768371582E-07  0.00000E+00  9.000E+00
      21     1     1     2   511   514  4.889782937E+00  1.883052557E+01  4.319168001E+01  4.737108709E+01  9.536743164E-07  0.00000E+00  9.000E+00
      21     1     1     2   515   513  1.002288802E+01 -1.130469885E+00 -2.854976454E+02  2.856757634E+02  0.000000000E+00  0.00000E+00  9.000E+00
</event>
<event>
      5  10001  2.40292E+09  1.14709E+01 -1.00000E+00  1.89057E-01
      21    -1     0     0   511   514  0.000000000E+00  0.000000000E+00  2.207405618E+01  2.207405618E+01  0.000000000E+00  0.00000E+00  9.000E+00
       1    -1     0     0   514     0  0.000000000E+00  0.000000000E+00 -4.864611371E+02  4.864611371E+02  0.000000000E+00  0.00000E+00  9.000E+00
      21     1     1     2   511   516  4.636229897E+00  1.262526009E+01  1.984590844E+01  2.397398385E+01  1.526623782E-06  0.00000E+00  9.000E+00
      21     1     1     2   516   512  2.584708669E-01 -1.163949002E+01 -2.456309356E+02  2.459066918E+02  3.814697266E-06  0.00000E+00  9.000E+00
       1     1     1     2   512     0 -4.894700764E+00 -9.857700700E-01 -2.386020538E+02  2.386545177E+02  3.300000131E-01  0.00000E+00  9.000E+00
</event>
<event>
      5  10001  2.40292E+09  8.46551E+00 -1.00000E+00  2.04446E-01
      21    -1     0     0   513   514  0.000000000E+00  0.000000000E+00  1.624714939E+00  1.624714939E+00  0.000000000E+00  0.00000E+00  9.000E+00
      21    -1     0     0   512   513  0.000000000E+00  0.000000000E+00 -1.233112868E+02  1.233112868E+02  0.000000000E+00  0.00000E+00  9.000E+00
      -2     1     1     2     0   514  8.684050963E+00 -5.076730243E+00 -2.626531657E+01  2.812759652E+01  3.300000131E-01  0.00000E+00  9.000E+00
      21     1     1     2   512   511 -5.055871068E+00  7.946556204E+00 -8.329060228E+01  8.382144126E+01  9.536743164E-07  0.00000E+00  9.000E+00
       2     1     1     2   511     0 -3.628179895E+00 -2.869825961E+00 -1.213065301E+01  1.298696396E+01  3.300000131E-01  0.00000E+00  9.000E+00
</event>
<event>
      5  10001  2.40292E+09  3.92797E+00 -1.00000E+00  2.65234E-01
       1    -1     0     0   513     0  0.000000000E+00  0.000000000E+00  1.191017914E+02  1.191017914E+02  0.000000000E+00  0.00000E+00  9.000E+00
      21    -1     0     0   512   513  0.000000000E+00  0.000000000E+00 -1.659536076E+02  1.659536076E+02  0.000000000E+00  0.00000E+00  9.000E+00
      21     1     1     2   515   511  1.362597027E+01 -3.480635106E-01  2.386879308E+00  1.383782522E+01  4.683802618E-07  0.00000E+00  9.000E+00
       1     1     1     2   511     0 -9.805821192E+00 -5.659180419E-01  1.107477352E+02  1.111829310E+02  3.300000131E-01  0.00000E+00  9.000E+00
      21     1     1     2   512   515 -3.820149080E+00  9.139815525E-01 -1.599864307E+02  1.600346428E+02  1.907348633E-06  0.00000E+00  9.000E+00
</event>
<event>
      5  10001  2.40292E+09  1.91228E+01 -1.00000E+00  1.67950E-01
      21    -1     0     0   514   515  0.000000000E+00  0.000000000E+00  2.171053855E+00  2.171053855E+00  0.000000000E+00  0.00000E+00  9.000E+00
      -3    -1     0     0     0   513  0.000000000E+00  0.000000000E+00 -5.981137496E+02  5.981137496E+02  0.000000000E+00  0.00000E+00  9.000E+00
      -5     1     1     2     0   513 -1.775293437E+01  1.266848747E+01 -1.409033864E+02  1.426620537E+02  4.800000191E+00  0.00000E+00  9.000E+00
       5     1     1     2   514     0 -8.369402726E-01 -9.670325929E+00 -2.592985990E+01  2.810005887E+01  4.800000191E+00  0.00000E+00  9.000E+00
      -3     1     1     2     0   515  1.858987464E+01 -2.998161544E+00 -4.291094494E+02  4.295226909E+02  5.000000000E-01  0.00000E+00  9.000E+00
</event>
<event>
      5  10001  2.40292E+09  7.41267E+00 -1.00000E+00  2.12028E-01
      21    -1     0     0   511   516  0.000000000E+00  0.000000000E+00  1.675153320E+02  1.675153320E+02  0.000000000E+00  0.00000E+00  9.000E+00
      21    -1     0     0   512   511  0.000000000E+00  0.000000000E+00 -3.221460123E+00  3.221460123E+00  0.000000000E+00  0.00000E+00  9.000E+00
      21     1     1     2   515   516  7.993812450E+00 -9.239411921E+00  1.313428406E+02  1.319098539E+02  1.907348633E-06  0.00000E+00  9.000E+00
      21     1     1     2   512   513 -4.994253647E+00  1.225891452E+01  1.346684808E+01  1.888331412E+01  2.384185791E-07  0.00000E+00  9.000E+00
      21     1     1     2   513   515 -2.999558803E+00 -3.019502604E+00  1.948418321E+01  1.994362415E+01  0.000000000E+00  0.00000E+00  9.000E+00
</event>
<event>
      5  10001  2.40292E+09  4.39185E+00 -1.00000E+00  2.54159E-01
      21    -1     0     0   512   514  0.000000000E+00  0.000000000E+00  5.177999309E+00  5.177999309E+00  0.000000000E+00  0.00000E+00  9.000E+00
       2    -1     0     0   514     0  0.000000000E+00  0.000000000E+00 -2.395232756E+02  2.395232756E+02  0.000000000E+00  0.00000E+00  9.000E+00
      -4     1     1     2     0   513  2.020891810E+01  1.294434250E+01 -6.894592129E+01  7.301880878E+01  1.500000000E+00  0.00000E+00  9.000E+00
       2     1     1     2   513     0 -2.715330680E+01 -2.168914975E+01 -1.248892047E+02  1.296346545E+02  3.300000131E-01  0.00000E+00  9.000E+00
       4     1     1     2   512     0  6.944388704E+00  8.744807254E+00 -4.051015033E+01  4.204781169E+01  1.500000000E+00  0.00000E+00  9.000E+00
</event>
<event>
      5  10001  2.40292E+09  1.76908E+01 -1.00000E+00  1.70845E-01
      -4    -1     0     0     0   511  0.000000000E+00  0.000000000E+00  1.455691810E+01  1.455691810E+01  0.000000000E+00  0.00000E+00  9.000E+00
      21    -1     0     0   512   515  0.000000000E+00  0.000000000E+00 -9.948451321E+00  9.948451321E+00  0.000000000E+00  0.00000E+00  9.000E+00
      21     1     1     2   513   515 -4.623764999E+00  1.998443924E+00 -5.073807832E+00  7.149580883E+00  8.429369702E-08  0.00000E+00  9.000E+00
      21     1     1     2   512   511  5.269554859E+00  3.205060106E+00 -8.585133530E-02  6.168305209E+00  7.635141283E-08  0.00000E+00  9.000E+00
      -4     1     1     2     0   513 -6.457898593E-01 -5.203504030E+00  9.768125951E+00  1.118748333E+01  1.500000000E+00  0.00000E+00  9.000E+00
</event>
<event>
      5  10001  2.40292E+09  7.18884E+00 -1.00000E+00  2.13862E-01
      21    -1     0     0   515   511  0.000000000E+00  0.000000000E+00  7.044445381E-01  7.044445381E-01  0.000000000E+00  0.00000E+00  9.000E+00
       1    -1     0     0   511     0  0.000000000E+00  0.000000000E+00 -5.101710477E+02  5.101710477E+02  0.000000000E+00  0.00000E+00  9.000E+00
      21     1     1     2   512   514  1.224958922E+01 -9.525589325E+00 -3.353528658E+02  3.357116827E+02  5.394796609E-06  0.00000E+00  9.000E+00
       1     1     1     2   514     0 -5.167180290E+00  1.075338376E+01 -1.040073767E+02  1.046899151E+02  3.300000131E-01  0.00000E+00  9.000E+00
      21     1     1     2   515   512 -7.082408934E+00 -1.227794438E+00 -7.010636070E+01  7.047389450E+01  1.651812370E-06  0.00000E+00  9.000E+00
</event>
<event>
      5  10001  2.40292E+09  1.02134E+01 -1.00000E+00  1.94645E-01
      21    -1     0     0   513   511  0.000000000E+00  0.000000000E+00  5.575203427E+01  5.575203427E+01  0.000000000E+00  0.00000E+00  9.000E+00
      21    -1     0     0   514   512  0.000000000E+00  0.000000000E+00 -1.307736226E+01  1.307736226E+01  0.000000000E+00  0.00000E+00  9.000E+00
      -1     1     1     2     0   511 -1.219578832E+01  6.949002421E+00  2.643492359E+01  2.993225639E+01  3.300000131E-01  0.00000E+00  9.000E+00
      21     1     1     2   513   512  6.836847711E+00 -1.564222906E+01  2.146118941E+01  2.742269986E+01  2.384185791E-07  0.00000E+00  9.000E+00
       1     1     1     2   514     0  5.358940613E+00  8.693226640E+00 -5.221440990E+00  1.147444029E+01  3.300000131E-01  0.00000E+00  9.000E+00
</event>
<event>
      5  10001  2.40292E+09  1.14254E+01 -1.00000E+00  1.89242E-01
      21    -1     0     0   512   515  0.000000000E+00  0.000000000E+00  6.864780584E+01  6.864780584E+01  0.000000000E+00  0.00000E+00  9.000E+00
      -2    -1     0     0     0   511  0.000000000E+00  0.000000000E+00 -2.817878445E+02  2.817878445E+02  0.000000000E+00  0.00000E+00  9.000E+00
      -2     1     1     2     0   515  1.835130124E+00 -1.181316085E+01 -2.764770050E+02  2.767355446E+02  3.300000131E-01  0.00000E+00  9.000E+00
      -1     1     1     2     0   511 -1.296176022E+01  9.218125216E+00  5.958168808E+01  6.166901584E+01  3.300000131E-01  0.00000E+00  9.000E+00
       1     1     1     2   512     0  1.112663010E+01  2.595035632E+00  3.755278293E+00  1.203108982E+01  3.300000131E-01  0.00000E+00  9.000E+00
</event>
<event>
      5  10001  2.40292E+09  1.18568E+01 -1.00000E+00  1.87524E-01
      21    -1     0     0   511   516  0.000000000E+00  0.000000000E+00  3.525236898E+02  3.525236898E+02  0.000000000E+00  0.00000E+00  9.000E+00
      21    -1     0     0   515   514  0.000000000E+00  0.000000000E+00 -5.509537153E+01  5.509537153E+01  0.000000000E+00  0.00000E+00  9.000E+00
      21     1     1     2   513   514  5.465918812E+00 -1.703485952E+01 -4.638331051E+00  1.848179705E+01  2.457562462E-07  0.00000E+00  9.000E+00
      21     1     1     2   515   516 -1.419841710E+01  2.505534147E+01 -3.865827890E+01  4.820609621E+01  4.768371582E-07  0.00000E+00  9.000E+00
      21     1     1     2   511   513  8.732498285E+00 -8.020481947E+00  3.407249282E+02  3.409311681E+02  3.814697266E-06  0.00000E+00  9.000E+00
</event>
<event>
      5  10001  2.40292E+09  3.56489E+00 -1.00000E+00  2.75721E-01
      21    -1     0     0   512   514  0.000000000E+00  0.000000000E+00  7.322811466E+01  7.322811466E+01  0.000000000E+00  0.00000E+00  9.000E+00
      21    -1     0     0   517   513  0.000000000E+00  0.000000000E+00 -3.443937564E+00  3.443937564E+00  0.000000000E+00  0.00000E+00  9.000E+00
      21     1     1     2   512   513  9.266730249E-01  1.496947476E+01  3.134403330E+01  3.474755129E+01  4.768371582E-07  0.00000E+00  9.000E+00
       4     1     1     2   517     0  1.824366438E+00 -1.250275181E+01  3.015826821E+01  3.273252598E+01  1.500000000E+00  0.00000E+00  9.000E+00
      -4     1     1     2     0   514 -2.751039462E+00 -2.466722951E+00  8.281875584E+00  9.191974947E+00  1.500000000E+00  0.00000E+00  9.000E+00
</event>
<event>
      5  10001  2.40292E+09  4.60469E+00 -1.00000E+00  2.49752E-01
       2    -1     0     0   511     0  0.000000000E+00  0.000000000E+00  1.101865261E+03  1.101865261E+03  0.000000000E+00  0.00000E+00  9.000E+00
       2    -1     0     0   515     0  0.000000000E+00  0.000000000E+00 -5.333299744E+01  5.333299744E+01  0.000000000E+00  0.00000E+00  9.000E+00
      21     1     1     2   515   514 -8.591607327E+00 -3.325281695E+00  4.329138453E+00  1.017912838E+01  1.576990671E-07  0.00000E+00  9.000E+00
       2     1     1     2   511     0  9.672276187E+00  7.801365135E+00 -4.963669544E+01  5.116956770E+01  3.300000131E-01  0.00000E+00  9.000E+00
       2     1     1     2   514     0 -1.080668859E+00 -4.476083440E+00  1.093839821E+03  1.093849563E+03  3.300000131E-01  0.00000E+00  9.000E+00
</event>
<event>
      5  10001  2.40292E+09  3.71947E+00 -1.00000E+00  2.71025E-01
       5    -1     0     0   513     0  0.000000000E+00  0.000000000E+00  7.963457324E+00  7.963457324E+00  0.000000000E+00  0.00000E+00  9.000E+00
      21    -1     0     0   511   513  0.000000000E+00  0.000000000E+00 -4.706904709E+01  4.706904709E+01  0.000000000E+00  0.00000E+00  9.000E+00
      21     1     1     2   515   512  5.634399921E+00 -4.327188847E+00 -2.552772008E+01  2.649783988E+01  0.000000000E+00  0.00000E+00  9.000E+00
       5     1     1     2   512     0 -9.515833507E+00  3.413852433E+00  2.916555561E+00  1.156511020E+01  4.800000191E+00  0.00000E+00  9.000E+00
      21     1     1     2   511   515  3.881433586E+00  9.133364145E-01 -1.649442524E+01  1.696955433E+01  2.384185791E-07  0.00000E+00  9.000E+00
</event>
<event>
      5  10001  2.40292E+09  6.07829E+00 -1.00000E+00  2.24523E-01
      21    -1     0     0   514   512  0.000000000E+00  0.000000000E+00  5.586096141E+01  5.586096141E+01  0.000000000E+00  0.00000E+00  9.000E+00
      21    -1     0     0   511   515  0.000000000E+00  0.000000000E+00 -4.145688180E+00  4.145688180E+00  0.000000000E+00  0.00000E+00  9.000E+00
      21     1     1     2   514   515 -3.598346919E+00  8.914908871E+00  4.228216398E+00  1.050245279E+01  1.576990671E-07  0.00000E+00  9.000E+00
      21     1     1     2   511   513 -4.155637477E-01 -7.109389004E+00  4.131093815E+01  4.192027810E+01  0.000000000E+00  0.00000E+00  9.000E+00
      21     1     1     2   513   512  4.013910667E+00 -1.805519867E+00  6.176118682E+00  7.583918697E+00  1.192092896E-07  0.00000E+00  9.000E+00
</event>
<event>
      5  10001  2.40292E+09  6.47932E+00 -1.00000E+00  2.20335E-01
      21    -1     0     0   516   511  0.000000000E+00  0.000000000E+00  7.594606839E+01  7.594606839E+01  0.000000000E+00  0.00000E+00  9.000E+00
      21    -1     0     0   514   512  0.000000000E+00  0.000000000E+00 -4.719619366E+01  4.719619366E+01  0.000000000E+00  0.00000E+00  9.000E+00
      21     1     1     2   516   512  7.836007666E+00 -8.999669907E+00  9.024407450E+00  1.496118326E+01  4.298152060E-07  0.00000E+00  9.000E+00
      21     1     1     2   517   511 -1.429872970E+01  9.463217012E+00  6.255591744E+01  6.486330977E+01  0.000000000E+00  0.00000E+00  9.000E+00
      21     1     1     2   514   517  6.462722037E+00 -4.635471046E-01 -4.283045016E+01  4.331776902E+01  4.768371582E-07  0.00000E+00  9.000E+00
</event>
<event>
      5  10001  2.40292E+09  1.08528E+01 -1.00000E+00  1.91680E-01
      21    -1     0     0   513   511  0.000000000E+00  0.000000000E+00  1.002025332E+02  1.002025332E+02  0.000000000E+00  0.00000E+00  9.000E+00
       3    -1     0     0   514     0  0.000000000E+00  0.000000000E+00 -1.626357583E+00  1.626357583E+00  0.000000000E+00  0.00000E+00  9.000E+00
      21     1     1     2   514   511  2.036083478E+00 -1.006997020E+01  3.989200865E+01  4.119371663E+01  6.743495762E-07  0.00000E+00  9.000E+00
      21     1     1     2   513   512 -2.694989093E+00  5.155426538E+00  5.185839765E+01  5.218366407E+01  6.743495762E-07  0.00000E+00  9.000E+00
       3     1     1     2   512     0  6.589056157E-01  4.914543660E+00  6.825769353E+00  8.451510117E+00  5.000000000E-01  0.00000E+00  9.000E+00
</event>
<event>
      5  10001  2.40292E+09  8.01691E+00 -1.00000E+00  2.07485E-01
      21    -1     0     0   515   512  0.000000000E+00  0.000000000E+00  1.295457386E+01  1.295457386E+01  0.000000000E+00  0.00000E+00  9.000E+00
      21    -1     0     0   516   515  0.000000000E+00  0.000000000E+00 -1.996338503E+01  1.996338503E+01  0.000000000E+00  0.00000E+00  9.000E+00
      21     1     1     2   517   512 -2.182646422E+00 -1.163453322E+01  2.598801433E+00  1.211940913E+01  2.149076030E-07  0.00000E+00  9.000E+00
      21     1     1     2   511   517  6.748944018E+00  1.207064563E+01 -7.721106073E+00  1.583869345E+01  1.460009660E-07  0.00000E+00  9.000E+00
      21     1     1     2   516   511 -4.566297596E+00 -4.361124052E-01 -1.886506525E+00  4.959856311E+00  8.161702119E-08  0.00000E+00  9.000E+00
</event>
<event>
      5  10001  2.40292E+09  1.34619E+01 -1.00000E+00  1.81877E-01
       2    -1     0     0   514     0  0.000000000E+00  0.000000000E+00  2.952198106E+01  2.952198106E+01  0.000000000E+00  0.00000E+00  9.000E+00
      21    -1     0     0   513   511  0.000000000E+00  0.000000000E+00 -1.905745045E+01  1.905745045E+01  0.000000000E+00  0.00000E+00  9.000E+00
      21     1     1     2   514   511 -4.281637287E+00 -8.403661894E+00 -1.580525399E+01  1.840543411E+01  2.384185791E-07  0.00000E+00  9.000E+00
      21     1     1     2   513   512 -2.747162267E+00  6.769003169E+00  1.011059547E+01  1.247358990E+01  1.192092896E-07  0.00000E+00  9.000E+00
       2     1     1     2   512     0  7.028799554E+00  1.634658724E+00  1.615918913E+01  1.770040750E+01  3.300000131E-01  0.00000E+00  9.000E+00
</event>
<event>
      5  10001  2.40292E+09  1.36049E+01 -1.00000E+00  1.81423E-01
      21    -1     0     0   515   512  0.000000000E+00  0.000000000E+00  1.630675383E+02  1.630675383E+02  0.000000000E+00  0.00000E+00  9.000E+00
      21    -1     0     0   516   515  0.000000000E+00  0.000000000E+00 -1.915552619E+00  1.915552619E+00  0.000000000E+00  0.00000E+00  9.000E+00
      21     1     1     2   513   512 -4.966114519E+00 -5.261629740E+00  9.270438574E+01  9.298629026E+01  0.000000000E+00  0.00000E+00  9.000E+00
      21     1     1     2   511   513  1.169288691E+01  6.373159637E+00  2.832829726E+01  3.130228736E+01  8.259061849E-07  0.00000E+00  9.000E+00
      21     1     1     2   516   511 -6.726772387E+00 -1.111529897E+00  4.011930272E+01  4.069451335E+01  6.743495762E-07  0.00000E+00  9.000E+00
</event>
<event>
      5  10001  2.40292E+09  1.30507E+01 -1.00000E+00  1.83224E-01
       2    -1     0     0   515     0  0.000000000E+00  0.000000000E+00  7.513399930E+00  7.513399930E+00  0.000000000E+00  0.00000E+00  9.000E+00
      21    -1     0     0   514   511  0.000000000E+00  0.000000000E+00 -2.547583016E+02  2.547583016E+02  0.000000000E+00  0.00000E+00  9.000E+00
      21     1     1     2   515   512 -5.688977183E+00 -2.666379997E+00 -8.183126213E+01  8.207209943E+01  9.536743164E-07  0.00000E+00  9.000E+00
       2     1     1     2   514     0  9.584787879E+00 -2.530556292E+00  3.975667883E+00  1.068581812E+01  3.300000131E-01  0.00000E+00  9.000E+00
      21     1     1     2   512   511 -3.895810696E+00  5.196936289E+00 -1.693893074E+02  1.695137840E+02  1.907348633E-06  0.00000E+00  9.000E+00
</event>
<event>
      5  10001  2.40292E+09  7.65181E+00 -1.00000E+00  2.10162E-01
      21    -1     0     0   514   512  0.000000000E+00  0.000000000E+00  3.319841682E+02  3.319841682E+02  0.000000000E+00  0.00000E+00  9.000E+00
      21    -1     0     0   516   513  0.000000000E+00  0.000000000E+00 -3.052091138E+00  3.052091138E+00  0.000000000E+00  0.00000E+00  9.000E+00
      21     1     1     2   516   511  1.240371865E+01 -7.064815526E+00  2.030804615E+01  2.482298518E+01  5.331201500E-07  0.00000E+00  9.000E+00
      21     1     1     2   511   512 -9.933529974E+00 -1.773127461E-01  3.253255535E+01  3.401578480E+01  4.768371582E-07  0.00000E+00  9.000E+00
      21     1     1     2   514   513 -2.470188673E+00  7.242128272E+00  2.760914756E+02  2.761974894E+02  5.394796609E-06  0.00000E+00  9.000E+00
</event>
<event>
      5  10001  2.40292E+09  8.98034E+00 -1.00000E+00  2.01254E-01
      21    -1     0     0   515   512  0.000000000E+00  0.000000000E+00  8.326939680E+00  8.326939680E+00  0.000000000E+00  0.00000E+00  9.000E+00
      21    -1     0     0   512   513  0.000000000E+00  0.000000000E+00 -5.674263659E+01  5.674263659E+01  0.000000000E+00  0.00000E+00  9.000E+00
      21     1     1     2   511   513  4.648407528E+00 -1.955731082E+00 -1.597334725E+01  1.675053429E+01  1.685873940E-07  0.00000E+00  9.000E+00
       2     1     1     2   515     0 -1.371416330E+01  1.273399706E+01 -8.539241316E+00  2.057329576E+01  3.300000131E-01  0.00000E+00  9.000E+00
      -2     1     1     2     0   511  9.065755768E+00 -1.077826598E+01 -2.390310835E+01  2.774574623E+01  3.300000131E-01  0.00000E+00  9.000E+00
</event>
<event>
      5  10001  2.40292E+09  3.85228E+00 -1.00000E+00  2.67270E-01
      21    -1     0     0   514   513  0.000000000E+00  0.000000000E+00  4.691317357E+02  4.691317357E+02  0.000000000E+00  0.00000E+00  9.000E+00
      21    -1     0     0   515   511  0.000000000E+00  0.000000000E+00 -2.420759600E+00  2.420759600E+00  0.000000000E+00  0.00000E+00  9.000E+00
      21     1     1     2   514   511 -7.120514892E+00  1.164616836E+01  2.419818876E+01  2.778285999E+01  6.743495762E-07  0.00000E+00  9.000E+00
      21     1     1     2   512   513  6.598811814E+00 -7.829380129E+00  4.365539714E+02  4.366740357E+02  0.000000000E+00  0.00000E+00  9.000E+00
      21     1     1     2   515   512  5.217030781E-01 -3.816788232E+00  5.958815975E+00  7.095599646E+00  8.429369702E-08  0.00000E+00  9.000E+00
</event>
<event>
      5  10001  2.40292E+09  3.54466E+00 -1.00000E+00  2.76363E-01
      21    -1     0     0   516   515  0.000000000E+00  0.000000000E+00  8.430325416E+01  8.430325416E+01  0.000000000E+00  0.00000E+00  9.000E+00
      -2    -1     0     0     0   516  0.000000000E+00  0.000000000E+00 -6.950561940E+00  6.950561940E+00  0.000000000E+00  0.00000E+00  9.000E+00
      -2     1     1     2     0   513 -8.615120885E+00 -5.094130551E+00 -2.671857436E+00  1.036427499E+01  3.300000131E-01  0.00000E+00  9.000E+00
      21     1     1     2   513   511  5.692691930E+00  6.397563415E+00  6.089548216E+01  6.149467706E+01  1.348699152E-06  0.00000E+00  9.000E+00
      21     1     1     2   511   515  2.922428955E+00 -1.303432864E+00  1.912906749E+01  1.939486405E+01  4.768371582E-07  0.00000E+00  9.000E+00
</event>
<event>
      5  10001  2.40292E+09  3.84116E+00 -1.00000E+00  2.67575E-01
      21    -1     0     0   512   516  0.000000000E+00  0.000000000E+00  1.588862267E+01  1.588862267E+01  0.000000000E+00  0.00000E+00  9.000E+00
      21    -1     0     0   515   514  0.000000000E+00  0.000000000E+00 -3.213853952E+02  3.213853952E+02  0.000000000E+00  0.00000E+00  9.000E+00
      21     1     1     2   512   514  1.206113851E+01 -2.014342021E+00 -7.679442611E+01  7.776189631E+01  1.651812370E-06  0.00000E+00  9.000E+00
      21     1     1     2   515   513 -8.485453693E+00  6.111489906E-01 -2.437924337E+02  2.439408272E+02  2.697398305E-06  0.00000E+00  9.000E+00
      21     1     1     2   513   516 -3.575684822E+00  1.403193031E+00  1.509008732E+01  1.557129436E+01  8.085167388E-07  0.00000E+00  9.000E+00
</event>
<event>
      5  10001  2.40292E+09  8.61286E+00 -1.00000E+00  2.03502E-01
      21    -1     0     0   512   513  0.000000000E+00  0.000000000E+00  8.487533802E+01  8.487533802E+01  0.000000000E+00  0.00000E+00  9.000E+00
       1    -1     0     0   515     0  0.000000000E+00  0.000000000E+00 -7.371662443E+02  7.371662443E+02  0.000000000E+00  0.00000E+00  9.000E+00
      21     1     1     2   515   513 -1.653512035E+01  1.210837174E+01  1.431855231E+01  2.500087621E+01  6.078504936E-07  0.00000E+00  9.000E+00
       1     1     1     2   511     0  8.240053812E+00 -9.790381261E+00 -7.314844711E+02  7.315964669E+02  3.300000131E-01  0.00000E+00  9.000E+00
      21     1     1     2   512   511  8.295066534E+00 -2.317990482E+00  6.487501246E+01  6.544423924E+01  1.348699152E-06  0.00000E+00  9.000E+00
</event>
<event>
      5  10001  2.40292E+09  2.12247E+01 -1.00000E+00  1.64227E-01
      21    -1     0     0   514   515  0.000000000E+00  0.000000000E+00  5.938417549E+02  5.938417549E+02  0.000000000E+00  0.00000E+00  9.000E+00
      21    -1     0     0   513   516  0.000000000E+00  0.000000000E+00 -2.469200706E+01  2.469200706E+01  0.000000000E+00  0.00000E+00  9.000E+00
      21     1     1     2   514   516  2.294143013E+01  6.508084995E+00  2.635828722E+01  3.554467178E+01  4.768371582E-07  0.00000E+00  9.000E+00
      21     1     1     2   513   511 -2.672383942E+01 -2.739304213E+01 -1.485775450E+00  3.829817070E+01  8.229435248E-07  0.00000E+00  9.000E+00
      21     1     1     2   511   515  3.782409287E+00  2.088495714E+01  5.442772361E+02  5.446909195E+02  0.000000000E+00  0.00000E+00  9.000E+00
</event>
<event>
      5  10001  2.40292E+09  6.16558E+00 -1.00000E+00  2.23574E-01
      21    -1     0     0   512   514  0.000000000E+00  0.000000000E+00  1.650114388E+01  1.650114388E+01  0.000000000E+00  0.00000E+00  9.000E+00
      21    -1     0     0   517   515  0.000000000E+00  0.000000000E+00 -6.996365545E+01  6.996365545E+01  0.000000000E+00  0.00000E+00  9.000E+00
      21     1     1     2   512   515 -3.700634768E+00  8.899205281E+00 -6.163758254E+01  6.238655411E+01  1.651812370E-06  0.00000E+00  9.000E+00
      21     1     1     2   517   513  8.134742983E+00 -1.318324634E+01  8.907361416E+00  1.786933448E+01  1.192092896E-07  0.00000E+00  9.000E+00
      21     1     1     2   513   514 -4.434108214E+00  4.284041055E+00 -7.322904482E-01  6.208910751E+00  6.580174615E-08  0.00000E+00  9.000E+00
</event>
<event>
      5  10001  2.40292E+09  3.12597E+00 -1.00000E+00  2.91416E-01
      21    -1     0     0   511   512  0.000000000E+00  0.000000000E+00  1.226174594E+01  1.226174594E+01  0.000000000E+00  0.00000E+00  9.000E+00
       1    -1     0     0   514     0  0.000000000E+00  0.000000000E+00 -4.642570650E+01  4.642570650E+01  0.000000000E+00  0.00000E+00  9.000E+00
      21     1     1     2   514   513  2.331340752E+00  1.064527851E+01 -1.773335897E+01  2.081415683E+01  2.384185791E-07  0.00000E+00  9.000E+00
       1     1     1     2   511     0 -4.737297281E+00 -8.649872185E+00 -2.599829486E+01  2.780795767E+01  3.300000131E-01  0.00000E+00  9.000E+00
      21     1     1     2   513   512  2.405956529E+00 -1.995406324E+00  9.567693270E+00  1.006533793E+01  1.685873940E-07  0.00000E+00  9.000E+00
</event>
<event>
      5  10001  2.40292E+09  4.11681E+00 -1.00000E+00  2.60453E-01
      21    -1     0     0   515   513  0.000000000E+00  0.000000000E+00  1.239279404E+01  1.239279404E+01  0.000000000E+00  0.00000E+00  9.000E+00
      21    -1     0     0   512   515  0.000000000E+00  0.000000000E+00 -1.404231143E+01  1.404231143E+01  0.000000000E+00  0.00000E+00  9.000E+00
      21     1     1     2   512   514 -8.697165265E+00  6.187304564E+00 -8.048479324E+00  1.336792582E+01  2.920019320E-07  0.00000E+00  9.000E+00
      21     1     1     2   511   513  3.542997462E+00 -2.013758765E+00  4.700408692E+00  6.221084893E+00  8.429369702E-08  0.00000E+00  9.000E+00
      21     1     1     2   514   511  5.154167804E+00 -4.173545799E+00  1.698553242E+00  6.846094755E+00  6.322027277E-08  0.00000E+00  9.000E+00
</event>
<event>
      5  10001  2.40292E+09  2.73893E+00 -1.00000E+00  3.09254E-01
       2    -1     0     0   514     0  0.000000000E+00  0.000000000E+00  5.855905896E+01  5.855905896E+01  0.000000000E+00  0.00000E+00  9.000E+00
      21    -1     0     0   516   512  0.000000000E+00  0.000000000E+00 -5.389200494E+00  5.389200494E+00  0.000000000E+00  0.00000E+00  9.000E+00
      21     1     1     2   514   511  7.179130030E+00 -9.906502889E+00  1.707520470E+01  2.100574500E+01  2.384185791E-07  0.00000E+00  9.000E+00
       2     1     1     2   516     0 -9.620007249E+00  1.114845316E+01  3.718419413E+01  3.999507145E+01  3.300000131E-01  0.00000E+00  9.000E+00
      21     1     1     2   511   512  2.440877219E+00 -1.241950271E+00 -1.089540360E+00  2.947443005E+00  8.024520885E-08  0.00000E+00  9.000E+00
</event>
<event>
      5  10001  2.40292E+09  6.58468E+00 -1.00000E+00  2.19304E-01
      21    -1     0     0   513   512  0.000000000E+00  0.000000000E+00  1.831646324E+01  1.831646324E+01  0.000000000E+00  0.00000E+00  9.000E+00
      21    -1     0     0   514   515  0.000000000E+00  0.000000000E+00 -4.147014972E+01  4.147014972E+01  0.000000000E+00  0.00000E+00  9.000E+00
      21     1     1     2   513   515 -1.239613645E+01 -5.714189344E+00 -1.546350163E+00  1.373707966E+01  4.198850037E-07  0.00000E+00  9.000E+00
      21     1     1     2   511   512  7.013970865E+00  9.507641002E+00  8.930221969E+00  1.481012792E+01  2.920019320E-07  0.00000E+00  9.000E+00
      21     1     1     2   514   511  5.382165588E+00 -3.793451657E+00 -3.053755828E+01  3.123940537E+01  3.371747881E-07  0.00000E+00  9.000E+00
</event>
<event>
      5  10001  2.40292E+09  5.18680E+00 -1.00000E+00  2.35680E-01
      21    -1     0     0   516   512  0.000000000E+00  0.000000000E+00  3.148276219E+01  3.148276219E+01  0.000000000E+00  0.00000E+00  9.000E+00
      21    -1     0     0   514   516  0.000000000E+00  0.000000000E+00 -1.385448670E+02  1.385448670E+02  0.000000000E+00  0.00000E+00  9.000E+00
      21     1     1     2   514   517  1.585931500E+00 -9.755999326E+00 -1.183665018E+02  1.187784638E+02  1.907348633E-06  0.00000E+00  9.000E+00
      21     1     1     2   517   511  3.479894192E+00  1.086968582E+01 -1.809613144E+01  2.139461864E+01  2.384185791E-07  0.00000E+00  9.000E+00
      21     1     1     2   511   512 -5.065825692E+00 -1.113686492E+00  2.940052847E+01  2.985454676E+01  5.840038640E-07  0.00000E+00  9.000E+00
</event>
<event>
      5  10001  2.40292E+09  8.45231E+00 -1.00000E+00  2.04532E-01
       2    -1     0     0   515     0  0.000000000E+00  0.000000000E+00  7.495089021E+02  7.495089021E+02  0.000000000E+00  0.00000E+00  9.000E+00
      21    -1     0     0   513   515  0.000000000E+00  0.000000000E+00 -7.031908675E+01  7.031908675E+01  0.000000000E+00  0.00000E+00  9.000E+00
      21     1     1     2   513   514 -2.833565905E+00  5.378479959E+00 -6.366720736E+01  6.395678569E+01  3.371747881E-06  0.00000E+00  9.000E+00
       2     1     1     2   511     0 -3.570592204E+00 -1.081821979E+01  7.465897879E+02  7.466767730E+02  3.300000131E-01  0.00000E+00  9.000E+00
      21     1     1     2   514   511  6.404158110E+00  5.439739833E+00 -3.732765184E+00  9.194430187E+00  2.269677253E-07  0.00000E+00  9.000E+00
</event>
<event>
      5  10001  2.40292E+09  3.69704E+00 -1.00000E+00  2.71684E-01
      -3    -1     0     0     0   512  0.000000000E+00  0.000000000E+00  1.727392439E+00  1.727392439E+00  0.000000000E+00  0.00000E+00  9.000E+00
       2    -1     0     0   512     0  0.000000000E+00  0.000000000E+00 -4.256720968E+02  4.256720968E+02  0.000000000E+00  0.00000E+00  9.000E+00
      -3     1     1     2     0   515 -1.631024966E+01 -4.186171656E+00 -5.117442249E+01  5.387596676E+01  5.000000000E-01  0.00000E+00  9.000E+00
       2     1     1     2   513     0  1.963216817E+01  4.088635036E+00 -3.380931181E+02  3.386874730E+02  3.300000131E-01  0.00000E+00  9.000E+00
      21     1     1     2   515   513 -3.321918508E+00  9.753662068E-02 -3.467716379E+01  3.483604950E+01  4.768371582E-07  0.00000E+00  9.000E+00
</event>
<event>
      5  10001  2.40292E+09  4.75735E+00 -1.00000E+00  2.46808E-01
      21    -1     0     0   514   512  0.000000000E+00  0.000000000E+00  6.845757318E+01  6.845757318E+01  0.000000000E+00  0.00000E+00  9.000E+00
      21    -1     0     0   511   513  0.000000000E+00  0.000000000E+00 -1.234629127E+02  1.234629127E+02  0.000000000E+00  0.00000E+00  9.000E+00
      -3     1     1     2     0   512 -5.788896700E+00  9.573184358E+00 -1.446482959E+01  1.829312654E+01  5.000000000E-01  0.00000E+00  9.000E+00
       3     1     1     2   511     0  1.211844550E+00 -1.086952735E+01 -1.067184933E+02  1.072786186E+02  5.000000000E-01  0.00000E+00  9.000E+00
      21     1     1     2   514   513  4.577052150E+00  1.296342993E+00  6.617798339E+01  6.634874073E+01  9.536743164E-07  0.00000E+00  9.000E+00
</event>
<event>
      5  10001  2.40292E+09  9.77525E+00 -1.00000E+00  1.96846E-01
      21    -1     0     0   515   511  0.000000000E+00  0.000000000E+00  1.285289225E+01  1.285289225E+01  0.000000000E+00  0.00000E+00  9.000E+00
      21    -1     0     0   516   515  0.000000000E+00  0.000000000E+00 -2.815467475E+01  2.815467475E+01  0.000000000E+00  0.00000E+00  9.000E+00
      21     1     1     2   516   513 -3.051727777E+00  8.556995079E+00 -2.068916322E+01  2.259594392E+01  2.384185791E-07  0.00000E+00  9.000E+00
      21     1     1     2   513   512  1.782184740E+00 -2.485338380E+00  1.014390041E+01  1.059489523E+01  2.920019320E-07  0.00000E+00  9.000E+00
      21     1     1     2   512   511  1.269543037E+00 -6.071656699E+00 -4.756519697E+00  7.816727846E+00  0.000000000E+00  0.00000E+00  9.000E+00
</event>
<event>
      5  10001  2.40292E+09  1.52526E+01 -1.00000E+00  1.76656E-01
      21    -1     0     0   512   511  0.000000000E+00  0.000000000E+00  3.008659912E+01  3.008659912E+01  0.000000000E+00  0.00000E+00  9.000E+00
       1    -1     0     0   513     0  0.000000000E+00  0.000000000E+00 -6.628478326E+00  6.628478326E+00  0.000000000E+00  0.00000E+00  9.000E+00
      21     1     1     2   514   511 -5.955982751E+00 -4.395917951E+00  3.582065593E+00  8.223686465E+00  2.021291847E-07  0.00000E+00  9.000E+00
       1     1     1     2   512     0  1.013656798E+01 -3.565519109E+00  7.158086413E+00  1.291549605E+01  3.300000131E-01  0.00000E+00  9.000E+00
      21     1     1     2   513   514 -4.180585232E+00  7.961437061E+00  1.271796879E+01  1.557589493E+01  2.920019320E-07  0.00000E+00  9.000E+00
</event>
<event>
      5  10001  2.40292E+09  5.54538E+00 -1.00000E+00  2.30839E-01
       2    -1     0     0   514     0  0.000000000E+00  0.000000000E+00  7.801668384E+02  7.801668384E+02  0.000000000E+00  0.00000E+00  9.000E+00
      21    -1     0     0   512   511  0.000000000E+00  0.000000000E+00 -2.100557995E+01  2.100557995E+01  0.000000000E+00  0.00000E+00  9.000E+00
      21     1     1     2   512   515 -1.112945320E+01  7.246350031E+00  1.155506577E+01  1.760380249E+01  1.272806913E-06  0.00000E+00  9.000E+00
       2     1     1     2   515     0  7.525583777E+00 -1.146099526E+01  7.650969358E+02  7.652198501E+02  3.300000131E-01  0.00000E+00  9.000E+00
      21     1     1     2   514   511  3.603869425E+00  4.214645231E+00 -1.749074316E+01  1.834876578E+01  9.830249847E-07  0.00000E+00  9.000E+00
</event>
<event>
      5  10001  2.40292E+09  4.17480E+01 -1.00000E+00  1.43667E-01
      21    -1     0     0   513   512  0.000000000E+00  0.000000000E+00  3.144016139E+01  3.144016139E+01  0.000000000E+00  0.00000E+00  9.000E+00
      21    -1     0     0   516   513  0.000000000E+00  0.000000000E+00 -2.064733919E+01  2.064733919E+01  0.000000000E+00  0.00000E+00  9.000E+00
      21     1     1     2   516   511  6.344765972E-01 -6.191038052E+00 -1.013578122E+00  6.305462182E+00  5.438413498E-07  0.00000E+00  9.000E+00
      21     1     1     2   515   512 -3.067360538E+00  1.684386901E+01 -1.109898855E+01  2.040372933E+01  2.920019320E-07  0.00000E+00  9.000E+00
      21     1     1     2   511   515  2.432883940E+00 -1.065283096E+01  2.290538887E+01  2.537830906E+01  3.371747881E-07  0.00000E+00  9.000E+00
</event>
<event>
      5  10001  2.40292E+09  4.15203E+00 -1.00000E+00  2.59605E-01
      -1    -1     0     0     0   514  0.000000000E+00  0.000000000E+00  3.308805800E+02  3.308805800E+02  0.000000000E+00  0.00000E+00  9.000E+00
      21    -1     0     0   512   513  0.000000000E+00  0.000000000E+00 -6.621203204E-01  6.621203204E-01  0.000000000E+00  0.00000E+00  9.000E+00
      -1     1     1     2     0   513  9.506947799E-01  1.391949667E+01  2.046305553E+02  2.051058977E+02  3.300000131E-01  0.00000E+00  9.000E+00
      21     1     1     2   516   514 -1.693178630E+00 -7.802111917E+00  8.630701145E+01  8.667548691E+01  0.000000000E+00  0.00000E+00  9.000E+00
      21     1     1     2   512   516  7.424838501E-01 -6.117384754E+00  3.928089295E+01  3.976131575E+01  0.000000000E+00  0.00000E+00  9.000E+00
</event>
<event>
      5  10001  2.40292E+09  7.86650E+00 -1.00000E+00  2.08564E-01
      21    -1     0     0   512   514  0.000000000E+00  0.000000000E+00  1.399327059E+02  1.399327059E+02  0.000000000E+00  0.00000E+00  9.000E+00
       2    -1     0     0   514     0  0.000000000E+00  0.000000000E+00 -1.054239994E+01  1.054239994E+01  0.000000000E+00  0.00000E+00  9.000E+00
      21     1     1     2   512   513 -3.643007470E+00 -2.418162350E+00  5.045637106E+01  5.064547752E+01  6.743495762E-07  0.00000E+00  9.000E+00
       2     1     1     2   511     0  9.943484151E+00 -1.294540027E+00 -7.849500746E+00  1.273861346E+01  3.300000131E-01  0.00000E+00  9.000E+00
      21     1     1     2   513   511 -6.300476681E+00  3.712702377E+00  8.678343560E+01  8.709101481E+01  9.536743164E-07  0.00000E+00  9.000E+00
</event>
<event>
      5  10001  2.40292E+09  8.57852E+00 -1.00000E+00  2.03720E-01
      -4    -1     0     0     0   515  0.000000000E+00  0.000000000E+00  2.606103443E+02  2.606103443E+02  0.000000000E+00  0.00000E+00  9.000E+00
      21    -1     0     0   516   512  0.000000000E+00  0.000000000E+00 -7.466955253E+01  7.466955253E+01  0.000000000E+00  0.00000E+00  9.000E+00
      -4     1     1     2     0   514  6.810389101E+00  5.953174271E+00  2.011522553E+02  2.013611221E+02  1.500000000E+00  0.00000E+00  9.000E+00
      21     1     1     2   514   512 -5.588772715E+00 -1.444393898E+01  5.808895408E+01  6.011811990E+01  9.536743164E-07  0.00000E+00  9.000E+00
      21     1     1     2   516   515 -1.221616386E+00  8.490764713E+00 -7.330041761E+01  7.380065483E+01  1.348699152E-06  0.00000E+00  9.000E+00
</event>
<event>
      5  10001  2.40292E+09  1.00668E+01 -1.00000E+00  1.95365E-01
      21    -1     0     0   511   514  0.000000000E+00  0.000000000E+00  8.023044945E+01  8.023044945E+01  0.000000000E+00  0.00000E+00  9.000E+00
      21    -1     0     0   515   512  0.000000000E+00  0.000000000E+00 -7.599302762E+01  7.599302762E+01  0.000000000E+00  0.00000E+00  9.000E+00
      21     1     1     2   511   513  1.145812690E+01  2.640864478E+00  4.189005818E+01  4.350907735E+01  1.066240300E-06  0.00000E+00  9.000E+00
      21     1     1     2   515   514 -2.096788540E+01  6.615023775E-01  3.422091964E+01  4.013927185E+01  0.000000000E+00  0.00000E+00  9.000E+00
      21     1     1     2   513   512  9.509758497E+00 -3.302366856E+00 -7.187355599E+01  7.257512787E+01  1.348699152E-06  0.00000E+00  9.000E+00
</event>
<event>
      5  10001  2.40292E+09  1.05281E+01 -1.00000E+00  1.93152E-01
      21    -1     0     0   516   514  0.000000000E+00  0.000000000E+00  8.584604696E+00  8.584604696E+00  0.000000000E+00  0.00000E+00  9.000E+00
       1    -1     0     0   511     0  0.000000000E+00  0.000000000E+00 -1.185501513E+03  1.185501513E+03  0.000000000E+00  0.00000E+00  9.000E+00
      21     1     1     2   513   514  9.289990479E+00 -1.144767143E+01  1.856309303E+00  1.485930646E+01  1.282019565E-06  0.00000E+00  9.000E+00
       1     1     1     2   516     0 -1.268757155E+01  1.482943082E+00 -1.030939972E+03  1.031019160E+03  3.300000131E-01  0.00000E+00  9.000E+00
      21     1     1     2   511   513  3.397581067E+00  9.964728345E+00 -1.478332456E+02  1.482076512E+02  3.303624740E-06  0.00000E+00  9.000E+00
</event>
<event>
      5  10001  2.40292E+09  3.80984E+00 -1.00000E+00  2.68443E-01
      21    -1     0     0   512   513  0.000000000E+00  0.000000000E+00  4.072525243E+01  4.072525243E+01  0.000000000E+00  0.00000E+00  9.000E+00
      21    -1     0     0   511   512  0.000000000E+00  0.000000000E+00 -1.505053671E+01  1.505053671E+01  0.000000000E+00  0.00000E+00  9.000E+00
      21     1     1     2   515   513  9.565622383E+00 -7.339522031E+00  3.408161314E+01  3.615143247E+01  0.000000000E+00  0.00000E+00  9.000E+00
      21     1     1     2   511   514 -9.921445059E+00  9.320861859E+00 -1.013484911E+01  1.697140844E+01  7.152557373E-07  0.00000E+00  9.000E+00
      21     1     1     2   514   515  3.558226763E-01 -1.981339827E+00  1.727951689E+00  2.652948233E+00  2.107342426E-08  0.00000E+00  9.000E+00
</event>
<event>
      5  10001  2.40292E+09  6.60392E+00 -1.00000E+00  2.19118E-01
      21    -1     0     0   516   511  0.000000000E+00  0.000000000E+00  1.100348317E+02  1.100348317E+02  0.000000000E+00  0.00000E+00  9.000E+00
      -2    -1     0     0     0   515  0.000000000E+00  0.000000000E+00 -2.147046795E+02  2.147046795E+02  0.000000000E+00  0.00000E+00  9.000E+00
      21     1     1     2   516   515  1.235717596E+01 -8.846202847E+00  2.562508983E+01  2.979262210E+01  3.371747881E-07  0.00000E+00  9.000E+00
      21     1     1     2   513   511 -5.756316121E+00  9.046875110E+00  8.192510178E+01  8.262386717E+01  1.651812370E-06  0.00000E+00  9.000E+00
      -2     1     1     2     0   513 -6.600859835E+00 -2.006722629E-01 -2.122200394E+02  2.123230219E+02  3.300000131E-01  0.00000E+00  9.000E+00
</event>
<event>
      5  10001  2.40292E+09  1.62426E+01 -1.00000E+00  1.74142E-01
      21    -1     0     0   512   513  0.000000000E+00  0.000000000E+00  2.126272164E+01  2.126272164E+01  0.000000000E+00  0.00000E+00  9.000E+00
      21    -1     0     0   514   512  0.000000000E+00  0.000000000E+00 -5.381615485E+00  5.381615485E+00  0.000000000E+00  0.00000E+00  9.000E+00
      21     1     1     2   514   517  2.575654613E+00 -1.788730971E+00  1.648672312E+00  3.542834397E+00  9.185692672E-08  0.00000E+00  9.000E+00
      21     1     1     2   517   511 -3.139880189E+00  4.775273410E+00  1.763569992E+01  1.853860823E+01  4.129530925E-07  0.00000E+00  9.000E+00
      21     1     1     2   511   513  5.642255758E-01 -2.986542439E+00 -3.403266070E+00  4.562894496E+00  5.960464478E-08  0.00000E+00  9.000E+00
</event>
<event>
      5  10001  2.40292E+09  7.33473E+00 -1.00000E+00  2.12656E-01
      21    -1     0     0   515   516  0.000000000E+00  0.000000000E+00  6.659877100E+01  6.659877100E+01  0.000000000E+00  0.00000E+00  9.000E+00
      21    -1     0     0   513   515  0.000000000E+00  0.000000000E+00 -1.053129350E+02  1.053129350E+02  0.000000000E+00  0.00000E+00  9.000E+00
      21     1     1     2   513   514  1.285594125E+00 -1.141306507E+01 -1.040148345E+02  1.046470095E+02  1.348699152E-06  0.00000E+00  9.000E+00
      21     1     1     2   512   516 -5.990803124E+00  7.182704936E+00  4.639248257E+01  4.732592747E+01  6.743495762E-07  0.00000E+00  9.000E+00
      21     1     1     2   514   512  4.705208999E+00  4.230360130E+00  1.890818794E+01  1.993876901E+01  0.000000000E+00  0.00000E+00  9.000E+00
</event>
<event>
      5  10001  2.40292E+09  8.82091E+00 -1.00000E+00  2.02212E-01
      21    -1     0     0   511   512  0.000000000E+00  0.000000000E+00  5.241537153E+02  5.241537153E+02  0.000000000E+00  0.00000E+00  9.000E+00
      21    -1     0     0   515   517  0.000000000E+00  0.000000000E+00 -4.753458262E+00  4.753458262E+00  0.000000000E+00  0.00000E+00  9.000E+00
      21     1     1     2   511   517 -5.231616447E+00 -4.867947956E+00  3.208228938E+02  3.209024710E+02  3.814697266E-06  0.00000E+00  9.000E+00
      21     1     1     2   513   512  1.401612925E+01  4.067416561E+00  1.986481135E+02  1.991835052E+02  2.697398305E-06  0.00000E+00  9.000E+00
      21     1     1     2   515   513 -8.784512803E+00  8.005313951E-01 -7.075029461E-02  8.821197272E+00  3.572723827E-07  0.00000E+00  9.000E+00
</event>
<event>
      5  10001  2.40292E+09  9.30499E+00 -1.00000E+00  1.99384E-01
      21    -1     0     0   514   512  0.000000000E+00  0.000000000E+00  5.269792014E+00  5.269792014E+00  0.000000000E+00  0.00000E+00  9.000E+00
       2    -1     0     0   513     0  0.000000000E+00  0.000000000E+00 -7.384685474E+01  7.384685474E+01  0.000000000E+00  0.00000E+00  9.000E+00
      21     1     1     2   513   512 -9.000876198E+00 -6.205740724E+00 -5.744331827E+01  5.847445429E+01  9.536743164E-07  0.00000E+00  9.000E+00
      21     1     1     2   514   511  1.196164950E+01  1.912460034E+00 -8.433185050E+00  1.475998551E+01  1.685873940E-07  0.00000E+00  9.000E+00
       2     1     1     2   511     0 -2.960773301E+00  4.293280690E+00 -2.700559412E+00  5.882206964E+00  3.300000131E-01  0.00000E+00  9.000E+00
</event>
<event>
      5  10001  2.40292E+09  2.67919E+00 -1.00000E+00  3.12459E-01
      21    -1     0     0   511   513  0.000000000E+00  0.000000000E+00  6.777505733E+00  6.777505733E+00  0.000000000E+00  0.00000E+00  9.000E+00
       2    -1     0     0   512     0  0.000000000E+00  0.000000000E+00 -4.084217953E+02  4.084217953E+02  0.000000000E+00  0.00000E+00  9.000E+00
      21     1     1     2   512   515 -1.296265065E+01 -9.929589311E+00 -4.117644036E+00  1.683989454E+01  8.513246093E-07  0.00000E+00  9.000E+00
       2     1     1     2   511     0  1.080175056E+01  8.345788588E+00 -3.917912396E+02  3.920290988E+02  3.300000131E-01  0.00000E+00  9.000E+00
      21     1     1     2   515   513  2.160900089E+00  1.583800723E+00 -5.735405910E+00  6.330307644E+00  0.000000000E+00  0.00000E+00  9.000E+00
</event>
<event>
      5  10001  2.40292E+09  2.59829E+01 -1.00000E+00  1.57469E-01
      21    -1     0     0   511   515  0.000000000E+00  0.000000000E+00  1.858076188E+02  1.858076188E+02  0.000000000E+00  0.00000E+00  9.000E+00
      21    -1     0     0   512   513  0.000000000E+00  0.000000000E+00 -1.593452921E+01  1.593452921E+01  0.000000000E+00  0.00000E+00  9.000E+00
      21     1     1     2   514   513 -2.745444279E+01  7.265824151E+00  8.330394006E+00  2.959618377E+01  4.129530925E-07  0.00000E+00  9.000E+00
      21     1     1     2   512   515  7.299146565E+00  9.131540473E+00  3.821715266E+00  1.229910889E+01  2.421152116E-07  0.00000E+00  9.000E+00
      21     1     1     2   511   514  2.015529622E+01 -1.639736462E+01  1.577209804E+02  1.598468554E+02  0.000000000E+00  0.00000E+00  9.000E+00
</event>
<event>
      5  10001  2.40292E+09  2.50064E+00 -1.00000E+00  3.22958E-01
       3    -1     0     0   513     0  0.000000000E+00  0.000000000E+00  4.292172499E+00  4.292172499E+00  0.000000000E+00  0.00000E+00  9.000E+00
      21    -1     0     0   511   516  0.000000000E+00  0.000000000E+00 -3.841480432E+02  3.841480432E+02  0.000000000E+00  0.00000E+00  9.000E+00
      21     1     1     2   512   516  1.170571211E+01  5.264450594E+00 -1.999888443E+02  2.004002894E+02  3.814697266E-06  0.00000E+00  9.000E+00
       3     1     1     2   511     0 -9.549975473E+00 -3.997543642E+00 -1.834104524E+02  1.837030932E+02  5.000000000E-01  0.00000E+00  9.000E+00
      21     1     1     2   513   512 -2.155736634E+00 -1.266906952E+00  3.543426028E+00  4.336833139E+00  7.300048300E-08  0.00000E+00  9.000E+00
</event>
<event>
      5  10001  2.40292E+09  2.19380E+00 -1.00000E+00  3.45119E-01
       2    -1     0     0   513     0  0.000000000E+00  0.000000000E+00  5.238206570E+01  5.238206570E+01  0.000000000E+00  0.00000E+00  9.000E+00
       2    -1     0     0   511     0  0.000000000E+00  0.000000000E+00 -1.311106968E+01  1.311106968E+01  0.000000000E+00  0.00000E+00  9.000E+00
       2     1     1     2   513     0  4.925421334E+00 -1.076596186E+01 -8.880373288E+00  1.480323072E+01  3.300000131E-01  0.00000E+00  9.000E+00
       2     1     1     2   512     0 -5.018165172E+00  8.574302711E+00  4.730590733E+01  4.833899479E+01  3.300000131E-01  0.00000E+00  9.000E+00
      21     1     1     2   511   512  9.274383805E-02  2.191659148E+00  8.454619777E-01  2.350909866E+00  2.980232239E-08  0.00000E+00  9.000E+00
</event>
<event>
      5  10001  2.40292E+09  1.03689E+01 -1.00000E+00  1.93899E-01
      21    -1     0     0   514   512  0.000000000E+00  0.000000000E+00  1.094729248E+02  1.094729248E+02  0.000000000E+00  0.00000E+00  9.000E+00
      21    -1     0     0   513   514  0.000000000E+00  0.000000000E+00 -1.578457752E+02  1.578457752E+02  0.000000000E+00  0.00000E+00  9.000E+00
      21     1     1     2   511   515 -2.805253459E+01 -1.938049576E+00 -2.294948566E+01  3.629572461E+01  1.390207266E-06  0.00000E+00  9.000E+00
      21     1     1     2   515   512  2.471149992E+01  1.175393618E+01  1.007623337E+02  1.044119780E+02  1.348699152E-06  0.00000E+00  9.000E+00
      21     1     1     2   513   511  3.341034670E+00 -9.815886607E+00 -1.261856986E+02  1.266109974E+02  0.000000000E+00  0.00000E+00  9.000E+00
</event>
<event>
      5  10001  2.40292E+09  3.04589E+00 -1.00000E+00  2.94744E-01
      -2    -1     0     0     0   511  0.000000000E+00  0.000000000E+00  6.168255399E+00  6.168255399E+00  0.000000000E+00  0.00000E+00  9.000E+00
      21    -1     0     0   515   514  0.000000000E+00  0.000000000E+00 -6.855666270E+01  6.855666270E+01  0.000000000E+00  0.00000E+00  9.000E+00
      -2     1     1     2     0   514  6.490175875E+00  1.070265641E+01 -2.853238367E+00  1.284208341E+01  3.300000131E-01  0.00000E+00  9.000E+00
      21     1     1     2   512   511 -5.924360790E+00 -7.709995426E+00 -2.007990051E+01  2.231018792E+01  6.743495762E-07  0.00000E+00  9.000E+00
      21     1     1     2   515   512 -5.658150843E-01 -2.992660983E+00 -3.945526842E+01  3.957264677E+01  4.768371582E-07  0.00000E+00  9.000E+00
</event>
<event>
      5  10001  2.40292E+09  2.05297E+01 -1.00000E+00  1.65397E-01
      21    -1     0     0   513   512  0.000000000E+00  0.000000000E+00  6.831140490E+00  6.831140490E+00  0.000000000E+00  0.00000E+00  9.000E+00
      21    -1     0     0   515   516  0.000000000E+00  0.000000000E+00 -1.110261535E+02  1.110261535E+02  0.000000000E+00  0.00000E+00  9.000E+00
      21     1     1     2   513   516  7.478446833E+00 -7.097146023E+00 -9.049841171E+01  9.108380301E+01  9.536743164E-07  0.00000E+00  9.000E+00
      21     1     1     2   515   511  4.559644205E+00 -6.817720620E-01  2.418982269E+00  5.206404099E+00  3.291774099E-07  0.00000E+00  9.000E+00
      21     1     1     2   511   512 -1.203809104E+01  7.778918085E+00 -1.611558354E+01  2.156708685E+01  0.000000000E+00  0.00000E+00  9.000E+00
</event>
<event>
      5  10001  2.40292E+09  2.45977E+01 -1.00000E+00  1.59242E-01
       4    -1     0     0   513     0  0.000000000E+00  0.000000000E+00  3.702551317E+00  3.702551317E+00  0.000000000E+00  0.00000E+00  9.000E+00
      21    -1     0     0   514   513  0.000000000E+00  0.000000000E+00 -6.416700643E+01  6.416700643E+01  0.000000000E+00  0.00000E+00  9.000E+00
      21     1     1     2   514   511  6.062733812E+00  5.156410303E+00 -1.633375332E+01  1.816966720E+01  3.371747881E-07  0.00000E+00  9.000E+00
      21     1     1     2   511   515 -3.649477451E+00  4.613854237E+00 -3.652680612E+01  3.699748508E+01  6.743495762E-07  0.00000E+00  9.000E+00
       4     1     1     2   515     0 -2.413256361E+00 -9.770264539E+00 -7.603895668E+00  1.270240547E+01  1.500000000E+00  0.00000E+00  9.000E+00
</event>
<event>
      5  10001  2.40292E+09  5.15155E+00 -1.00000E+00  2.36186E-01
      21    -1     0     0   511   513  0.000000000E+00  0.000000000E+00  6.655725432E+02  6.655725432E+02  0.000000000E+00  0.00000E+00  9.000E+00
       1    -1     0     0   514     0  0.000000000E+00  0.000000000E+00 -2.644920465E+00  2.644920465E+00  0.000000000E+00  0.00000E+00  9.000E+00
      21     1     1     2   511   512  5.464990865E+00  6.605950139E+00  5.377589982E+02  5.378273374E+02  1.078959322E-05  0.00000E+00  9.000E+00
       1     1     1     2   512     0 -1.033640253E+01 -8.281343792E+00  1.465307316E+01  1.975457733E+01  3.300000131E-01  0.00000E+00  9.000E+00
      21     1     1     2   514   513  4.871411660E+00  1.675393653E+00  1.105155514E+02  1.106355490E+02  1.348699152E-06  0.00000E+00  9.000E+00
</event>
<event>
      5  10001  2.40292E+09  5.41239E+00 -1.00000E+00  2.32572E-01
      21    -1     0     0   512   513  0.000000000E+00  0.000000000E+00  2.856905028E+01  2.856905028E+01  0.000000000E+00  0.00000E+00  9.000E+00
       3    -1     0     0   513     0  0.000000000E+00  0.000000000E+00 -1.339255505E+01  1.339255505E+01  0.000000000E+00  0.00000E+00  9.000E+00
      21     1     1     2   512   514 -9.135294241E+00 -7.131207887E+00  2.361471730E+01  2.630518200E+01  0.000000000E+00  0.00000E+00  9.000E+00
       3     1     1     2   511     0  7.538565686E+00  2.033767760E+00 -4.566788604E+00  9.059345564E+00  5.000000000E-01  0.00000E+00  9.000E+00
      21     1     1     2   514   511  1.596728555E+00  5.097440128E+00 -3.871433470E+00  6.597077766E+00  9.424321831E-08  0.00000E+00  9.000E+00
</event>
<event>
      5  10001  2.40292E+09  1.43468E+01 -1.00000E+00  1.79176E-01
      21    -1     0     0   515   511  0.000000000E+00  0.000000000E+00  1.282350904E+02  1.282350904E+02  0.000000000E+00  0.00000E+00  9.000E+00
      21    -1     0     0   511   512  0.000000000E+00  0.000000000E+00 -8.970325839E-01  8.970325839E-01  0.000000000E+00  0.00000E+00  9.000E+00
      21     1     1     2   513   512 -3.174021530E+00 -1.538310009E+00  5.290568594E+00  6.358531780E+00  1.685873940E-07  0.00000E+00  9.000E+00
       4     1     1     2   515     0  4.534692110E+00  4.364434255E+00  3.141060522E+01  3.207004582E+01  1.500000000E+00  0.00000E+00  9.000E+00
      -4     1     1     2     0   513 -1.360670580E+00 -2.826124246E+00  9.063688396E+01  9.070354533E+01  1.500000000E+00  0.00000E+00  9.000E+00
</event>
<event>
      5  10001  2.40292E+09  6.67838E+00 -1.00000E+00  2.18408E-01
      21    -1     0     0   514   512  0.000000000E+00  0.000000000E+00  1.127660100E+02  1.127660100E+02  0.000000000E+00  0.00000E+00  9.000E+00
      21    -1     0     0   511   513  0.000000000E+00  0.000000000E+00 -1.120182906E+00  1.120182906E+00  0.000000000E+00  0.00000E+00  9.000E+00
      21     1     1     2   514   513  1.708198942E+00  1.016158495E+01  4.276425777E+01  4.398815176E+01  0.000000000E+00  0.00000E+00  9.000E+00
      21     1     1     2   515   512 -2.596829018E+00 -4.346277663E+00  1.871595615E+01  1.938867363E+01  0.000000000E+00  0.00000E+00  9.000E+00
      21     1     1     2   511   515  8.886300757E-01 -5.815307287E+00  5.016561320E+01  5.050936755E+01  9.536743164E-07  0.00000E+00  9.000E+00
</event>
<event>
      5  10001  2.40292E+09  4.88241E+00 -1.00000E+00  2.44517E-01
      21    -1     0     0   516   513  0.000000000E+00  0.000000000E+00  2.481497494E+00  2.481497494E+00  0.000000000E+00  0.00000E+00  9.000E+00
      21    -1     0     0   511   512  0.000000000E+00  0.000000000E+00 -1.050709923E+02  1.050709923E+02  0.000000000E+00  0.00000E+00  9.000E+00
      21     1     1     2   516   517 -5.907099919E+00  1.158220003E+01 -2.462001199E+01  2.784216546E+01  3.371747881E-07  0.00000E+00  9.000E+00
      21     1     1     2   511   513  1.145045347E+00 -1.050481950E+01 -3.793646142E+01  3.938067377E+01  6.743495762E-07  0.00000E+00  9.000E+00
      21     1     1     2   517   512  4.762054572E+00 -1.077380529E+00 -4.003302138E+01  4.032965055E+01  8.259061849E-07  0.00000E+00  9.000E+00
</event>
<event>
      5  10001  2.40292E+09  6.21595E+00 -1.00000E+00  2.23036E-01
      -2    -1     0     0     0   511  0.000000000E+00  0.000000000E+00  6.361077873E+00  6.361077873E+00  0.000000000E+00  0.00000E+00  9.000E+00
      21    -1     0     0   517   515  0.000000000E+00  0.000000000E+00 -2.771816492E+02  2.771816492E+02  0.000000000E+00  0.00000E+00  9.000E+00
      21     1     1     2   514   515 -1.229962669E+01 -3.973256530E+00 -1.523036938E+02  1.528511784E+02  0.000000000E+00  0.00000E+00  9.000E+00
      21     1     1     2   517   511  1.082839191E+01  1.001247699E+01 -1.224457592E+02  1.233307249E+02  1.348699152E-06  0.00000E+00  9.000E+00
      -2     1     1     2     0   514  1.471234788E+00 -6.039220460E+00  3.928881663E+00  7.360823778E+00  3.300000131E-01  0.00000E+00  9.000E+00
</event>
<event>
      5  10001  2.40292E+09  3.14335E+00 -1.00000E+00  2.90716E-01
       1    -1     0     0   512     0  0.000000000E+00  0.000000000E+00  2.238967612E+02  2.238967612E+02  0.000000000E+00  0.00000E+00  9.000E+00
      -3    -1     0     0     0   512  0.000000000E+00  0.000000000E+00 -7.961167973E+00  7.961167973E+00  0.000000000E+00  0.00000E+00  9.000E+00
      -3     1     1     2     0   513  8.107205061E+00 -3.542764786E+00 -1.896102436E+00  9.062182998E+00  5.000000000E-01  0.00000E+00  9.000E+00
       1     1     1     2   511     0 -8.525457422E+00  5.822483347E+00  2.196234188E+02  2.198661859E+02  3.300000131E-01  0.00000E+00  9.000E+00
      21     1     1     2   513   511  4.182523612E-01 -2.279718561E+00 -1.791723093E+00  2.929560274E+00  1.618680431E-07  0.00000E+00  9.000E+00
</event>
<event>
      5  10001  2.40292E+09  8.18584E+00 -1.00000E+00  2.06310E-01
       2    -1     0     0   512     0  0.000000000E+00  0.000000000E+00  4.939397912E+02  4.939397912E+02  0.000000000E+00  0.00000E+00  9.000E+00
      21    -1     0     0   514   511  0.000000000E+00  0.000000000E+00 -1.750193946E+00  1.750193946E+00  0.000000000E+00  0.00000E+00  9.000E+00
      21     1     1     2   512   511  2.176051606E+00 -1.135066373E+01  1.910633012E+01  2.232990413E+01  1.039242493E-06  0.00000E+00  9.000E+00
      21     1     1     2   514   515  6.081918577E-01  1.228541100E+01  3.006938859E+02  3.009453675E+02  3.814697266E-06  0.00000E+00  9.000E+00
       2     1     1     2   515     0 -2.784243464E+00 -9.347472653E-01  1.723893812E+02  1.724147134E+02  3.300000131E-01  0.00000E+00  9.000E+00
</event>
<event>
      5  10001  2.40292E+09  1.47137E+01 -1.00000E+00  1.78128E-01
      21    -1     0     0   513   511  0.000000000E+00  0.000000000E+00  6.219656562E+00  6.219656562E+00  0.000000000E+00  0.00000E+00  9.000E+00
      21    -1     0     0   517   516  0.000000000E+00  0.000000000E+00 -1.525699863E+02  1.525699863E+02  0.000000000E+00  0.00000E+00  9.000E+00
      21     1     1     2   513   516  2.977453248E+00  1.066572540E+01  1.550448634E-01  1.107460903E+01  4.535799101E-07  0.00000E+00  9.000E+00
      21     1     1     2   517   512  5.053237739E+00 -9.318185338E+00 -7.440587055E+01  7.515715110E+01  9.536743164E-07  0.00000E+00  9.000E+00
      21     1     1     2   512   511 -8.030690987E+00 -1.347540064E+00 -7.209950402E+01  7.255788270E+01  9.536743164E-07  0.00000E+00  9.000E+00
</event>
<event>
      5  10001  2.40292E+09  1.03197E+01 -1.00000E+00  1.94133E-01
       2    -1     0     0   513     0  0.000000000E+00  0.000000000E+00  6.263600237E+01  6.263600237E+01  0.000000000E+00  0.00000E+00  9.000E+00
      21    -1     0     0   512   514  0.000000000E+00  0.000000000E+00 -5.218480212E+00  5.218480212E+00  0.000000000E+00  0.00000E+00  9.000E+00
      21     1     1     2   515   514  6.905473642E+00 -5.309743341E+00  7.366027960E+00  1.140777404E+01  2.665600750E-07  0.00000E+00  9.000E+00
       2     1     1     2   512     0 -4.085606345E+00  1.523567220E+01  3.054241197E+01  3.437681945E+01  3.300000131E-01  0.00000E+00  9.000E+00
      21     1     1     2   513   515 -2.819867298E+00 -9.925928858E+00  1.950908222E+01  2.206988909E+01  3.371747881E-07  0.00000E+00  9.000E+00
</event>
<event>
      5  10001  2.40292E+09  1.11145E+01 -1.00000E+00  1.90543E-01
      21    -1     0     0   511   512  0.000000000E+00  0.000000000E+00  1.061647909E+03  1.061647909E+03  0.000000000E+00  0.00000E+00  9.000E+00
      21    -1     0     0   516   515  0.000000000E+00  0.000000000E+00 -1.400518476E-01  1.400518476E-01  0.000000000E+00  0.00000E+00  9.000E+00
      21     1     1     2   511   515 -3.320802583E+00  1.006065381E+01  6.584169060E+02  6.585021387E+02  7.629394531E-06  0.00000E+00  9.000E+00
      -2     1     1     2     0   512 -1.888943778E+00 -2.202684768E+00  6.914610965E+01  6.920775468E+01  3.300000131E-01  0.00000E+00  9.000E+00
       2     1     1     2   516     0  5.209746361E+00 -7.857969046E+00  3.339448416E+02  3.340780676E+02  3.300000131E-01  0.00000E+00  9.000E+00
</event>
<event>
      5  10001  2.40292E+09  5.51161E+00 -1.00000E+00  2.31272E-01
      21    -1     0     0   514   512  0.000000000E+00  0.000000000E+00  5.639120032E+01  5.639120032E+01  0.000000000E+00  0.00000E+00  9.000E+00
      21    -1     0     0   513   514  0.000000000E+00  0.000000000E+00 -9.988619677E+01  9.988619677E+01  0.000000000E+00  0.00000E+00  9.000E+00
      21     1     1     2   511   512 -3.198362495E+00 -7.959677434E+00  5.476335919E+01  5.543114194E+01  2.336015456E-06  0.00000E+00  9.000E+00
       3     1     1     2   513     0  4.797175229E+00  1.092283179E+01 -9.604872162E+01  9.678805747E+01  5.000000000E-01  0.00000E+00  9.000E+00
      -3     1     1     2     0   511 -1.598812734E+00 -2.963154360E+00 -2.209634020E+00  4.058197681E+00  5.000000000E-01  0.00000E+00  9.000E+00
</event>
<event>
      5  10001  2.40292E+09  4.54511E+00 -1.00000E+00  2.50949E-01
      21    -1     0     0   511   512  0.000000000E+00  0.000000000E+00  8.377051579E+02  8.377051579E+02  0.000000000E+00  0.00000E+00  9.000E+00
      -2    -1     0     0     0   511  0.000000000E+00  0.000000000E+00 -3.169584622E+02  3.169584622E+02  0.000000000E+00  0.00000E+00  9.000E+00
      -2     1     1     2     0   514  2.291956994E+00 -1.184865686E+01 -3.167643879E+02  3.169943692E+02  3.300000131E-01  0.00000E+00  9.000E+00
      21     1     1     2   514   515  1.887925097E+00  1.006355657E+01  7.159737024E+02  7.160469132E+02  1.078959322E-05  0.00000E+00  9.000E+00
      21     1     1     2   515   512 -4.179882092E+00  1.785100287E+00  1.215373812E+02  1.216223377E+02  2.336015456E-06  0.00000E+00  9.000E+00
</event>
<event>
      5  10001  2.40292E+09  7.37143E+00 -1.00000E+00  2.12359E-01
       2    -1     0     0   511     0  0.000000000E+00  0.000000000E+00  5.000338710E+02  5.000338710E+02  0.000000000E+00  0.00000E+00  9.000E+00
      21    -1     0     0   516   511  0.000000000E+00  0.000000000E+00 -6.059189724E+00  6.059189724E+00  0.000000000E+00  0.00000E+00  9.000E+00
      21     1     1     2   514   513  1.085943363E+01  2.322440375E+00  9.079974840E+01  9.147631025E+01  0.000000000E+00  0.00000E+00  9.000E+00
       2     1     1     2   513     0 -1.325926245E+01 -9.292206718E+00  4.062911506E+02  4.066137739E+02  3.300000131E-01  0.00000E+00  9.000E+00
      21     1     1     2   516   514  2.399828820E+00  6.969766343E+00 -3.116217738E+00  8.002976586E+00  3.816559456E-07  0.00000E+00  9.000E+00
</event>
<event>
      5  10001  2.40292E+09  7.00035E+00 -1.00000E+00  2.15479E-01
      21    -1     0     0   512   513  0.000000000E+00  0.000000000E+00  1.547965213E+00  1.547965213E+00  0.000000000E+00  0.00000E+00  9.000E+00
      21    -1     0     0   515   514  0.000000000E+00  0.000000000E+00 -2.349307116E+02  2.349307116E+02  0.000000000E+00  0.00000E+00  9.000E+00
      21     1     1     2   512   514 -7.780549517E+00  1.560918619E+01 -7.040364152E+01  7.253176121E+01  9.536743164E-07  0.00000E+00  9.000E+00
      21     1     1     2   515   511  1.161067263E+00 -3.650894391E+00 -2.490405415E+01  2.519700419E+01  3.371747881E-07  0.00000E+00  9.000E+00
      21     1     1     2   511   513  6.619482253E+00 -1.195829180E+01 -1.380750507E+02  1.387499114E+02  0.000000000E+00  0.00000E+00  9.000E+00
</event>
<event>
      5  10001  2.40292E+09  6.61887E+00 -1.00000E+00  2.18975E-01
       2    -1     0     0   512     0  0.000000000E+00  0.000000000E+00  4.268317089E+02  4.268317089E+02  0.000000000E+00  0.00000E+00  9.000E+00
      21    -1     0     0   516   512  0.000000000E+00  0.000000000E+00 -6.431182701E+00  6.431182701E+00  0.000000000E+00  0.00000E+00  9.000E+00
      21     1     1     2   516   514  8.140174517E+00 -4.680336137E+00 -4.287857700E-01  9.399566200E+00  8.571730267E-07  0.00000E+00  9.000E+00
       2     1     1     2   511     0 -1.121182958E+01 -3.730049812E-01  4.162050155E+02  4.163562994E+02  3.300000131E-01  0.00000E+00  9.000E+00
      21     1     1     2   514   511  3.071655068E+00  5.053341118E+00  4.624296531E+00  7.507026024E+00  2.795705652E-07  0.00000E+00  9.000E+00
</event>
<event>
      5  10001  2.40292E+09  6.62604E+00 -1.00000E+00  2.18906E-01
      21    -1     0     0   513   511  0.000000000E+00  0.000000000E+00  1.144490747E+01  1.144490747E+01  0.000000000E+00  0.00000E+00  9.000E+00
       1    -1     0     0   512     0  0.000000000E+00  0.000000000E+00 -1.921876374E+02  1.921876374E+02  0.000000000E+00  0.00000E+00  9.000E+00
      21     1     1     2   514   511  8.789747919E+00  5.539008347E+00  8.174057196E+00  1.321951183E+01  2.384185791E-07  0.00000E+00  9.000E+00
       1     1     1     2   513     0 -1.300602954E+01 -1.065033982E+01 -1.188043343E+02  1.199881881E+02  3.300000131E-01  0.00000E+00  9.000E+00
      21     1     1     2   512   514  4.216281626E+00  5.111331470E+00 -7.011245278E+01  7.042484487E+01  9.536743164E-07  0.00000E+00  9.000E+00
</event>
<event>
      5  10001  2.40292E+09  4.15832E+00 -1.00000E+00  2.59455E-01
      21    -1     0     0   512   515  0.000000000E+00  0.000000000E+00  3.714347258E+00  3.714347258E+00  0.000000000E+00  0.00000E+00  9.000E+00
      -3    -1     0     0     0   514  0.000000000E+00  0.000000000E+00 -1.389416778E+02  1.389416778E+02  0.000000000E+00  0.00000E+00  9.000E+00
      21     1     1     2   511   515 -1.226517614E+01 -6.951696181E-01 -1.026098245E+02  1.033426045E+02  1.348699152E-06  0.00000E+00  9.000E+00
      21     1     1     2   512   514  1.638227432E+01  2.341069270E+00 -2.016802206E+01  2.608847698E+01  6.743495762E-07  0.00000E+00  9.000E+00
      -3     1     1     2     0   511 -4.117098180E+00 -1.645899652E+00 -1.244948394E+01  1.322494361E+01  5.000000000E-01  0.00000E+00  9.000E+00
</event>
<event>
      5  10001  2.40292E+09  5.56820E+00 -1.00000E+00  2.30548E-01
      21    -1     0     0   513   516  0.000000000E+00  0.000000000E+00  2.386508062E+02  2.386508062E+02  0.000000000E+00  0.00000E+00  9.000E+00
      21    -1     0     0   515   512  0.000000000E+00  0.000000000E+00 -2.170198969E+01  2.170198969E+01  0.000000000E+00  0.00000E+00  9.000E+00
      21     1     1     2   513   511 -3.228012500E+00 -1.635107789E+01  2.338543046E+02  2.344474645E+02  2.697398305E-06  0.00000E+00  9.000E+00
      21     1     1     2   515   516  2.433007710E+00  1.083992031E+01 -3.927759046E+00  1.178349226E+01  3.318646170E-07  0.00000E+00  9.000E+00
      21     1     1     2   511   512  7.950047906E-01  5.511157584E+00 -1.297772904E+01  1.412183917E+01  6.951036328E-07  0.00000E+00  9.000E+00
</event>
<event>
      5  10001  2.40292E+09  2.09556E+01 -1.00000E+00  1.64673E-01
       2    -1     0     0   511     0  0.000000000E+00  0.000000000E+00  2.375139044E+02  2.375139044E+02  0.000000000E+00  0.00000E+00  9.000E+00
      21    -1     0     0   514   513  0.000000000E+00  0.000000000E+00 -4.928117095E+02  4.928117095E+02  0.000000000E+00  0.00000E+00  9.000E+00
      21     1     1     2   511   512  1.199072243E+01 -7.459136106E+00 -2.595129859E+00  1.435795371E+01  9.362863345E-07  0.00000E+00  9.000E+00
       2     1     1     2   514     0  7.934786402E+00  1.394836604E+01  2.311273647E+02  2.316840205E+02  3.300000131E-01  0.00000E+00  9.000E+00
      21     1     1     2   512   513 -1.992550883E+01 -6.489229938E+00 -4.838300400E+02  4.842836396E+02  5.394796609E-06  0.00000E+00  9.000E+00
</event>
<event>
      5  10001  2.40292E+09  6.01727E+00 -1.00000E+00  2.25200E-01
      21    -1     0     0   515   514  0.000000000E+00  0.000000000E+00  1.925602664E+02  1.925602664E+02  0.000000000E+00  0.00000E+00  9.000E+00
       1    -1     0     0   516     0  0.000000000E+00  0.000000000E+00 -1.114714191E+03  1.114714191E+03  0.000000000E+00  0.00000E+00  9.000E+00
      21     1     1     2   513   514 -6.453363049E+00  1.288942864E+01  1.456163535E+02  1.463280755E+02  0.000000000E+00  0.00000E+00  9.000E+00
      21     1     1     2   516   513  6.461346779E+00 -6.872162573E+00  4.610235804E+01  4.705744401E+01  1.168007728E-06  0.00000E+00  9.000E+00
       1     1     1     2   515     0 -7.983730614E-03 -6.017266068E+00 -1.113872636E+03  1.113888938E+03  3.300000131E-01  0.00000E+00  9.000E+00
</event>
<event>
      5  10001  2.40292E+09  4.95315E+00 -1.00000E+00  2.43266E-01
      21    -1     0     0   511   514  0.000000000E+00  0.000000000E+00  1.794956080E+01  1.794956080E+01  0.000000000E+00  0.00000E+00  9.000E+00
      21    -1     0     0   512   511  0.000000000E+00  0.000000000E+00 -2.418341449E+01  2.418341449E+01  0.000000000E+00  0.00000E+00  9.000E+00
      21     1     1     2   512   517  5.082181831E+00 -8.673924348E+00 -2.104884114E+01  2.332636382E+01  0.000000000E+00  0.00000E+00  9.000E+00
      21     1     1     2   513   514 -5.573657942E+00  3.961703886E+00  8.390925068E+00  1.082443458E+01  2.064765462E-07  0.00000E+00  9.000E+00
      21     1     1     2   517   513  4.914761112E-01  4.712220463E+00  6.424062382E+00  7.982176893E+00  8.429369702E-08  0.00000E+00  9.000E+00
</event>
<event>
      5  10001  2.40292E+09  1.33491E+01 -1.00000E+00  1.82241E-01
      21    -1     0     0   515   513  0.000000000E+00  0.000000000E+00  7.304939233E+00  7.304939233E+00  0.000000000E+00  0.00000E+00  9.000E+00
      21    -1     0     0   512   516  0.000000000E+00  0.000000000E+00 -9.744057895E+01  9.744057895E+01  0.000000000E+00  0.00000E+00  9.000E+00
      21     1     1     2   515   516  8.921467208E+00  1.011658298E+00 -7.526557520E+01  7.579922717E+01  9.536743164E-07  0.00000E+00  9.000E+00
      -4     1     1     2     0   513 -4.141900678E+00 -6.878143535E+00  3.602961376E+00  8.927235316E+00  1.500000000E+00  0.00000E+00  9.000E+00
       4     1     1     2   512     0 -4.779566530E+00  5.866485236E+00 -1.847302589E+01  2.001905569E+01  1.500000000E+00  0.00000E+00  9.000E+00
</event>
<event>
      5  10001  2.40292E+09  5.17824E+00 -1.00000E+00  2.35802E-01
      -2    -1     0     0     0   511  0.000000000E+00  0.000000000E+00  7.600445230E+01  7.600445230E+01  0.000000000E+00  0.00000E+00  9.000E+00
      21    -1     0     0   513   515  0.000000000E+00  0.000000000E+00 -7.965813523E+00  7.965813523E+00  0.000000000E+00  0.00000E+00  9.000E+00
      -2     1     1     2     0   514 -9.991819331E+00 -5.502544880E+00  3.833098997E+01  3.999360131E+01  3.300000131E-01  0.00000E+00  9.000E+00
      21     1     1     2   513   511  5.386794443E+00  7.869820363E+00  3.517598091E+01  3.644586752E+01  4.768371582E-07  0.00000E+00  9.000E+00
      21     1     1     2   514   515  4.605024889E+00 -2.367275483E+00 -5.468332094E+00  7.530796992E+00  1.460009660E-07  0.00000E+00  9.000E+00
</event>
<event>
      5  10001  2.40292E+09  7.51426E+00 -1.00000E+00  2.11224E-01
      21    -1     0     0   512   513  0.000000000E+00  0.000000000E+00  5.707084019E-01  5.707084019E-01  0.000000000E+00  0.00000E+00  9.000E+00
      21    -1     0     0   516   512  0.000000000E+00  0.000000000E+00 -3.266550775E+02  3.266550775E+02  0.000000000E+00  0.00000E+00  9.000E+00
      21     1     1     2   516   515 -1.049847278E+01  2.093115638E+00 -2.050345697E+02  2.053138423E+02  3.814697266E-06  0.00000E+00  9.000E+00
      21     1     1     2   511   513  6.701475189E+00 -6.017891062E+00 -7.376236995E+01  7.431024157E+01  0.000000000E+00  0.00000E+00  9.000E+00
      21     1     1     2   515   511  3.796997593E+00  3.924775424E+00 -4.728742948E+01  4.760170206E+01  9.536743164E-07  0.00000E+00  9.000E+00
</event>
<event>
      5  10001  2.40292E+09  5.57954E+00 -1.00000E+00  2.30404E-01
      21    -1     0     0   514   511  0.000000000E+00  0.000000000E+00  8.074241417E+00  8.074241417E+00  0.000000000E+00  0.00000E+00  9.000E+00
      21    -1     0     0   512   514  0.000000000E+00  0.000000000E+00 -7.256361088E+01  7.256361088E+01  0.000000000E+00  0.00000E+00  9.000E+00
      21     1     1     2   517   516 -2.290342941E+00  1.466164256E+01 -4.322113448E+01  4.569765748E+01  4.768371582E-07  0.00000E+00  9.000E+00
      21     1     1     2   516   511  7.849507531E+00 -1.513809766E+01 -5.042766552E+00  1.778218951E+01  3.816559456E-07  0.00000E+00  9.000E+00
      21     1     1     2   512   517 -5.559164591E+00  4.764550990E-01 -1.622546843E+01  1.715800531E+01  3.371747881E-07  0.00000E+00  9.000E+00
</event>
<event>
      5  10001  2.40292E+09  1.94836E+01 -1.00000E+00  1.67270E-01
      21    -1     0     0   513   511  0.000000000E+00  0.000000000E+00  1.898440353E+01  1.898440353E+01  0.000000000E+00  0.00000E+00  9.000E+00
      21    -1     0     0   512   513  0.000000000E+00  0.000000000E+00 -4.032962785E+01  4.032962785E+01  0.000000000E+00  0.00000E+00  9.000E+00
      21     1     1     2   515   511  1.676908728E+01  1.327397189E+00  6.105513383E+00  1.789529450E+01  3.264680848E-07  0.00000E+00  9.000E+00
      21     1     1     2   512   514 -1.992540227E+01 -7.732702436E+00 -1.227602075E+01  2.464786052E+01  2.920019320E-07  0.00000E+00  9.000E+00
      21     1     1     2   514   515  3.156314995E+00  6.405305247E+00 -1.517471695E+01  1.677087637E+01  2.920019320E-07  0.00000E+00  9.000E+00
</event>
<event>
      5  10001  2.40292E+09  4.52805E+00 -1.00000E+00  2.51297E-01
      21    -1     0     0   516   512  0.000000000E+00  0.000000000E+00  2.077255664E+02  2.077255664E+02  0.000000000E+00  0.00000E+00  9.000E+00
      21    -1     0     0   511   515  0.000000000E+00  0.000000000E+00 -1.259956655E+00  1.259956655E+00  0.000000000E+00  0.00000E+00  9.000E+00
      21     1     1     2   516   515  4.240243579E+00  1.412222712E+01  1.373630912E+02  1.381522197E+02  0.000000000E+00  0.00000E+00  9.000E+00
      21     1     1     2   511   513 -2.735497818E+00 -8.601359483E+00  5.255231593E+01  5.332178019E+01  6.743495762E-07  0.00000E+00  9.000E+00
      21     1     1     2   513   512 -1.504745761E+00 -5.520867640E+00  1.655020258E+01  1.751152320E+01  2.384185791E-07  0.00000E+00  9.000E+00
</event>
<event>
      5  10001  2.40292E+09  1.50373E+01 -1.00000E+00  1.77235E-01
      21    -1     0     0   514   511  0.000000000E+00  0.000000000E+00  9.288062426E+02  9.288062426E+02  0.000000000E+00  0.00000E+00  9.000E+00
      21    -1     0     0   517   512  0.000000000E+00  0.000000000E+00 -7.807406936E+00  7.807406936E+00  0.000000000E+00  0.00000E+00  9.000E+00
      21     1     1     2   514   512 -1.792052680E+01 -1.696599591E+01  8.991221577E+02  8.994607523E+02  0.000000000E+00  0.00000E+00  9.000E+00
       1     1     1     2   517     0  2.165442632E+00  1.216588217E+01  4.362284341E+00  1.310863286E+01  3.300000131E-01  0.00000E+00  9.000E+00
      -1     1     1     2     0   511  1.575508417E+01  4.800113745E+00  1.751439356E+01  2.404426440E+01  3.300000131E-01  0.00000E+00  9.000E+00
</event>
<event>
      5  10001  2.40292E+09  7.88571E+00 -1.00000E+00  2.08424E-01
      21    -1     0     0   513   512  0.000000000E+00  0.000000000E+00  3.177353526E+01  3.177353526E+01  0.000000000E+00  0.00000E+00  9.000E+00
      21    -1     0     0   515   511  0.000000000E+00  0.000000000E+00 -9.720776850E+00  9.720776850E+00  0.000000000E+00  0.00000E+00  9.000E+00
      21     1     1     2   513   511 -1.219252450E+01  3.682441893E+00  2.336036126E+01  2.660685081E+01  0.000000000E+00  0.00000E+00  9.000E+00
      21     1     1     2   515   514  4.743240704E+00 -5.396886789E+00 -5.532737460E-01  7.206304963E+00  1.958525096E-07  0.00000E+00  9.000E+00
      21     1     1     2   514   512  7.449283793E+00  1.714444896E+00 -7.543290992E-01  7.681156340E+00  1.825012075E-07  0.00000E+00  9.000E+00
</event>
<event>
      5  10001  2.40292E+09  8.10831E+00 -1.00000E+00  2.06844E-01
      21    -1     0     0   516   511  0.000000000E+00  0.000000000E+00  4.594580213E+00  4.594580213E+00  0.000000000E+00  0.00000E+00  9.000E+00
      21    -1     0     0   517   512  0.000000000E+00  0.000000000E+00 -2.858465540E+02  2.858465540E+02  0.000000000E+00  0.00000E+00  9.000E+00
      21     1     1     2   516   512  7.277841955E+00  1.350217446E+01 -2.584939503E+02  2.589486397E+02  0.000000000E+00  0.00000E+00  9.000E+00
      21     1     1     2   513   511 -1.177947377E+01 -9.267321109E+00 -1.249970930E+01  1.951619777E+01  6.529361695E-07  0.00000E+00  9.000E+00
      21     1     1     2   517   513  4.501631813E+00 -4.234853355E+00 -1.025831417E+01  1.197629665E+01  2.384185791E-07  0.00000E+00  9.000E+00
</event>
<event>
      5  10001  2.40292E+09  8.59166E+00 -1.00000E+00  2.03636E-01
      21    -1     0     0   514   511  0.000000000E+00  0.000000000E+00  2.835965342E+01  2.835965342E+01  0.000000000E+00  0.00000E+00  9.000E+00
      21    -1     0     0   515   512  0.000000000E+00  0.000000000E+00 -3.260027559E+01  3.260027559E+01  0.000000000E+00  0.00000E+00  9.000E+00
      21     1     1     2   513   511  9.521016226E+00  1.151629125E+01  2.302088893E+01  2.744514604E+01  5.840038640E-07  0.00000E+00  9.000E+00
      21     1     1     2   515   513 -9.576203741E-01 -1.081991011E+01 -1.629407329E+01  1.958275558E+01  0.000000000E+00  0.00000E+00  9.000E+00
      21     1     1     2   514   512 -8.563395852E+00 -6.963811368E-01 -1.096743781E+01  1.393202740E+01  2.064765462E-07  0.00000E+00  9.000E+00
</event>
<event>
      5  10001  2.40292E+09  4.67961E+00 -1.00000E+00  2.48286E-01
       2    -1     0     0   516     0  0.000000000E+00  0.000000000E+00  8.042862057E+02  8.042862057E+02  0.000000000E+00  0.00000E+00  9.000E+00
      21    -1     0     0   511   517  0.000000000E+00  0.000000000E+00 -3.216650916E+01  3.216650916E+01  0.000000000E+00  0.00000E+00  9.000E+00
      21     1     1     2   516   517  2.987971380E+00  1.030134262E+01  9.261798103E+00  1.417132798E+01  3.371747881E-07  0.00000E+00  9.000E+00
      21     1     1     2   511   512 -3.456083475E+00 -1.495747771E+01 -2.772134480E+01  3.168822510E+01  4.768371582E-07  0.00000E+00  9.000E+00
       2     1     1     2   512     0  4.681120942E-01  4.656135096E+00  7.905792433E+02  7.905931618E+02  3.300000131E-01  0.00000E+00  9.000E+00
</event>
<event>
      5  10001  2.40292E+09  7.67014E+00 -1.00000E+00  2.10023E-01
      21    -1     0     0   513   511  0.000000000E+00  0.000000000E+00  1.678651408E+02  1.678651408E+02  0.000000000E+00  0.00000E+00  9.000E+00
      21    -1     0     0   515   514  0.000000000E+00  0.000000000E+00 -1.627314558E+01  1.627314558E+01  0.000000000E+00  0.00000E+00  9.000E+00
      21     1     1     2   513   514 -6.774229922E+00 -7.448969730E+00  1.579043815E+02  1.582250645E+02  2.697398305E-06  0.00000E+00  9.000E+00
      21     1     1     2   516   511  9.921337251E+00  2.996348962E+00 -1.341939212E+01  1.695556324E+01  3.769728732E-07  0.00000E+00  9.000E+00
      21     1     1     2   515   516 -3.147107329E+00  4.452620768E+00  7.107005835E+00  8.957658633E+00  1.884864366E-07  0.00000E+00  9.000E+00
</event>
<event>
      5  10001  2.40292E+09  7.95676E+00 -1.00000E+00  2.07913E-01
      21    -1     0     0   512   514  0.000000000E+00  0.000000000E+00  4.297543990E+00  4.297543990E+00  0.000000000E+00  0.00000E+00  9.000E+00
      21    -1     0     0   515   517  0.000000000E+00  0.000000000E+00 -5.606671778E+01  5.606671778E+01  0.000000000E+00  0.00000E+00  9.000E+00
      21     1     1     2   512   517  1.200396104E+00 -1.260381853E+01 -3.838305168E+01  4.041727166E+01  4.768371582E-07  0.00000E+00  9.000E+00
      21     1     1     2   515   511  2.596596316E+00  5.151065505E+00 -2.679375349E+00  6.360411978E+00  1.837138534E-07  0.00000E+00  9.000E+00
      21     1     1     2   511   514 -3.796992419E+00  7.452753024E+00 -1.070674676E+01  1.358657813E+01  2.064765462E-07  0.00000E+00  9.000E+00
</event>
<event>
      5  10001  2.40292E+09  1.38410E+01 -1.00000E+00  1.80689E-01
      21    -1     0     0   513   515  0.000000000E+00  0.000000000E+00  7.082312946E+01  7.082312946E+01  0.000000000E+00  0.00000E+00  9.000E+00
      21    -1     0     0   512   514  0.000000000E+00  0.000000000E+00 -6.856734926E+01  6.856734926E+01  0.000000000E+00  0.00000E+00  9.000E+00
      21     1     1     2   513   514 -2.424951714E+01 -2.487719764E+00  6.322341093E+01  6.776007321E+01  1.168007728E-06  0.00000E+00  9.000E+00
      21     1     1     2   516   515  1.797785195E+01 -9.850812496E+00 -4.977172278E+01  5.382811585E+01  1.348699152E-06  0.00000E+00  9.000E+00
      21     1     1     2   512   516  6.271665192E+00  1.233853226E+01 -1.119590795E+01  1.780228967E+01  2.665600750E-07  0.00000E+00  9.000E+00
</event>
<event>
      5  10001  2.40292E+09  6.82546E+00 -1.00000E+00  2.17043E-01
      21    -1     0     0   512   515  0.000000000E+00  0.000000000E+00  1.840458215E+02  1.840458215E+02  0.000000000E+00  0.00000E+00  9.000E+00
       1    -1     0     0   515     0  0.000000000E+00  0.000000000E+00 -2.263999974E+00  2.263999974E+00  0.000000000E+00  0.00000E+00  9.000E+00
      21     1     1     2   513   511  3.894277013E+00  2.008869585E+00  1.542146589E+02  1.542769003E+02  1.907348633E-06  0.00000E+00  9.000E+00
       1     1     1     2   511     0 -8.816818529E+00 -2.390312688E+00  9.028495415E+00  1.284805484E+01  3.300000131E-01  0.00000E+00  9.000E+00
      21     1     1     2   512   513  4.922541515E+00  3.814431026E-01  1.853866724E+01  1.918486635E+01  4.129530925E-07  0.00000E+00  9.000E+00
</event>
<event>
      5  10001  2.40292E+09  4.47729E+00 -1.00000E+00  2.52345E-01
      21    -1     0     0   516   511  0.000000000E+00  0.000000000E+00  9.048571399E+01  9.048571399E+01  0.000000000E+00  0.00000E+00  9.000E+00
      21    -1     0     0   515   513  0.000000000E+00  0.000000000E+00 -9.946459753E+00  9.946459753E+00  0.000000000E+00  0.00000E+00  9.000E+00
      21     1     1     2   514   513 -3.293057602E+00  1.336136608E+01  1.484865173E+01  2.024482132E+01  3.769728732E-07  0.00000E+00  9.000E+00
      21     1     1     2   515   511  7.699351519E+00 -1.415551087E+01  1.883803797E+00  1.622366231E+01  4.405303448E-07  0.00000E+00  9.000E+00
      21     1     1     2   516   514 -4.406293917E+00  7.941447937E-01  6.380679871E+01  6.396369012E+01  1.168007728E-06  0.00000E+00  9.000E+00
</event>
<event>
      5  10001  2.40292E+09  1.91164E+01 -1.00000E+00  1.67962E-01
       2    -1     0     0   513     0  0.000000000E+00  0.000000000E+00  6.486997475E+02  6.486997475E+02  0.000000000E+00  0.00000E+00  9.000E+00
      21    -1     0     0   516   513  0.000000000E+00  0.000000000E+00 -3.615654601E-01  3.615654601E-01  0.000000000E+00  0.00000E+00  9.000E+00
      21     1     1     2   516   512  5.666224943E+00 -4.989904618E+00  6.044058769E+01  6.091034307E+01  1.784161275E-06  0.00000E+00  9.000E+00
      21     1     1     2   512   511  2.200536617E+00  7.314724565E+00  1.685227247E+02  1.686957507E+02  1.907348633E-06  0.00000E+00  9.000E+00
       2     1     1     2   511     0 -7.866761559E+00 -2.324819946E+00  4.193748697E+02  4.194552192E+02  3.300000131E-01  0.00000E+00  9.000E+00
</event>
<event>
      5  10001 -2.40292E+09  7.77408E+00 -1.00000E+00  2.09243E-01
       2    -1     0     0   512     0  0.000000000E+00  0.000000000E+00  2.976837902E+02  2.976837902E+02  0.000000000E+00  0.00000E+00  9.000E+00
       2    -1     0     0   511     0  0.000000000E+00  0.000000000E+00 -1.418470395E+02  1.418470395E+02  0.000000000E+00  0.00000E+00  9.000E+00
      21     1     1     2   512   513  1.078868952E+01 -9.670299742E+00 -3.620981898E+01  3.900078857E+01  1.907348633E-06  0.00000E+00  9.000E+00
       2     1     1     2   511     0 -4.327947232E+00  5.346525725E+00  2.961030101E+02  2.961830818E+02  3.300000131E-01  0.00000E+00  9.000E+00
       2     1     1     2   513     0 -6.460742285E+00  4.323774017E+00 -1.040564405E+02  1.043469593E+02  3.300000131E-01  0.00000E+00  9.000E+00
</event>
<event>
      5  10001  2.40292E+09  6.68205E+00 -1.00000E+00  2.18374E-01
       1    -1     0     0   514     0  0.000000000E+00  0.000000000E+00  5.101229358E+02  5.101229358E+02  0.000000000E+00  0.00000E+00  9.000E+00
      21    -1     0     0   515   514  0.000000000E+00  0.000000000E+00 -8.484424890E-01  8.484424890E-01  0.000000000E+00  0.00000E+00  9.000E+00
      21     1     1     2   511   516 -1.222103140E+01 -6.805383413E+00  1.410072803E+02  1.416994000E+02  1.907348633E-06  0.00000E+00  9.000E+00
      21     1     1     2   515   511  1.173373972E+01  1.418039015E-01  7.366177239E+01  7.459059906E+01  1.907348633E-06  0.00000E+00  9.000E+00
       1     1     1     2   516     0  4.872916848E-01  6.663579511E+00  2.946054407E+02  2.946813793E+02  3.300000131E-01  0.00000E+00  9.000E+00
</event>
<event>
      5  10001  2.40292E+09  1.24340E+01 -1.00000E+00  1.85368E-01
      21    -1     0     0   513   511  0.000000000E+00  0.000000000E+00  3.369461642E+00  3.369461642E+00  0.000000000E+00  0.00000E+00  9.000E+00
       3    -1     0     0   514     0  0.000000000E+00  0.000000000E+00 -1.607644133E+02  1.607644133E+02  0.000000000E+00  0.00000E+00  9.000E+00
      21     1     1     2   513   512  7.924824321E+00 -6.746266120E+00 -1.105875841E+01  1.518588439E+01  1.192092896E-07  0.00000E+00  9.000E+00
       3     1     1     2   512     0 -1.254481077E+01 -4.794932035E+00 -4.858529553E+01  5.040976684E+01  5.000000000E-01  0.00000E+00  9.000E+00
      21     1     1     2   514   511  4.619986444E+00  1.154119816E+01 -9.775089775E+01  9.853822375E+01  1.907348633E-06  0.00000E+00  9.000E+00
</event>
<event>
      5  10001  2.40292E+09  9.38817E+00 -1.00000E+00  1.98921E-01
      21    -1     0     0   514   511  0.000000000E+00  0.000000000E+00  3.180724045E-01  3.180724045E-01  0.000000000E+00  0.00000E+00  9.000E+00
       2    -1     0     0   512     0  0.000000000E+00  0.000000000E+00 -7.354622370E+02  7.354622370E+02  0.000000000E+00  0.00000E+00  9.000E+00
      21     1     1     2   512   513 -9.751544795E+00  1.848383400E+00 -1.097468132E+02  1.101947011E+02  1.348699152E-06  0.00000E+00  9.000E+00
       2     1     1     2   514     0  1.000949257E+01 -5.144776202E+00 -3.822659939E+02  3.824317686E+02  3.300000131E-01  0.00000E+00  9.000E+00
      21     1     1     2   513   511 -2.579477758E-01  3.296392802E+00 -2.431313576E+02  2.431538398E+02  2.697398305E-06  0.00000E+00  9.000E+00
</event>
<event>
      5  10001  2.40292E+09  2.40249E+00 -1.00000E+00  3.29407E-01
      -3    -1     0     0     0   511  0.000000000E+00  0.000000000E+00  3.989021597E+01  3.989021597E+01  0.000000000E+00  0.00000E+00  9.000E+00
      21    -1     0     0   515   514  0.000000000E+00  0.000000000E+00 -4.878315443E+01  4.878315443E+01  0.000000000E+00  0.00000E+00  9.000E+00
      -3     1     1     2     0   514 -1.035854013E+01  6.919039445E+00  3.798166533E+01  3.997535943E+01  5.000000000E-01  0.00000E+00  9.000E+00
      21     1     1     2   515   512  8.980407359E+00 -3.784696529E+00 -3.611559314E+01  3.740732164E+01  4.768371582E-07  0.00000E+00  9.000E+00
      21     1     1     2   512   511  1.378132771E+00 -3.134342916E+00 -1.075901064E+01  1.129068933E+01  2.064765462E-07  0.00000E+00  9.000E+00
</event>
<event>
      5  10001  2.40292E+09  9.36223E+00 -1.00000E+00  1.99064E-01
      21    -1     0     0   513   514  0.000000000E+00  0.000000000E+00  4.648444255E+01  4.648444255E+01  0.000000000E+00  0.00000E+00  9.000E+00
      21    -1     0     0   516   511  0.000000000E+00  0.000000000E+00 -4.578061917E+00  4.578061917E+00  0.000000000E+00  0.00000E+00  9.000E+00
      21     1     1     2   513   511 -2.548609422E+00 -8.945148750E+00  2.610416045E+00  9.660505580E+00  1.490116119E-07  0.00000E+00  9.000E+00
      21     1     1     2   515   514  3.483344940E+00  6.844568345E+00  1.372274049E+01  1.572562922E+01  0.000000000E+00  0.00000E+00  9.000E+00
      21     1     1     2   516   515 -9.347355185E-01  2.100580405E+00  2.557322410E+01  2.567636967E+01  5.840038640E-07  0.00000E+00  9.000E+00
</event>
<event>
      5  10001  2.40292E+09  3.32779E+01 -1.00000E+00  1.49943E-01
       4    -1     0     0   511     0  0.000000000E+00  0.000000000E+00  7.979372808E+02  7.979372808E+02  0.000000000E+00  0.00000E+00  9.000E+00
      21    -1     0     0   512   515  0.000000000E+00  0.000000000E+00 -1.334217405E+00  1.334217405E+00  0.000000000E+00  0.00000E+00  9.000E+00
      21     1     1     2   511   515  1.582895850E+01 -1.630642543E+01  5.366630010E+02  5.371439584E+02  0.000000000E+00  0.00000E+00  9.000E+00
       4     1     1     2   513     0  8.498776966E-01  1.336131609E+01  1.748500543E+02  1.753682940E+02  1.500000000E+00  0.00000E+00  9.000E+00
      21     1     1     2   512   513 -1.667883620E+01  2.945109337E+00  8.509000816E+01  8.675924582E+01  9.536743164E-07  0.00000E+00  9.000E+00
</event>
<event>
      5  10001  2.40292E+09  6.23060E+00 -1.00000E+00  2.22881E-01
      21    -1     0     0   512   513  0.000000000E+00  0.000000000E+00  6.860341751E+01  6.860341751E+01  0.000000000E+00  0.00000E+00  9.000E+00
      -2    -1     0     0     0   514  0.000000000E+00  0.000000000E+00 -3.144134543E+00  3.144134543E+00  0.000000000E+00  0.00000E+00  9.000E+00
      -2     1     1     2     0   513 -8.432338877E+00  8.491418744E+00  1.900619328E+01  2.246225310E+01  3.300000131E-01  0.00000E+00  9.000E+00
      21     1     1     2   511   514  5.503544504E+00 -1.110224373E+01  3.792230745E+01  3.989549123E+01  8.259061849E-07  0.00000E+00  9.000E+00
      21     1     1     2   512   511  2.928794372E+00  2.610824987E+00  8.530782235E+00  9.389807726E+00  1.685873940E-07  0.00000E+00  9.000E+00
</event>
<event>
      5  10001  2.40292E+09  7.89609E+00 -1.00000E+00  2.08349E-01
      21    -1     0     0   514   511  0.000000000E+00  0.000000000E+00  1.348670244E+01  1.348670244E+01  0.000000000E+00  0.00000E+00  9.000E+00
      21    -1     0     0   513   516  0.000000000E+00  0.000000000E+00 -2.350813462E+01  2.350813462E+01  0.000000000E+00  0.00000E+00  9.000E+00
      21     1     1     2   515   516  1.122801996E+01 -1.450117852E+00  6.172869855E-01  1.133809143E+01  4.530786215E-07  0.00000E+00  9.000E+00
      21     1     1     2   513   511 -8.786143110E+00  8.959141999E+00 -1.231811401E+01  1.758404018E+01  2.920019320E-07  0.00000E+00  9.000E+00
      21     1     1     2   514   515 -2.441876854E+00 -7.509024147E+00  1.679394847E+00  8.072705449E+00  1.504943511E-07  0.00000E+00  9.000E+00
</event>
<event>
      5  10001  2.40292E+09  8.43588E+00 -1.00000E+00  2.04639E-01
       4    -1     0     0   513     0  0.000000000E+00  0.000000000E+00  7.943309706E+01  7.943309706E+01  0.000000000E+00  0.00000E+00  9.000E+00
      21    -1     0     0   512   514  0.000000000E+00  0.000000000E+00 -2.695992643E+02  2.695992643E+02  0.000000000E+00  0.00000E+00  9.000E+00
      21     1     1     2   511   514  4.860276358E-01 -3.495678605E+01 -2.439878328E+02  2.464797672E+02  3.814697266E-06  0.00000E+00  9.000E+00
       4     1     1     2   512     0 -6.982823568E+00  4.179389711E+01  7.114902157E+01  8.282465171E+01  1.500000000E+00  0.00000E+00  9.000E+00
      21     1     1     2   513   511  6.496795932E+00 -6.837111059E+00 -1.732735606E+01  1.972794244E+01  2.384185791E-07  0.00000E+00  9.000E+00
</event>
<event>
      5  10001  2.40292E+09  3.95799E+00 -1.00000E+00  2.64446E-01
      21    -1     0     0   512   511  0.000000000E+00  0.000000000E+00  8.008159414E+00  8.008159414E+00  0.000000000E+00  0.00000E+00  9.000E+00
      21    -1     0     0   513   515  0.000000000E+00  0.000000000E+00 -1.374284114E+02  1.374284114E+02  0.000000000E+00  0.00000E+00  9.000E+00
      -3     1     1     2     0   515  1.445881704E+01 -4.392694239E+00 -4.640614547E+01  4.880710492E+01  5.000000000E-01  0.00000E+00  9.000E+00
      21     1     1     2   513   511 -1.088619226E+01  6.094523160E+00 -8.876126180E+01  8.963377706E+01  9.536743164E-07  0.00000E+00  9.000E+00
       3     1     1     2   512     0 -3.572624777E+00 -1.701828921E+00  5.747155243E+00  6.995688876E+00  5.000000000E-01  0.00000E+00  9.000E+00
</event>
<event>
      5  10001  2.40292E+09  1.83227E+01 -1.00000E+00  1.69527E-01
      21    -1     0     0   514   513  0.000000000E+00  0.000000000E+00  5.067931587E-01  5.067931587E-01  0.000000000E+00  0.00000E+00  9.000E+00
      21    -1     0     0   517   516  0.000000000E+00  0.000000000E+00 -2.393742447E+02  2.393742447E+02  0.000000000E+00  0.00000E+00  9.000E+00
      21     1     1     2   514   516 -1.395049169E+00  3.221357324E+00 -2.809795474E+01  2.831639747E+01  5.840038640E-07  0.00000E+00  9.000E+00
      21     1     1     2   517   511 -9.134102970E-01 -4.167457520E+00 -1.128501891E+01  1.206456267E+01  6.078504936E-07  0.00000E+00  9.000E+00
      21     1     1     2   511   513  2.308459466E+00  9.461001960E-01 -1.994844779E+02  1.995000778E+02  2.697398305E-06  0.00000E+00  9.000E+00
</event>
<event>
      5  10001  2.40292E+09  4.78552E+00 -1.00000E+00  2.46283E-01
      21    -1     0     0   512   516  0.000000000E+00  0.000000000E+00  8.439498025E+00  8.439498025E+00  0.000000000E+00  0.00000E+00  9.000E+00
      21    -1     0     0   514   513  0.000000000E+00  0.000000000E+00 -3.132134868E+02  3.132134868E+02  0.000000000E+00  0.00000E+00  9.000E+00
      21     1     1     2   512   513  6.124781352E-01 -1.265496703E+01 -1.446134802E+02  1.451674274E+02  2.697398305E-06  0.00000E+00  9.000E+00
      21     1     1     2   515   516 -1.181589979E+00  1.740653088E+01 -1.237401681E+00  1.749041552E+01  3.491453682E-07  0.00000E+00  9.000E+00
      21     1     1     2   514   515  5.691118437E-01 -4.751563849E+00 -1.589231069E+02  1.589951419E+02  2.697398305E-06  0.00000E+00  9.000E+00
</event>
<event>
      5  10001  2.40292E+09  3.91014E+00 -1.00000E+00  2.65707E-01
      21    -1     0     0   511   513  0.000000000E+00  0.000000000E+00  9.613279593E-01  9.613279593E-01  0.000000000E+00  0.00000E+00  9.000E+00
      21    -1     0     0   514   511  0.000000000E+00  0.000000000E+00 -8.326541665E+02  8.326541665E+02  0.000000000E+00  0.00000E+00  9.000E+00
      21     1     1     2   514   517  8.490499063E+00 -8.571588746E+00 -7.798716668E+02  7.799649847E+02  1.525878906E-05  0.00000E+00  9.000E+00
      21     1     1     2   517   512 -5.098281411E+00  9.125076433E+00 -3.878101999E+01  4.016499726E+01  1.348699152E-06  0.00000E+00  9.000E+00
      21     1     1     2   512   513 -3.392217652E+00 -5.534876875E-01 -1.304015169E+01  1.348551243E+01  2.384185791E-07  0.00000E+00  9.000E+00
</event>
<event>
      5  10001  2.40292E+09  2.55746E+01 -1.00000E+00  1.57978E-01
       2    -1     0     0   511     0  0.000000000E+00  0.000000000E+00  3.256114322E+01  3.256114322E+01  0.000000000E+00  0.00000E+00  9.000E+00
      -1    -1     0     0     0   511  0.000000000E+00  0.000000000E+00 -1.822986402E+01  1.822986402E+01  0.000000000E+00  0.00000E+00  9.000E+00
      -1     1     1     2     0   512 -1.267388266E+01 -1.137623114E-01  1.790322368E+01  2.193797077E+01  3.300000131E-01  0.00000E+00  9.000E+00
       2     1     1     2   514     0  6.998560799E+00 -1.275376894E+01 -1.333938837E+00  1.461255516E+01  3.300000131E-01  0.00000E+00  9.000E+00
      21     1     1     2   512   514  5.675321858E+00  1.286753125E+01 -2.238005638E+00  1.424048131E+01  1.659323085E-07  0.00000E+00  9.000E+00
</event>
<event>
      5  10001  2.40292E+09  3.00535E+01 -1.00000E+00  1.52951E-01
      21    -1     0     0   513   514  0.000000000E+00  0.000000000E+00  4.604256241E+01  4.604256241E+01  0.000000000E+00  0.00000E+00  9.000E+00
      21    -1     0     0   512   515  0.000000000E+00  0.000000000E+00 -7.904363698E+00  7.904363698E+00  0.000000000E+00  0.00000E+00  9.000E+00
      21     1     1     2   513   515  3.705136945E+00 -1.025669988E+01  2.999781346E+01  3.191859560E+01  3.371747881E-07  0.00000E+00  9.000E+00
      21     1     1     2   511   514 -4.269931904E+00  5.832199559E-01  1.109119949E+01  1.189904072E+01  2.665600750E-07  0.00000E+00  9.000E+00
      21     1     1     2   512   511  5.647949592E-01  9.673479920E+00 -2.950814237E+00  1.012928980E+01  4.842304232E-07  0.00000E+00  9.000E+00
</event>
<event>
      5  10001  2.40292E+09  2.92386E+00 -1.00000E+00  3.00155E-01
      21    -1     0     0   512   511  0.000000000E+00  0.000000000E+00  1.822187837E+02  1.822187837E+02  0.000000000E+00  0.00000E+00  9.000E+00
       5    -1     0     0   514     0  0.000000000E+00  0.000000000E+00 -7.424789772E-01  7.424789772E-01  0.000000000E+00  0.00000E+00  9.000E+00
      21     1     1     2   513   511  7.177927226E+00 -4.581949436E+00  8.671777066E+01  8.713488767E+01  0.000000000E+00  0.00000E+00  9.000E+00
       5     1     1     2   512     0 -7.134268202E+00  7.420354488E+00  7.175109439E+01  7.264446979E+01  4.800000191E+00  0.00000E+00  9.000E+00
      21     1     1     2   514   513 -4.365902416E-02 -2.838405052E+00  2.300743965E+01  2.318190520E+01  4.768371582E-07  0.00000E+00  9.000E+00
</event>
<event>
      5  10001  2.40292E+09  3.56034E+00 -1.00000E+00  2.75865E-01
      21    -1     0     0   512   515  0.000000000E+00  0.000000000E+00  3.172620985E+02  3.172620985E+02  0.000000000E+00  0.00000E+00  9.000E+00
       2    -1     0     0   511     0  0.000000000E+00  0.000000000E+00 -4.613221215E+02  4.613221215E+02  0.000000000E+00  0.00000E+00  9.000E+00
      21     1     1     2   511   515  1.360460667E+01 -1.460944142E+01 -1.409125791E+02  1.423196263E+02  2.697398305E-06  0.00000E+00  9.000E+00
       2     1     1     2   514     0 -1.716271057E+01  1.473564811E+01 -3.192957660E+02  3.200962246E+02  3.300000131E-01  0.00000E+00  9.000E+00
      21     1     1     2   512   514  3.558103895E+00 -1.262066926E-01  3.161483220E+02  3.161683690E+02  0.000000000E+00  0.00000E+00  9.000E+00
</event>
<event>
      5  10001  2.40292E+09  5.51885E+00 -1.00000E+00  2.31179E-01
      21    -1     0     0   513   515  0.000000000E+00  0.000000000E+00  8.811618621E+00  8.811618621E+00  0.000000000E+00  0.00000E+00  9.000E+00
      21    -1     0     0   516   513  0.000000000E+00  0.000000000E+00 -3.037462340E+01  3.037462340E+01  0.000000000E+00  0.00000E+00  9.000E+00
      21     1     1     2   516   511  5.617269802E+00 -1.165161023E+01 -1.559045311E+01  2.025773850E+01  4.129530925E-07  0.00000E+00  9.000E+00
      21     1     1     2   511   514 -9.567754675E+00  7.797869203E+00 -3.193267470E+00  1.274933923E+01  1.884864366E-07  0.00000E+00  9.000E+00
      21     1     1     2   514   515  3.950484874E+00  3.853741029E+00 -2.779284196E+00  6.179164288E+00  4.214684851E-08  0.00000E+00  9.000E+00
</event>
<event>
      5  10001  2.40292E+09  1.05264E+01 -1.00000E+00  1.93160E-01
      21    -1     0     0   512   514  0.000000000E+00  0.000000000E+00  2.580368361E-01  2.580368361E-01  0.000000000E+00  0.00000E+00  9.000E+00
       2    -1     0     0   511     0  0.000000000E+00  0.000000000E+00 -8.406682449E+02  8.406682449E+02  0.000000000E+00  0.00000E+00  9.000E+00
      21     1     1     2   513   514 -2.214039471E+00 -6.890511422E+00 -1.886809446E+02  1.888197023E+02  2.697398305E-06  0.00000E+00  9.000E+00
       2     1     1     2   512     0 -4.877158104E+00  1.192382103E+01 -4.595810972E+02  4.597617404E+02  3.300000131E-01  0.00000E+00  9.000E+00
      21     1     1     2   511   513  7.091197575E+00 -5.033309611E+00 -1.921481663E+02  1.923448390E+02  3.814697266E-06  0.00000E+00  9.000E+00
</event>
<event>
      5  10001  2.40292E+09  8.29970E+00 -1.00000E+00  2.05539E-01
      21    -1     0     0   515   513  0.000000000E+00  0.000000000E+00  3.147443565E+01  3.147443565E+01  0.000000000E+00  0.00000E+00  9.000E+00
      21    -1     0     0   511   515  0.000000000E+00  0.000000000E+00 -3.347541307E+01  3.347541307E+01  0.000000000E+00  0.00000E+00  9.000E+00
      21     1     1     2   516   513 -1.074010154E+01  2.594790989E+00  2.554440049E+01  2.783162082E+01  3.371747881E-07  0.00000E+00  9.000E+00
      21     1     1     2   512   516  1.371869873E+01 -5.272787457E+00 -2.927355493E+01  3.275585445E+01  0.000000000E+00  0.00000E+00  9.000E+00
      21     1     1     2   511   512 -2.978597189E+00  2.677996468E+00  1.728177016E+00  4.362373447E+00  8.940696716E-08  0.00000E+00  9.000E+00
</event>
<event>
      5  10001  2.40292E+09  5.06081E+00 -1.00000E+00  2.37515E-01
      21    -1     0     0   514   512  0.000000000E+00  0.000000000E+00  2.613222717E+01  2.613222717E+01  0.000000000E+00  0.00000E+00  9.000E+00
      21    -1     0     0   511   517  0.000000000E+00  0.000000000E+00 -1.163490895E+02  1.163490895E+02  0.000000000E+00  0.00000E+00  9.000E+00
      21     1     1     2   514   517 -1.060724307E+01  5.902229311E-01 -1.148776513E+02  1.153678324E+02  1.348699152E-06  0.00000E+00  9.000E+00
      21     1     1     2   513   512  2.511029306E+00  1.055170046E+00  9.054255756E+00  9.455062099E+00  4.616955931E-07  0.00000E+00  9.000E+00
      21     1     1     2   511   513  8.096213769E+00 -1.645392977E+00  1.560653324E+01  1.765842222E+01  1.379947293E-06  0.00000E+00  9.000E+00
</event>
<event>
      5  10001  2.40292E+09  5.10269E+00 -1.00000E+00  2.36897E-01
      21    -1     0     0   511   512  0.000000000E+00  0.000000000E+00  1.671931170E+01  1.671931170E+01  0.000000000E+00  0.00000E+00  9.000E+00
       1    -1     0     0   513     0  0.000000000E+00  0.000000000E+00 -9.555819703E+00  9.555819703E+00  0.000000000E+00  0.00000E+00  9.000E+00
      21     1     1     2   514   512 -2.590740026E+00 -3.852026474E+00  3.275851525E+00  5.681658653E+00  1.192092896E-07  0.00000E+00  9.000E+00
       1     1     1     2   511     0  9.872642679E+00  7.118937075E+00  1.532945814E+00  1.227221094E+01  3.300000131E-01  0.00000E+00  9.000E+00
      21     1     1     2   513   514 -7.281902653E+00 -3.266910601E+00  2.354694658E+00  8.321261807E+00  1.788139343E-07  0.00000E+00  9.000E+00
</event>
<event>
      5  10001  2.40292E+09  2.91939E+01 -1.00000E+00  1.53831E-01
      21    -1     0     0   515   512  0.000000000E+00  0.000000000E+00  1.261998578E+01  1.261998578E+01  0.000000000E+00  0.00000E+00  9.000E+00
      21    -1     0     0   513   515  0.000000000E+00  0.000000000E+00 -3.506805349E+01  3.506805349E+01  0.000000000E+00  0.00000E+00  9.000E+00
      21     1     1     2   513   514 -1.712067015E+00 -1.316046469E+01 -1.666517040E+01  2.130391768E+01  4.129530925E-07  0.00000E+00  9.000E+00
      21     1     1     2   511   512  4.494194568E+00  4.875011929E+00 -1.329672659E+01  1.485821201E+01  2.384185791E-07  0.00000E+00  9.000E+00
      21     1     1     2   514   511 -2.782127553E+00  8.285452758E+00  7.513829284E+00  1.152590958E+01  1.884864366E-07  0.00000E+00  9.000E+00
</event>
<event>
      5  10001  2.40292E+09  3.98824E+00 -1.00000E+00  2.63663E-01
      21    -1     0     0   516   512  0.000000000E+00  0.000000000E+00  5.762055309E+02  5.762055309E+02  0.000000000E+00  0.00000E+00  9.000E+00
      21    -1     0     0   517   516  0.000000000E+00  0.000000000E+00 -1.352884712E+02  1.352884712E+02  0.000000000E+00  0.00000E+00  9.000E+00
      21     1     1     2   511   512 -8.158394343E+00 -6.955862684E+00  5.758339565E+02  5.759337539E+02  1.321449896E-05  0.00000E+00  9.000E+00
      21     1     1     2   513   511  8.284814078E+00  2.946642162E+00 -1.063828511E+02  1.067456409E+02  3.814697266E-06  0.00000E+00  9.000E+00
      21     1     1     2   517   513 -1.264197353E-01  4.009220522E+00 -2.853404576E+01  2.881460738E+01  1.469710828E-06  0.00000E+00  9.000E+00
</event>
<event>
      5  10001  2.40292E+09  6.53244E+00 -1.00000E+00  2.19812E-01
      21    -1     0     0   514   511  0.000000000E+00  0.000000000E+00  3.066079935E+00  3.066079935E+00  0.000000000E+00  0.00000E+00  9.000E+00
      21    -1     0     0   515   514  0.000000000E+00  0.000000000E+00 -1.215732323E+02  1.215732323E+02  0.000000000E+00  0.00000E+00  9.000E+00
      21     1     1     2   513   511  1.003782275E+01  2.021819501E+00 -6.889667962E+00  1.234152196E+01  2.528810911E-07  0.00000E+00  9.000E+00
      21     1     1     2   512   513 -2.501522938E+00 -5.064456311E-01 -6.505323477E+01  6.510328300E+01  9.536743164E-07  0.00000E+00  9.000E+00
      21     1     1     2   515   512 -7.536299809E+00 -1.515373870E+00 -4.656424966E+01  4.719450730E+01  9.536743164E-07  0.00000E+00  9.000E+00
</event>
<event>
      5  10001  2.40292E+09  1.26936E+01 -1.00000E+00  1.84447E-01
      21    -1     0     0   515   512  0.000000000E+00  0.000000000E+00  2.878451335E+02  2.878451335E+02  0.000000000E+00  0.00000E+00  9.000E+00
       5    -1     0     0   511     0  0.000000000E+00  0.000000000E+00 -2.047511804E+00  2.047511804E+00  0.000000000E+00  0.00000E+00  9.000E+00
      21     1     1     2   511   512 -1.186112429E+01  4.158974056E+00  2.315045872E+02  2.318455461E+02  4.672030912E-06  0.00000E+00  9.000E+00
       5     1     1     2   513     0  5.691475913E+00 -9.708691899E+00  3.187587582E+01  3.414327251E+01  4.800000191E+00  0.00000E+00  9.000E+00
      21     1     1     2   515   513  6.169648374E+00  5.549717843E+00  2.241715862E+01  2.390382668E+01  0.000000000E+00  0.00000E+00  9.000E+00
</event>
<event>
      5  10001  2.40292E+09  3.10975E+00 -1.00000E+00  2.92077E-01
      21    -1     0     0   514   512  0.000000000E+00  0.000000000E+00  3.002326589E+00  3.002326589E+00  0.000000000E+00  0.00000E+00  9.000E+00
      21    -1     0     0   511   516  0.000000000E+00  0.000000000E+00 -1.274541605E+02  1.274541605E+02  0.000000000E+00  0.00000E+00  9.000E+00
      21     1     1     2   514   516  1.804998944E+01 -4.507019825E+00 -6.423047852E+01  6.687054447E+01  9.536743164E-07  0.00000E+00  9.000E+00
      21     1     1     2   511   517 -1.670013081E+01  6.079252469E+00 -4.788292653E+01  5.107471324E+01  1.168007728E-06  0.00000E+00  9.000E+00
      21     1     1     2   517   512 -1.349858633E+00 -1.572232645E+00 -1.233842890E+01  1.251122942E+01  0.000000000E+00  0.00000E+00  9.000E+00
</event>
<event>
      5  10001  2.40292E+09  3.58575E+00 -1.00000E+00  2.75065E-01
      21    -1     0     0   514   515  0.000000000E+00  0.000000000E+00  1.047398078E+01  1.047398078E+01  0.000000000E+00  0.00000E+00  9.000E+00
      21    -1     0     0   512   513  0.000000000E+00  0.000000000E+00 -1.015175029E+02  1.015175029E+02  0.000000000E+00  0.00000E+00  9.000E+00
      21     1     1     2   511   515  7.658943363E+00  9.953125900E+00 -2.406395314E+01  2.714402272E+01  0.000000000E+00  0.00000E+00  9.000E+00
      21     1     1     2   512   511 -8.475287249E+00 -6.461541637E+00 -7.516200476E+01  7.591382597E+01  9.536743164E-07  0.00000E+00  9.000E+00
      21     1     1     2   514   513  8.163438865E-01 -3.491584263E+00  8.182435806E+00  8.933634968E+00  0.000000000E+00  0.00000E+00  9.000E+00
</event>
<event>
      5  10001  2.40292E+09  8.10387E+00 -1.00000E+00  2.06875E-01
      -3    -1     0     0     0   512  0.000000000E+00  0.000000000E+00  1.752123538E+01  1.752123538E+01  0.000000000E+00  0.00000E+00  9.000E+00
      21    -1     0     0   516   513  0.000000000E+00  0.000000000E+00 -1.166572045E+02  1.166572045E+02  0.000000000E+00  0.00000E+00  9.000E+00
      -3     1     1     2     0   511 -8.285965347E-01 -1.931371422E+01  8.385143788E+00  2.107763662E+01  5.000000000E-01  0.00000E+00  9.000E+00
      21     1     1     2   511   513  1.461296716E-01  1.123891017E+01 -1.034007257E+02  1.040098290E+02  1.348699152E-06  0.00000E+00  9.000E+00
      21     1     1     2   516   512  6.824668631E-01  8.074804057E+00 -4.120387161E+00  9.090974201E+00  1.788139343E-07  0.00000E+00  9.000E+00
</event>
<event>
      5  10001  2.40292E+09  2.65106E+01 -1.00000E+00  1.56829E-01
      21    -1     0     0   513   512  0.000000000E+00  0.000000000E+00  5.541264550E+00  5.541264550E+00  0.000000000E+00  0.00000E+00  9.000E+00
      -4    -1     0     0     0   514  0.000000000E+00  0.000000000E+00 -1.224942904E+02  1.224942904E+02  0.000000000E+00  0.00000E+00  9.000E+00
      -4     1     1     2     0   512 -8.640694887E+00 -6.368277815E+00 -9.454958960E+01  9.516875256E+01  1.500000000E+00  0.00000E+00  9.000E+00
      21     1     1     2   513   511 -4.021291045E+00 -4.183132631E+00 -1.057400260E+00  5.898090842E+00  2.488984628E-07  0.00000E+00  9.000E+00
      21     1     1     2   511   514  1.266198593E+01  1.055141045E+01 -2.134603600E+01  2.696871156E+01  5.331201500E-07  0.00000E+00  9.000E+00
</event>
<event>
      5  10001  2.40292E+09  7.43240E+00 -1.00000E+00  2.11870E-01
      21    -1     0     0   515   514  0.000000000E+00  0.000000000E+00  3.830751233E+01  3.830751233E+01  0.000000000E+00  0.00000E+00  9.000E+00
      21    -1     0     0   513   516  0.000000000E+00  0.000000000E+00 -1.494548519E+01  1.494548519E+01  0.000000000E+00  0.00000E+00  9.000E+00
      21     1     1     2   515   516 -7.843806663E+00  3.778268886E+00 -1.890928477E+00  8.909333827E+00  2.555016905E-07  0.00000E+00  9.000E+00
      21     1     1     2   512   514  8.924256392E+00 -1.113171953E+01  3.153480400E+01  3.461215676E+01  4.768371582E-07  0.00000E+00  9.000E+00
      21     1     1     2   513   512 -1.080449728E+00  7.353450643E+00 -6.281848391E+00  9.731506933E+00  1.884864366E-07  0.00000E+00  9.000E+00
</event>
<event>
      5  10001  2.40292E+09  5.67013E+00 -1.00000E+00  2.29273E-01
      21    -1     0     0   511   514  0.000000000E+00  0.000000000E+00  1.054220865E+00  1.054220865E+00  0.000000000E+00  0.00000E+00  9.000E+00
      21    -1     0     0   513   511  0.000000000E+00  0.000000000E+00 -3.477539572E+02  3.477539572E+02  0.000000000E+00  0.00000E+00  9.000E+00
      21     1     1     2   512   514  7.893694848E+00 -7.659412643E+00 -3.168631237E+01  3.354101090E+01  5.840038640E-07  0.00000E+00  9.000E+00
      21     1     1     2   513   515 -2.320293516E+00  2.773223841E+00 -1.898760837E+02  1.899105097E+02  0.000000000E+00  0.00000E+00  9.000E+00
      21     1     1     2   515   512 -5.573401332E+00  4.886188802E+00 -1.251373403E+02  1.253566575E+02  1.348699152E-06  0.00000E+00  9.000E+00
</event>
<event>
      5  10001  2.40292E+09  2.31142E+01 -1.00000E+00  1.61306E-01
      21    -1     0     0   516   513  0.000000000E+00  0.000000000E+00  1.342489395E+01  1.342489395E+01  0.000000000E+00  0.00000E+00  9.000E+00
      21    -1     0     0   514   512  0.000000000E+00  0.000000000E+00 -1.064358783E+01  1.064358783E+01  0.000000000E+00  0.00000E+00  9.000E+00
      21     1     1     2   516   512 -2.199016443E-01 -1.101936803E+00  5.483657036E-01  1.250330515E+00  1.915538331E-07  0.00000E+00  9.000E+00
      21     1     1     2   511   513  1.119380598E+00  8.467510083E-02  1.245540639E+01  1.250589185E+01  0.000000000E+00  0.00000E+00  9.000E+00
      21     1     1     2   514   511 -8.994789535E-01  1.017261703E+00 -1.022246597E+01  1.031225941E+01  1.192092896E-07  0.00000E+00  9.000E+00
</event>
<event>
      5  10001  2.40292E+09  1.50461E+01 -1.00000E+00  1.77210E-01
      21    -1     0     0   515   511  0.000000000E+00  0.000000000E+00  2.364254122E+02  2.364254122E+02  0.000000000E+00  0.00000E+00  9.000E+00
      21    -1     0     0   514   517  0.000000000E+00  0.000000000E+00 -5.047617620E-01  5.047617620E-01  0.000000000E+00  0.00000E+00  9.000E+00
      21     1     1     2   515   517  2.305863538E+00  2.976236809E+00  2.965147601E+01  2.988954704E+01  0.000000000E+00  0.00000E+00  9.000E+00
      21     1     1     2   514   512 -6.529601142E+00 -2.458096677E+00  1.925562411E+02  1.926825989E+02  3.814697266E-06  0.00000E+00  9.000E+00
      21     1     1     2   512   511  4.223737604E+00 -5.181401325E-01  1.371293328E+01  1.435802799E+01  5.057621821E-07  0.00000E+00  9.000E+00
</event>
<event>
      5  10001  2.40292E+09  3.34776E+00 -1.00000E+00  2.82998E-01
      21    -1     0     0   512   511  0.000000000E+00  0.000000000E+00  4.991972068E+00  4.991972068E+00  0.000000000E+00  0.00000E+00  9.000E+00
      -4    -1     0     0     0   513  0.000000000E+00  0.000000000E+00 -2.623345370E+01  2.623345370E+01  0.000000000E+00  0.00000E+00  9.000E+00
      -4     1     1     2     0   514  8.601082459E+00  4.420843851E+00 -8.252815443E+00  1.280161875E+01  1.500000000E+00  0.00000E+00  9.000E+00
      21     1     1     2   512   513 -1.018620071E+01 -2.358260441E+00 -1.067558693E+01  1.494283218E+01  1.192092896E-07  0.00000E+00  9.000E+00
      21     1     1     2   514   511  1.585118250E+00 -2.062583410E+00 -2.313079258E+00  3.480974841E+00  4.214684851E-08  0.00000E+00  9.000E+00
</event>
<event>
      5  10001  2.40292E+09  4.20580E+00 -1.00000E+00  2.58336E-01
      21    -1     0     0   515   514  0.000000000E+00  0.000000000E+00  2.383047135E+01  2.383047135E+01  0.000000000E+00  0.00000E+00  9.000E+00
      21    -1     0     0   512   515  0.000000000E+00  0.000000000E+00 -1.663261327E+01  1.663261327E+01  0.000000000E+00  0.00000E+00  9.000E+00
      21     1     1     2   511   516  1.053073371E+01 -2.741060522E+00 -2.021327391E+00  1.106776986E+01  1.632340424E-07  0.00000E+00  9.000E+00
      21     1     1     2   516   514 -1.037848907E+01 -1.461981535E+00  1.733345101E+01  2.025583741E+01  0.000000000E+00  0.00000E+00  9.000E+00
      21     1     1     2   512   511 -1.522446449E-01  4.203042058E+00 -8.114265536E+00  9.139477346E+00  1.192092896E-07  0.00000E+00  9.000E+00
</event>
<event>
      5  10001  2.40292E+09  4.01427E+00 -1.00000E+00  2.62998E-01
       2    -1     0     0   511     0  0.000000000E+00  0.000000000E+00  8.893124504E+00  8.893124504E+00  0.000000000E+00  0.00000E+00  9.000E+00
      21    -1     0     0   516   514  0.000000000E+00  0.000000000E+00 -9.094909282E+01  9.094909282E+01  0.000000000E+00  0.00000E+00  9.000E+00
      21     1     1     2   516   513  1.673952044E+01  9.522830965E+00 -1.684420775E+01  2.558560511E+01  0.000000000E+00  0.00000E+00  9.000E+00
       2     1     1     2   513     0 -1.955263473E+01 -6.659377189E+00 -1.962641882E+01  2.849487753E+01  3.300000131E-01  0.00000E+00  9.000E+00
      21     1     1     2   511   514  2.813114297E+00 -2.863453777E+00 -4.558534175E+01  4.576173469E+01  6.743495762E-07  0.00000E+00  9.000E+00
</event>
<event>
      5  10001  2.40292E+09  9.29414E+00 -1.00000E+00  1.99445E-01
      21    -1     0     0   512   513  0.000000000E+00  0.000000000E+00  1.976551418E+02  1.976551418E+02  0.000000000E+00  0.00000E+00  9.000E+00
      -2    -1     0     0     0   515  0.000000000E+00  0.000000000E+00 -5.265985413E+02  5.265985413E+02  0.000000000E+00  0.00000E+00  9.000E+00
      21     1     1     2   512   515 -5.543245633E+00 -1.750332671E+01 -6.722296839E+00  1.955206621E+01  4.693274423E-07  0.00000E+00  9.000E+00
      21     1     1     2   516   513  7.166632800E+00  8.352059358E+00  1.910397663E+02  1.913564993E+02  0.000000000E+00  0.00000E+00  9.000E+00
      -2     1     1     2     0   516 -1.623387167E+00  9.151267355E+00 -5.132608690E+02  5.133451175E+02  3.300000131E-01  0.00000E+00  9.000E+00
</event>
<event>
      5  10001  2.40292E+09  1.47204E+01 -1.00000E+00  1.78109E-01
       2    -1     0     0   515     0  0.000000000E+00  0.000000000E+00  2.683217738E+02  2.683217738E+02  0.000000000E+00  0.00000E+00  9.000E+00
      21    -1     0     0   511   512  0.000000000E+00  0.000000000E+00 -4.088396865E+01  4.088396865E+01  0.000000000E+00  0.00000E+00  9.000E+00
      21     1     1     2   515   514 -8.383438611E+00 -2.950506571E+00  1.811316481E+01  2.017608166E+01  1.430511475E-06  0.00000E+00  9.000E+00
       2     1     1     2   511     0  2.308244499E+01  3.743167188E+00  2.472469689E+02  2.483505247E+02  3.300000131E-01  0.00000E+00  9.000E+00
      21     1     1     2   514   512 -1.469900638E+01 -7.926606171E-01 -3.792232864E+01  4.067913604E+01  1.348699152E-06  0.00000E+00  9.000E+00
</event>
<event>
      5  10001  2.40292E+09  2.05669E+01 -1.00000E+00  1.65333E-01
      21    -1     0     0   513   511  0.000000000E+00  0.000000000E+00  2.445175652E+01  2.445175652E+01  0.000000000E+00  0.00000E+00  9.000E+00
      21    -1     0     0   515   512  0.000000000E+00  0.000000000E+00 -3.210530920E+02  3.210530920E+02  0.000000000E+00  0.00000E+00  9.000E+00
      -2     1     1     2     0   511  1.413943810E+01  6.418310940E+00  1.311941751E+01  2.033092327E+01  3.300000131E-01  0.00000E+00  9.000E+00
      21     1     1     2   513   512 -8.806225349E+00 -2.628139546E+01 -3.018974187E+02  3.031671367E+02  5.394796609E-06  0.00000E+00  9.000E+00
       2     1     1     2   515     0 -5.333212751E+00  1.986308452E+01 -7.823334362E+00  2.200678862E+01  3.300000131E-01  0.00000E+00  9.000E+00
</event>
<event>
      5  10001  2.40292E+09  4.47466E+00 -1.00000E+00  2.52400E-01
      21    -1     0     0   511   515  0.000000000E+00  0.000000000E+00  3.019857973E+02  3.019857973E+02  0.000000000E+00  0.00000E+00  9.000E+00
      -1    -1     0     0     0   514  0.000000000E+00  0.000000000E+00 -1.368682467E+01  1.368682467E+01  0.000000000E+00  0.00000E+00  9.000E+00
      -1     1     1     2     0   512  7.926018714E+00  1.676721001E+01 -4.343094631E+00  1.905078673E+01  3.300000131E-01  0.00000E+00  9.000E+00
      21     1     1     2   512   515 -8.980044082E+00 -1.241849622E+01  2.781873861E+01  3.176070619E+01  5.840038640E-07  0.00000E+00  9.000E+00
      21     1     1     2   511   514  1.054025368E+00 -4.348713791E+00  2.648233287E+02  2.648611290E+02  3.814697266E-06  0.00000E+00  9.000E+00
</event>
<event>
      5  10001  2.40292E+09  1.65156E+01 -1.00000E+00  1.73489E-01
       2    -1     0     0   513     0  0.000000000E+00  0.000000000E+00  2.193498386E+02  2.193498386E+02  0.000000000E+00  0.00000E+00  9.000E+00
      21    -1     0     0   512   513  0.000000000E+00  0.000000000E+00 -1.321319547E+02  1.321319547E+02  0.000000000E+00  0.00000E+00  9.000E+00
      21     1     1     2   512   511 -3.277795772E+00  9.505012934E+00 -1.295548230E+02  1.299443780E+02  1.907348633E-06  0.00000E+00  9.000E+00
       2     1     1     2   515     0  1.166888430E+01  2.098268748E+00  1.957045726E+02  1.960636484E+02  3.300000131E-01  0.00000E+00  9.000E+00
      21     1     1     2   511   515 -8.391088526E+00 -1.160328168E+01  2.106813440E+01  2.547376689E+01  2.384185791E-07  0.00000E+00  9.000E+00
</event>
<event>
      5  10001  2.40292E+09  7.90266E+00 -1.00000E+00  2.08302E-01
      21    -1     0     0   514   512  0.000000000E+00  0.000000000E+00  5.152727471E+01  5.152727471E+01  0.000000000E+00  0.00000E+00  9.000E+00
      21    -1     0     0   511   516  0.000000000E+00  0.000000000E+00 -1.152240349E+01  1.152240349E+01  0.000000000E+00  0.00000E+00  9.000E+00
      21     1     1     2   514   516 -9.145893582E+00 -6.009323649E-01 -7.861136175E+00  1.207501350E+01  3.371747881E-07  0.00000E+00  9.000E+00
      21     1     1     2   511   513  9.879743013E+00 -4.679359183E+00  4.003942445E+01  4.150495434E+01  6.743495762E-07  0.00000E+00  9.000E+00
      21     1     1     2   513   512 -7.338494306E-01  5.280291548E+00  7.826582946E+00  9.469710366E+00  0.000000000E+00  0.00000E+00  9.000E+00
</event>
<event>
      5  10001  2.40292E+09  4.04092E+00 -1.00000E+00  2.62326E-01
      21    -1     0     0   515   513  0.000000000E+00  0.000000000E+00  1.255722138E+00  1.255722138E+00  0.000000000E+00  0.00000E+00  9.000E+00
      21    -1     0     0   512   515  0.000000000E+00  0.000000000E+00 -1.143054042E+02  1.143054042E+02  0.000000000E+00  0.00000E+00  9.000E+00
      21     1     1     2   511   513 -8.220790380E+00  6.498581115E+00 -3.117117056E+01  3.288548046E+01  0.000000000E+00  0.00000E+00  9.000E+00
      21     1     1     2   512   514  3.179780230E+00 -4.740823544E+00 -5.311603076E+01  5.342189751E+01  6.743495762E-07  0.00000E+00  9.000E+00
      21     1     1     2   514   511  5.041010151E+00 -1.757757571E+00 -2.876248078E+01  2.925374840E+01  5.840038640E-07  0.00000E+00  9.000E+00
</event>
<event>
      5  10001 -2.40292E+09  1.31303E+01 -1.00000E+00  1.82959E-01
       2    -1     0     0   511     0  0.000000000E+00  0.000000000E+00  7.945034666E+02  7.945034666E+02  0.000000000E+00  0.00000E+00  9.000E+00
      21    -1     0     0   516   511  0.000000000E+00  0.000000000E+00 -1.229228327E+02  1.229228327E+02  0.000000000E+00  0.00000E+00  9.000E+00
      21     1     1     2   512   514  2.639777155E+00  6.402737278E+00 -1.153287207E+02  1.155364760E+02  2.697398305E-06  0.00000E+00  9.000E+00
       2     1     1     2   514     0 -1.029917203E+01  3.183091922E+00  7.893128894E+02  7.893865665E+02  3.300000131E-01  0.00000E+00  9.000E+00
      21     1     1     2   516   512  7.659394878E+00 -9.585829200E+00 -2.403534870E+00  1.250325682E+01  5.487189484E-07  0.00000E+00  9.000E+00
</event>
<event>
      5  10001  2.40292E+09  1.75176E+01 -1.00000E+00  1.71218E-01
      21    -1     0     0   513   515  0.000000000E+00  0.000000000E+00  8.803296532E+00  8.803296532E+00  0.000000000E+00  0.00000E+00  9.000E+00
      -4    -1     0     0     0   512  0.000000000E+00  0.000000000E+00 -1.697623231E+02  1.697623231E+02  0.000000000E+00  0.00000E+00  9.000E+00
      -4     1     1     2     0   515  8.206122608E-02 -9.485970429E+00 -1.561530002E+02  1.564480739E+02  1.500000000E+00  0.00000E+00  9.000E+00
      21     1     1     2   511   512  9.077471071E+00  8.348125509E+00 -3.290908677E+00  1.276408087E+01  3.068336886E-07  0.00000E+00  9.000E+00
      21     1     1     2   513   511 -9.159532297E+00  1.137844920E+00 -1.515117721E+00  9.353464849E+00  2.502330486E-07  0.00000E+00  9.000E+00
</event>
<event>
      5  10001  2.40292E+09  1.17783E+01 -1.00000E+00  1.87830E-01
      21    -1     0     0   514   511  0.000000000E+00  0.000000000E+00  8.009656687E+00  8.009656687E+00  0.000000000E+00  0.00000E+00  9.000E+00
      21    -1     0     0   516   514  0.000000000E+00  0.000000000E+00 -6.057670612E+01  6.057670612E+01  0.000000000E+00  0.00000E+00  9.000E+00
      21     1     1     2   516   517  8.669676564E+00  1.581421377E+01 -3.345980516E+01  3.801067232E+01  6.743495762E-07  0.00000E+00  9.000E+00
      21     1     1     2   517   512 -1.119263050E+01 -7.364563436E+00 -5.772293866E+00  1.458873362E+01  3.576278687E-07  0.00000E+00  9.000E+00
      21     1     1     2   512   511  2.522953940E+00 -8.449650339E+00 -1.333495041E+01  1.598695687E+01  2.920019320E-07  0.00000E+00  9.000E+00
</event>
<event>
      5  10001  2.40292E+09  6.90131E+00 -1.00000E+00  2.16357E-01
       4    -1     0     0   514     0  0.000000000E+00  0.000000000E+00  2.385653768E+01  2.385653768E+01  0.000000000E+00  0.00000E+00  9.000E+00
      21    -1     0     0   512   513  0.000000000E+00  0.000000000E+00 -2.611915267E+01  2.611915267E+01  0.000000000E+00  0.00000E+00  9.000E+00
      21     1     1     2   515   513 -6.054508669E+00 -8.486634848E+00 -1.229504365E+01  1.611980597E+01  4.129530925E-07  0.00000E+00  9.000E+00
       4     1     1     2   512     0  8.962702098E+00  7.502529911E+00  2.011694968E+01  2.331436571E+01  1.500000000E+00  0.00000E+00  9.000E+00
      21     1     1     2   514   515 -2.908193430E+00  9.841049371E-01 -1.008452102E+01  1.054151866E+01  2.064765462E-07  0.00000E+00  9.000E+00
</event>
<event>
      5  10001  2.40292E+09  4.55428E+00 -1.00000E+00  2.50763E-01
       4    -1     0     0   513     0  0.000000000E+00  0.000000000E+00  1.359333097E+01  1.359333097E+01  0.000000000E+00  0.00000E+00  9.000E+00
      21    -1     0     0   514   513  0.000000000E+00  0.000000000E+00 -2.706257183E+01  2.706257183E+01  0.000000000E+00  0.00000E+00  9.000E+00
      21     1     1     2   514   512 -8.641496433E+00 -4.703626572E+00 -2.089322910E+01  2.309386468E+01  3.371747881E-07  0.00000E+00  9.000E+00
       4     1     1     2   511     0  1.023154695E+01  1.750134932E+00  9.033078698E+00  1.384174975E+01  1.500000000E+00  0.00000E+00  9.000E+00
      21     1     1     2   512   511 -1.590050516E+00  2.953491640E+00 -1.609090451E+00  3.720288375E+00  1.032382731E-07  0.00000E+00  9.000E+00
</event>
<event>
      5  10001  2.40292E+09  7.40166E+00 -1.00000E+00  2.12116E-01
      21    -1     0     0   515   513  0.000000000E+00  0.000000000E+00  7.287368668E+00  7.287368668E+00  0.000000000E+00  0.00000E+00  9.000E+00
      21    -1     0     0   512   516  0.000000000E+00  0.000000000E+00 -3.678398323E+02  3.678398323E+02  0.000000000E+00  0.00000E+00  9.000E+00
      21     1     1     2   515   516 -1.097926433E+01 -1.041586278E+01 -3.492891256E+02  3.496168299E+02  5.394796609E-06  0.00000E+00  9.000E+00
      21     1     1     2   512   511  4.002959305E+00  1.288885527E+01 -1.201650699E+01  1.807049290E+01  7.907449699E-07  0.00000E+00  9.000E+00
      21     1     1     2   511   513  6.976305021E+00 -2.472992496E+00  7.531690194E-01  7.439878171E+00  2.094130117E-07  0.00000E+00  9.000E+00
</event>
<event>
      5  10001  2.40292E+09  6.67287E+00 -1.00000E+00  2.18460E-01
      21    -1     0     0   514   512  0.000000000E+00  0.000000000E+00  6.191179815E+01  6.191179815E+01  0.000000000E+00  0.00000E+00  9.000E+00
      21    -1     0     0   513   514  0.000000000E+00  0.000000000E+00 -3.738320281E+02  3.738320281E+02  0.000000000E+00  0.00000E+00  9.000E+00
      21     1     1     2   513   517  1.577883655E+00 -1.118959276E+01 -3.695101956E+02  3.696829470E+02  5.394796609E-06  0.00000E+00  9.000E+00
      21     1     1     2   515   512  1.880112314E+00  6.292748498E+00  5.942869326E+01  5.979049329E+01  3.303624740E-06  0.00000E+00  9.000E+00
      21     1     1     2   517   515 -3.457995969E+00  4.896844266E+00 -1.838727603E+00  6.270385880E+00  7.598131170E-08  0.00000E+00  9.000E+00
</event>
<event>
      5  10001  2.40292E+09  1.00242E+01 -1.00000E+00  1.95578E-01
      21    -1     0     0   511   512  0.000000000E+00  0.000000000E+00  8.094352945E+01  8.094352945E+01  0.000000000E+00  0.00000E+00  9.000E+00
      21    -1     0     0   515   513  0.000000000E+00  0.000000000E+00 -1.138364940E+01  1.138364940E+01  0.000000000E+00  0.00000E+00  9.000E+00
      21     1     1     2   515   512 -3.168397298E+00 -2.343744306E+01  5.270491197E+01  5.776815926E+01  6.743495762E-07  0.00000E+00  9.000E+00
       5     1     1     2   511     0  1.205830559E+00  1.384927476E+01  1.839349409E+01  2.355030924E+01  4.800000191E+00  0.00000E+00  9.000E+00
      -5     1     1     2     0   513  1.962566739E+00  9.588168306E+00 -1.538526005E+00  1.100871036E+01  4.800000191E+00  0.00000E+00  9.000E+00
</event>
<event>
      5  10001  2.40292E+09  7.53142E+00 -1.00000E+00  2.11090E-01
       3    -1     0     0   515     0  0.000000000E+00  0.000000000E+00  5.761586138E+00  5.761586138E+00  0.000000000E+00  0.00000E+00  9.000E+00
      -3    -1     0     0     0   513  0.000000000E+00  0.000000000E+00 -1.999946724E+01  1.999946724E+01  0.000000000E+00  0.00000E+00  9.000E+00
      21     1     1     2   514   513  5.069481188E+00  6.583477143E+00 -8.828698786E+00  1.212384976E+01  1.685873940E-07  0.00000E+00  9.000E+00
      -3     1     1     2     0   514 -5.778145251E+00 -4.673971234E+00 -7.574055682E+00  1.062305460E+01  5.000000000E-01  0.00000E+00  9.000E+00
       3     1     1     2   515     0  7.086640631E-01 -1.909505910E+00  2.164873366E+00  3.014149012E+00  5.000000000E-01  0.00000E+00  9.000E+00
</event>
<event>
      5  10001  2.40292E+09  1.29263E+01 -1.00000E+00  1.83644E-01
       2    -1     0     0   512     0  0.000000000E+00  0.000000000E+00  4.497889057E+02  4.497889057E+02  0.000000000E+00  0.00000E+00  9.000E+00
       3    -1     0     0   511     0  0.000000000E+00  0.000000000E+00 -1.403605457E+00  1.403605457E+00  0.000000000E+00  0.00000E+00  9.000E+00
       2     1     1     2   513     0 -6.057995843E+00 -8.923331226E+00  3.603804720E+02  3.605419791E+02  3.300000131E-01  0.00000E+00  9.000E+00
       3     1     1     2   512     0  6.164214410E-01  1.378051598E+01  4.634258439E+01  4.835460396E+01  5.000000000E-01  0.00000E+00  9.000E+00
      21     1     1     2   511   513  5.441574402E+00 -4.857184750E+00  4.166224386E+01  4.229592816E+01  6.743495762E-07  0.00000E+00  9.000E+00
</event>
<event>
      5  10001  2.40292E+09  4.01261E+00 -1.00000E+00  2.63040E-01
      21    -1     0     0   515   514  0.000000000E+00  0.000000000E+00  4.777980857E+01  4.777980857E+01  0.000000000E+00  0.00000E+00  9.000E+00
       2    -1     0     0   512     0  0.000000000E+00  0.000000000E+00 -4.352656949E+02  4.352656949E+02  0.000000000E+00  0.00000E+00  9.000E+00
      21     1     1     2   512   514 -1.390928205E+00  1.411355552E+01  6.095224103E-01  1.419502195E+01  4.380028980E-07  0.00000E+00  9.000E+00
       2     1     1     2   511     0  3.538601313E+00 -1.750302892E+01 -4.281866311E+02  4.285589547E+02  3.300000131E-01  0.00000E+00  9.000E+00
      21     1     1     2   515   511 -2.147673108E+00  3.389473406E+00  4.009122231E+01  4.029152685E+01  1.719260824E-06  0.00000E+00  9.000E+00
</event>
<event>
      5  10001  2.40292E+09  3.85663E+00 -1.00000E+00  2.67150E-01
      21    -1     0     0   513   511  0.000000000E+00  0.000000000E+00  9.028927265E+01  9.028927265E+01  0.000000000E+00  0.00000E+00  9.000E+00
      21    -1     0     0   516   513  0.000000000E+00  0.000000000E+00 -2.423875138E+01  2.423875138E+01  0.000000000E+00  0.00000E+00  9.000E+00
      21     1     1     2   516   512 -1.066008521E+01 -3.198465814E+00 -2.250349347E+01  2.510527472E+01  0.000000000E+00  0.00000E+00  9.000E+00
      21     1     1     2   512   514  4.820495846E+00  3.046012901E+00  6.043196194E+01  6.070039044E+01  0.000000000E+00  0.00000E+00  9.000E+00
      21     1     1     2   514   511  5.839589360E+00  1.524529122E-01  2.812205280E+01  2.872235888E+01  3.371747881E-07  0.00000E+00  9.000E+00
</event>
<event>
      5  10001  2.40292E+09  8.90268E+00 -1.00000E+00  2.01717E-01
      21    -1     0     0   515   512  0.000000000E+00  0.000000000E+00  1.398095066E+01  1.398095066E+01  0.000000000E+00  0.00000E+00  9.000E+00
      21    -1     0     0   516   511  0.000000000E+00  0.000000000E+00 -1.665969631E+01  1.665969631E+01  0.000000000E+00  0.00000E+00  9.000E+00
      21     1     1     2   515   511  3.694448626E+00  7.130657596E+00 -1.007891879E+01  1.288719645E+01  1.685873940E-07  0.00000E+00  9.000E+00
      21     1     1     2   513   512  1.082685052E+00 -6.670310128E+00  1.017138197E+01  1.221156236E+01  2.064765462E-07  0.00000E+00  9.000E+00
      21     1     1     2   516   513 -4.777133678E+00 -4.603474680E-01 -2.771208828E+00  5.541888157E+00  1.192092896E-07  0.00000E+00  9.000E+00
</event>
<event>
      5  10001  2.40292E+09  8.88227E+00 -1.00000E+00  2.01840E-01
      21    -1     0     0   512   511  0.000000000E+00  0.000000000E+00  8.190656347E+01  8.190656347E+01  0.000000000E+00  0.00000E+00  9.000E+00
      21    -1     0     0   516   517  0.000000000E+00  0.000000000E+00 -5.455188747E+01  5.455188747E+01  0.000000000E+00  0.00000E+00  9.000E+00
      21     1     1     2   514   517  1.209478609E+01 -6.960368368E+00 -5.051442298E+01  5.240646437E+01  9.536743164E-07  0.00000E+00  9.000E+00
      21     1     1     2   516   511 -4.857918322E+00  1.211036523E+01  1.245797884E+01  1.804055302E+01  1.685873940E-07  0.00000E+00  9.000E+00
      21     1     1     2   512   514 -7.236867772E+00 -5.149996861E+00  6.541112013E+01  6.601143356E+01  1.348699152E-06  0.00000E+00  9.000E+00
</event>
<event>
      5  10001  2.40292E+09  4.36783E+00 -1.00000E+00  2.54680E-01
      21    -1     0     0   513   516  0.000000000E+00  0.000000000E+00  1.480735613E+02  1.480735613E+02  0.000000000E+00  0.00000E+00  9.000E+00
      21    -1     0     0   515   514  0.000000000E+00  0.000000000E+00 -7.285960516E-01  7.285960516E-01  0.000000000E+00  0.00000E+00  9.000E+00
      21     1     1     2   513   514  9.223005949E+00 -1.029404447E+00  5.036136540E+01  5.120928273E+01  1.348699152E-06  0.00000E+00  9.000E+00
      21     1     1     2   511   516 -6.609957722E+00  2.355632552E+00  4.673144824E+01  4.725535738E+01  6.743495762E-07  0.00000E+00  9.000E+00
      21     1     1     2   515   511 -2.613048227E+00 -1.326228105E+00  5.025215156E+01  5.033751721E+01  0.000000000E+00  0.00000E+00  9.000E+00
</event>
<event>
      5  10001  2.40292E+09  5.11578E+00 -1.00000E+00  2.36705E-01
      21    -1     0     0   512   511  0.000000000E+00  0.000000000E+00  5.904835362E+00  5.904835362E+00  0.000000000E+00  0.00000E+00  9.000E+00
      21    -1     0     0   513   512  0.000000000E+00  0.000000000E+00 -4.272848208E+02  4.272848208E+02  0.000000000E+00  0.00000E+00  9.000E+00
      21     1     1     2   515   517 -1.202126097E+01 -6.512580832E+00 -1.929642166E+02  1.934479602E+02  3.814697266E-06  0.00000E+00  9.000E+00
      21     1     1     2   517   511  7.050203019E+00  5.304368034E+00  2.180853854E+00  9.088333532E+00  6.122183378E-07  0.00000E+00  9.000E+00
      21     1     1     2   513   515  4.971057949E+00  1.208212797E+00 -2.305966227E+02  2.306533624E+02  2.697398305E-06  0.00000E+00  9.000E+00
</event>
<event>
      5  10001  2.40292E+09  3.84342E+00 -1.00000E+00  2.67513E-01
       1    -1     0     0   513     0  0.000000000E+00  0.000000000E+00  5.359693828E+02  5.359693828E+02  0.000000000E+00  0.00000E+00  9.000E+00
      21    -1     0     0   514   512  0.000000000E+00  0.000000000E+00 -3.732592606E+00  3.732592606E+00  0.000000000E+00  0.00000E+00  9.000E+00
      21     1     1     2   513   512  1.237179681E+01 -3.907978103E-01  7.171311678E+00  1.430530637E+01  4.380028980E-07  0.00000E+00  9.000E+00
       1     1     1     2   511     0 -1.487530789E+01  9.749788241E-01  4.940064729E+02  4.942314534E+02  3.300000131E-01  0.00000E+00  9.000E+00
      21     1     1     2   514   511  2.503511084E+00 -5.841810138E-01  3.105900562E+01  3.116521563E+01  4.768371582E-07  0.00000E+00  9.000E+00
</event>
<event>
      5  10001  2.40292E+09  1.59957E+01 -1.00000E+00  1.74748E-01
       3    -1     0     0   512     0  0.000000000E+00  0.000000000E+00  2.003949581E+01  2.003949581E+01  0.000000000E+00  0.00000E+00  9.000E+00
      21    -1     0     0   515   511  0.000000000E+00  0.000000000E+00 -1.838575884E+01  1.838575884E+01  0.000000000E+00  0.00000E+00  9.000E+00
      -1     1     1     2     0   511 -1.086485520E+01  7.832342548E+00 -6.894064804E+00  1.506743833E+01  3.300000131E-01  0.00000E+00  9.000E+00
       3     1     1     2   515     0  2.081162065E+00 -8.427243629E+00  1.117995614E+01  1.416301840E+01  5.000000000E-01  0.00000E+00  9.000E+00
       1     1     1     2   512     0  8.783693131E+00  5.949010817E-01 -2.632154366E+00  9.194797928E+00  3.300000131E-01  0.00000E+00  9.000E+00
</event>
<event>
      5  10001  2.40292E+09  7.65288E+00 -1.00000E+00  2.10154E-01
      21    -1     0     0   515   511  0.000000000E+00  0.000000000E+00  8.096283955E+01  8.096283955E+01  0.000000000E+00  0.00000E+00  9.000E+00
      21    -1     0     0   514   513  0.000000000E+00  0.000000000E+00 -4.212550468E+02  4.212550468E+02  0.000000000E+00  0.00000E+00  9.000E+00
      21     1     1     2   514   516 -1.405102638E+01 -8.991838672E+00 -3.581015635E+02  3.584899082E+02  0.000000000E+00  0.00000E+00  9.000E+00
      21     1     1     2   516   511  2.098905649E+01  5.762247572E+00 -6.088698273E+01  6.466041026E+01  2.611744678E-06  0.00000E+00  9.000E+00
      21     1     1     2   515   513 -6.938030115E+00  3.229591099E+00  7.869633898E+01  7.906756788E+01  2.523185073E-06  0.00000E+00  9.000E+00
</event>
<event>
      5  10001  2.40292E+09  6.63779E+00 -1.00000E+00  2.18794E-01
      21    -1     0     0   512   513  0.000000000E+00  0.000000000E+00  2.227719948E+01  2.227719948E+01  0.000000000E+00  0.00000E+00  9.000E+00
      -2    -1     0     0     0   512  0.000000000E+00  0.000000000E+00 -1.876602781E+01  1.876602781E+01  0.000000000E+00  0.00000E+00  9.000E+00
      -2     1     1     2     0   514 -1.011892859E+00 -5.975255788E+00 -1.534631587E+01  1.650290640E+01  3.300000131E-01  0.00000E+00  9.000E+00
      21     1     1     2   511   513  3.450237191E+00  9.608659220E+00  1.690515861E+01  1.974879379E+01  4.768371582E-07  0.00000E+00  9.000E+00
      21     1     1     2   514   511 -2.438344332E+00 -3.633403431E+00  1.952328930E+00  4.791527087E+00  1.053671213E-07  0.00000E+00  9.000E+00
</event>
<event>
      5  10001  2.40292E+09  6.29226E+00 -1.00000E+00  2.22235E-01
      21    -1     0     0   515   513  0.000000000E+00  0.000000000E+00  1.520572585E+02  1.520572585E+02  0.000000000E+00  0.00000E+00  9.000E+00
      21    -1     0     0   516   515  0.000000000E+00  0.000000000E+00 -1.026830086E+01  1.026830086E+01  0.000000000E+00  0.00000E+00  9.000E+00
      21     1     1     2   511   513  1.685635617E+01 -4.217750841E+00  1.417921667E+02  1.428528778E+02  2.697398305E-06  0.00000E+00  9.000E+00
      21     1     1     2   516   512 -8.501314714E+00  2.287603774E-01 -3.988136270E+00  9.393077988E+00  3.153981341E-07  0.00000E+00  9.000E+00
      21     1     1     2   512   511 -8.355041452E+00  3.988990463E+00  3.984927196E+00  1.007960353E+01  1.576990671E-07  0.00000E+00  9.000E+00
</event>
<event>
      5  10001  2.40292E+09  1.67879E+01 -1.00000E+00  1.72852E-01
      21    -1     0     0   514   513  0.000000000E+00  0.000000000E+00  4.665784942E+00  4.665784942E+00  0.000000000E+00  0.00000E+00  9.000E+00
      21    -1     0     0   517   514  0.000000000E+00  0.000000000E+00 -1.098413156E+02  1.098413156E+02  0.000000000E+00  0.00000E+00  9.000E+00
      21     1     1     2   517   511  3.780870197E+00  9.983964586E+00 -7.735656849E+01  7.808977664E+01  1.348699152E-06  0.00000E+00  9.000E+00
      21     1     1     2   511   515 -7.917464148E+00 -1.382655683E+01 -2.598527661E+01  3.048105170E+01  5.840038640E-07  0.00000E+00  9.000E+00
      21     1     1     2   515   513  4.136593951E+00  3.842592245E+00 -1.833685540E+00  5.936272175E+00  1.316034923E-07  0.00000E+00  9.000E+00
</event>
<event>
      5  10001  2.40292E+09  4.09315E+00 -1.00000E+00  2.61030E-01
      -1    -1     0     0     0   513  0.000000000E+00  0.000000000E+00  1.244542318E+01  1.244542318E+01  0.000000000E+00  0.00000E+00  9.000E+00
       2    -1     0     0   513     0  0.000000000E+00  0.000000000E+00 -5.317290008E+02  5.317290008E+02  0.000000000E+00  0.00000E+00  9.000E+00
      21     1     1     2   511   512 -1.033608154E+01  6.816856471E+00 -3.417803263E+01  3.635164409E+01  6.743495762E-07  0.00000E+00  9.000E+00
       2     1     1     2   512     0  1.441871779E+01 -7.109480578E+00 -4.959584222E+02  4.962190137E+02  3.300000131E-01  0.00000E+00  9.000E+00
      -1     1     1     2     0   511 -4.082636243E+00  2.926241072E-01  1.085287716E+01  1.160376621E+01  3.300000131E-01  0.00000E+00  9.000E+00
</event>
<event>
      5  10001  2.40292E+09  5.93760E+00 -1.00000E+00  2.26100E-01
      21    -1     0     0   514   512  0.000000000E+00  0.000000000E+00  9.054342666E+00  9.054342666E+00  0.000000000E+00  0.00000E+00  9.000E+00
      21    -1     0     0   513   511  0.000000000E+00  0.000000000E+00 -4.471473806E+02  4.471473806E+02  0.000000000E+00  0.00000E+00  9.000E+00
      21     1     1     2   514   511 -9.722694718E+00  1.769436060E+01 -2.928574977E+00  2.040092501E+01  8.333999785E-07  0.00000E+00  9.000E+00
      21     1     1     2   513   515  5.887383021E+00 -1.048095260E+01 -3.586532015E+02  3.588546093E+02  0.000000000E+00  0.00000E+00  9.000E+00
      21     1     1     2   515   512  3.835311697E+00 -7.213408006E+00 -7.651126139E+01  7.694618892E+01  9.536743164E-07  0.00000E+00  9.000E+00
</event>
<event>
      5  10001  2.40292E+09  6.85995E+00 -1.00000E+00  2.16729E-01
       3    -1     0     0   516     0  0.000000000E+00  0.000000000E+00  7.580119757E+01  7.580119757E+01  0.000000000E+00  0.00000E+00  9.000E+00
      21    -1     0     0   517   512  0.000000000E+00  0.000000000E+00 -4.378735580E+02  4.378735580E+02  0.000000000E+00  0.00000E+00  9.000E+00
      21     1     1     2   516   512  2.812008204E+01 -1.885511158E+01 -2.054667910E+02  2.082375002E+02  5.394796609E-06  0.00000E+00  9.000E+00
      21     1     1     2   517   511 -2.504518574E+01  1.272292638E+01 -2.300060757E+02  2.317151895E+02  5.394796609E-06  0.00000E+00  9.000E+00
       3     1     1     2   511     0 -3.074896305E+00  6.132185195E+00  7.340050629E+01  7.372206594E+01  5.000000000E-01  0.00000E+00  9.000E+00
</event>
<event>
      5  10001  2.40292E+09  2.16723E+00 -1.00000E+00  3.47349E-01
      21    -1     0     0   513   512  0.000000000E+00  0.000000000E+00  2.507654201E+02  2.507654201E+02  0.000000000E+00  0.00000E+00  9.000E+00
      -2    -1     0     0     0   514  0.000000000E+00  0.000000000E+00 -1.038730531E+03  1.038730531E+03  0.000000000E+00  0.00000E+00  9.000E+00
      21     1     1     2   513   514  9.653699737E+00 -4.159672504E+00  1.176558319E+01  1.577738070E+01  8.429369702E-07  0.00000E+00  9.000E+00
      21     1     1     2   515   512 -1.096250558E+01  2.432276109E+00  2.368597661E+02  2.371257921E+02  2.697398305E-06  0.00000E+00  9.000E+00
      -2     1     1     2     0   515  1.308805843E+00  1.727396395E+00 -1.036590460E+03  1.036592778E+03  3.300000131E-01  0.00000E+00  9.000E+00
</event>
<event>
      5  10001  2.40292E+09  2.81012E+01 -1.00000E+00  1.55003E-01
      21    -1     0     0   515   512  0.000000000E+00  0.000000000E+00  5.292966805E+00  5.292966805E+00  0.000000000E+00  0.00000E+00  9.000E+00
      21    -1     0     0   511   515  0.000000000E+00  0.000000000E+00 -3.303056303E+02  3.303056303E+02  0.000000000E+00  0.00000E+00  9.000E+00
      -3     1     1     2     0   512  2.032203967E+01 -2.937593390E+01 -8.750009009E+01  9.451162127E+01  5.000000000E-01  0.00000E+00  9.000E+00
       3     1     1     2   513     0 -1.478936894E+01  4.785848467E+00 -7.149769315E+01  7.316966520E+01  5.000000000E-01  0.00000E+00  9.000E+00
      21     1     1     2   511   513 -5.532670730E+00  2.459008543E+01 -1.660148802E+02  1.679173106E+02  2.697398305E-06  0.00000E+00  9.000E+00
</event>
<event>
      5  10001  2.40292E+09  5.39978E+00 -1.00000E+00  2.32740E-01
      21    -1     0     0   514   512  0.000000000E+00  0.000000000E+00  2.631341798E+01  2.631341798E+01  0.000000000E+00  0.00000E+00  9.000E+00
      21    -1     0     0   511   516  0.000000000E+00  0.000000000E+00 -1.683076085E+01  1.683076085E+01  0.000000000E+00  0.00000E+00  9.000E+00
      21     1     1     2   514   516 -5.223466220E+00 -8.782243184E+00  2.280017995E+01  2.498520763E+01  0.000000000E+00  0.00000E+00  9.000E+00
      21     1     1     2   515   512  2.038807892E+00  8.488680625E+00 -7.451516677E+00  1.147778451E+01  4.298152060E-07  0.00000E+00  9.000E+00
      21     1     1     2   511   515  3.184658328E+00  2.935625594E-01 -5.866006140E+00  6.681186696E+00  0.000000000E+00  0.00000E+00  9.000E+00
</event>
<event>
      5  10001  2.40292E+09  2.91773E+00 -1.00000E+00  3.00438E-01
       2    -1     0     0   514     0  0.000000000E+00  0.000000000E+00  9.353516062E+02  9.353516062E+02  0.000000000E+00  0.00000E+00  9.000E+00
      21    -1     0     0   515   514  0.000000000E+00  0.000000000E+00 -1.668082297E-01  1.668082297E-01  0.000000000E+00  0.00000E+00  9.000E+00
      21     1     1     2   515   512  5.246854404E+00 -4.701020134E+00  1.593520511E+02  1.595076965E+02  1.907348633E-06  0.00000E+00  9.000E+00
       2     1     1     2   513     0 -5.812977725E+00  7.994841607E+00  7.253682279E+02  7.254356506E+02  3.300000131E-01  0.00000E+00  9.000E+00
      21     1     1     2   512   513  5.661233210E-01 -3.293821473E+00  5.046451905E+01  5.057506736E+01  1.348699152E-06  0.00000E+00  9.000E+00
</event>
<event>
      5  10001  2.40292E+09  4.09397E+01 -1.00000E+00  1.44186E-01
       2    -1     0     0   513     0  0.000000000E+00  0.000000000E+00  7.236510140E+01  7.236510140E+01  0.000000000E+00  0.00000E+00  9.000E+00
      21    -1     0     0   512   513  0.000000000E+00  0.000000000E+00 -6.909805866E+01  6.909805866E+01  0.000000000E+00  0.00000E+00  9.000E+00
      21     1     1     2   512   514  2.527227018E+00  1.277508040E+00 -3.653510933E+00  4.622450144E+00  1.264405455E-07  0.00000E+00  9.000E+00
       2     1     1     2   511     0 -3.921701620E-01 -1.005121701E+01  7.121128139E+01  7.191895618E+01  3.300000131E-01  0.00000E+00  9.000E+00
      21     1     1     2   514   511 -2.135056856E+00  8.773708972E+00 -6.429072772E+01  6.492175373E+01  0.000000000E+00  0.00000E+00  9.000E+00
</event>
<event>
      5  10001  2.40292E+09  8.00164E+00 -1.00000E+00  2.07593E-01
       2    -1     0     0   513     0  0.000000000E+00  0.000000000E+00  6.446871674E+00  6.446871674E+00  0.000000000E+00  0.00000E+00  9.000E+00
      21    -1     0     0   511   513  0.000000000E+00  0.000000000E+00 -5.198346447E+01  5.198346447E+01  0.000000000E+00  0.00000E+00  9.000E+00
      21     1     1     2   511   512 -3.260211664E+00 -5.899010314E+00 -3.198467468E+01  3.268710322E+01  4.768371582E-07  0.00000E+00  9.000E+00
       2     1     1     2   515     0  1.054436176E+01  6.189247456E+00 -2.469126688E+00  1.247781374E+01  3.300000131E-01  0.00000E+00  9.000E+00
      21     1     1     2   512   515 -7.284150099E+00 -2.902371418E-01 -1.108279143E+01  1.326541919E+01  2.665600750E-07  0.00000E+00  9.000E+00
</event>
<event>
      5  10001  2.40292E+09  3.38565E+00 -1.00000E+00  2.81665E-01
      21    -1     0     0   514   511  0.000000000E+00  0.000000000E+00  2.679685940E+01  2.679685940E+01  0.000000000E+00  0.00000E+00  9.000E+00
      21    -1     0     0   516   514  0.000000000E+00  0.000000000E+00 -7.602673177E+00  7.602673177E+00  0.000000000E+00  0.00000E+00  9.000E+00
      21     1     1     2   515   511 -1.029085149E+01  6.767438661E+00  1.507842815E+01  1.946943363E+01  2.920019320E-07  0.00000E+00  9.000E+00
      21     1     1     2   513   515  9.014971284E+00 -5.355544269E+00  9.998584145E-02  1.048625571E+01  9.347621167E-08  0.00000E+00  9.000E+00
      21     1     1     2   516   513  1.275880208E+00 -1.411894392E+00  4.015772233E+00  4.443843237E+00  8.429369702E-08  0.00000E+00  9.000E+00
</event>
<event>
      5  10001  2.40292E+09  1.53129E+01 -1.00000E+00  1.76496E-01
       1    -1     0     0   514     0  0.000000000E+00  0.000000000E+00  7.220755395E-01  7.220755395E-01  0.000000000E+00  0.00000E+00  9.000E+00
      21    -1     0     0   512   513  0.000000000E+00  0.000000000E+00 -1.839125066E+02  1.839125066E+02  0.000000000E+00  0.00000E+00  9.000E+00
       3     1     1     2   514     0 -4.645034598E+00 -2.186116023E+00 -4.272472662E+01  4.303495921E+01  5.000000000E-01  0.00000E+00  9.000E+00
       1     1     1     2   512     0  4.514115096E+00 -6.132668949E+00 -3.579046446E+01  3.659307461E+01  3.300000131E-01  0.00000E+00  9.000E+00
      -3     1     1     2     0   513  1.309195017E-01  8.318784971E+00 -1.046752400E+02  1.050065483E+02  5.000000000E-01  0.00000E+00  9.000E+00
</event>
<event>
      5  10001  2.40292E+09  9.19352E+00 -1.00000E+00  2.00014E-01
       1    -1     0     0   511     0  0.000000000E+00  0.000000000E+00  2.208056883E+02  2.208056883E+02  0.000000000E+00  0.00000E+00  9.000E+00
      -1    -1     0     0     0   511  0.000000000E+00  0.000000000E+00 -4.174831525E+01  4.174831525E+01  0.000000000E+00  0.00000E+00  9.000E+00
      -1     1     1     2     0   513 -4.213310566E+00 -1.025353705E+01 -4.050454081E+01  4.199540134E+01  3.300000131E-01  0.00000E+00  9.000E+00
       1     1     1     2   512     0  1.592623232E+00  1.512441403E+01  1.735673247E+02  1.742326303E+02  3.300000131E-01  0.00000E+00  9.000E+00
      21     1     1     2   513   512  2.620687333E+00 -4.870876972E+00  4.599458907E+01  4.632597185E+01  9.536743164E-07  0.00000E+00  9.000E+00
</event>
<event>
      5  10001  2.40292E+09  5.71085E+00 -1.00000E+00  2.28775E-01
      21    -1     0     0   514   512  0.000000000E+00  0.000000000E+00  8.524236724E-01  8.524236724E-01  0.000000000E+00  0.00000E+00  9.000E+00
      21    -1     0     0   513   515  0.000000000E+00  0.000000000E+00 -3.653878547E+02  3.653878547E+02  0.000000000E+00  0.00000E+00  9.000E+00
      21     1     1     2   514   515  1.149733044E+01 -6.880620490E-01 -4.493750024E+01  4.639009554E+01  1.066240300E-06  0.00000E+00  9.000E+00
      21     1     1     2   513   511 -4.176257238E+00 -1.787073400E+00 -1.610058365E+02  1.610699045E+02  1.907348633E-06  0.00000E+00  9.000E+00
      21     1     1     2   511   512 -7.321073207E+00  2.475135449E+00 -1.585920943E+02  1.587802783E+02  2.697398305E-06  0.00000E+00  9.000E+00
</event>
<event>
      5  10001  2.40292E+09  2.65921E+00 -1.00000E+00  3.13563E-01
      21    -1     0     0   516   513  0.000000000E+00  0.000000000E+00  5.535785933E+01  5.535785933E+01  0.000000000E+00  0.00000E+00  9.000E+00
      21    -1     0     0   514   516  0.000000000E+00  0.000000000E+00 -1.338644091E+01  1.338644091E+01  0.000000000E+00  0.00000E+00  9.000E+00
      21     1     1     2   512   517 -5.741939712E+00 -1.068602583E+01 -8.032946243E+00  1.454954449E+01  3.153981341E-07  0.00000E+00  9.000E+00
      21     1     1     2   517   513  3.226380845E+00  1.154822424E+01  5.011873503E+01  5.153308275E+01  9.536743164E-07  0.00000E+00  9.000E+00
      21     1     1     2   514   512  2.515558866E+00 -8.621984136E-01 -1.143703702E-01  2.661672988E+00  3.951267048E-08  0.00000E+00  9.000E+00
</event>
<event>
      5  10001  2.40292E+09  2.64698E+00 -1.00000E+00  3.14247E-01
      -1    -1     0     0     0   511  0.000000000E+00  0.000000000E+00  3.224857114E+02  3.224857114E+02  0.000000000E+00  0.00000E+00  9.000E+00
      -3    -1     0     0     0   512  0.000000000E+00  0.000000000E+00 -7.018606923E-01  7.018606923E-01  0.000000000E+00  0.00000E+00  9.000E+00
      -3     1     1     2     0   513 -9.013579637E+00  3.591258621E+00  1.192834860E+02  1.196784934E+02  5.000000000E-01  0.00000E+00  9.000E+00
      -1     1     1     2     0   512  1.429194701E+01 -3.948125517E+00  1.583010778E+02  1.589943004E+02  3.300000131E-01  0.00000E+00  9.000E+00
      21     1     1     2   513   511 -5.278367372E+00  3.568668955E-01  4.419928690E+01  4.451477820E+01  4.768371582E-07  0.00000E+00  9.000E+00
</event>
<event>
      5  10001  2.40292E+09  9.85911E+00 -1.00000E+00  1.96413E-01
      21    -1     0     0   514   515  0.000000000E+00  0.000000000E+00  2.918179039E+02  2.918179039E+02  0.000000000E+00  0.00000E+00  9.000E+00
       4    -1     0     0   513     0  0.000000000E+00  0.000000000E+00 -1.437655542E+01  1.437655542E+01  0.000000000E+00  0.00000E+00  9.000E+00
      21     1     1     2   514   511 -1.509134741E+01  3.939440968E+00  1.344899833E+00  1.565492629E+01  4.477792740E-07  0.00000E+00  9.000E+00
      21     1     1     2   513   515  9.747752450E+00  4.342866847E+00  2.797259626E+02  2.799294435E+02  3.814697266E-06  0.00000E+00  9.000E+00
       4     1     1     2   511     0  5.343594957E+00 -8.282307815E+00 -3.629513920E+00  1.061008959E+01  1.500000000E+00  0.00000E+00  9.000E+00
</event>
<event>
      5  10001  2.40292E+09  1.94071E+01 -1.00000E+00  1.67412E-01
      21    -1     0     0   512   515  0.000000000E+00  0.000000000E+00  4.435015768E+00  4.435015768E+00  0.000000000E+00  0.00000E+00  9.000E+00
      21    -1     0     0   516   512  0.000000000E+00  0.000000000E+00 -1.336862993E+02  1.336862993E+02  0.000000000E+00  0.00000E+00  9.000E+00
      21     1     1     2   513   515 -1.021690426E+01  1.486616452E+01 -3.613748669E+01  4.038942837E+01  4.768371582E-07  0.00000E+00  9.000E+00
      21     1     1     2   516   514  1.692739601E+01 -5.876427402E+00 -4.774117268E+01  5.099302602E+01  0.000000000E+00  0.00000E+00  9.000E+00
      21     1     1     2   514   513 -6.710491747E+00 -8.989737118E+00 -4.537262413E+01  4.673886064E+01  0.000000000E+00  0.00000E+00  9.000E+00
</event>
<event>
      5  10001  2.40292E+09  3.99302E+00 -1.00000E+00  2.63541E-01
      21    -1     0     0   511   514  0.000000000E+00  0.000000000E+00  2.758367138E+02  2.758367138E+02  0.000000000E+00  0.00000E+00  9.000E+00
       1    -1     0     0   515     0  0.000000000E+00  0.000000000E+00 -4.724702479E-01  4.724702479E-01  0.000000000E+00  0.00000E+00  9.000E+00
      21     1     1     2   515   512 -4.172212561E+00  9.895174396E-01  4.577979926E+01  4.598017532E+01  0.000000000E+00  0.00000E+00  9.000E+00
       1     1     1     2   511     0  1.102693933E+01  1.324283755E+00  1.533721467E+02  1.537740921E+02  3.300000131E-01  0.00000E+00  9.000E+00
      21     1     1     2   512   514 -6.854726765E+00 -2.313801194E+00  7.621229760E+01  7.655491663E+01  9.536743164E-07  0.00000E+00  9.000E+00
</event>
<event>
      5  10001  2.40292E+09  2.25564E+00 -1.00000E+00  3.40144E-01
      21    -1     0     0   511   512  0.000000000E+00  0.000000000E+00  1.087836018E+01  1.087836018E+01  0.000000000E+00  0.00000E+00  9.000E+00
      21    -1     0     0   514   513  0.000000000E+00  0.000000000E+00 -2.321490388E+02  2.321490388E+02  0.000000000E+00  0.00000E+00  9.000E+00
      21     1     1     2   514   515  1.131992037E+01  2.736032035E+00 -2.258392143E+02  2.261392871E+02  2.697398305E-06  0.00000E+00  9.000E+00
      21     1     1     2   515   512 -1.351950574E+01 -2.236292149E+00  5.008752163E+00  1.458991557E+01  3.998401125E-07  0.00000E+00  9.000E+00
      21     1     1     2   511   513  2.199585369E+00 -4.997398859E-01 -4.402165322E-01  2.298196324E+00  5.698598378E-08  0.00000E+00  9.000E+00
</event>
<event>
      5  10001  2.40292E+09  1.11063E+01 -1.00000E+00  1.90577E-01
      -1    -1     0     0     0   516  0.000000000E+00  0.000000000E+00  2.067374048E+01  2.067374048E+01  0.000000000E+00  0.00000E+00  9.000E+00
      21    -1     0     0   516   511  0.000000000E+00  0.000000000E+00 -5.053157708E+01  5.053157708E+01  0.000000000E+00  0.00000E+00  9.000E+00
      -1     1     1     2     0   512 -2.821801091E+01  1.094057433E+01 -5.994395255E+00  3.085439970E+01  3.300000131E-01  0.00000E+00  9.000E+00
      21     1     1     2   514   511  1.300524134E+01 -1.139465157E+01 -1.352205082E+01  2.195040421E+01  2.920019320E-07  0.00000E+00  9.000E+00
      21     1     1     2   512   514  1.521276957E+01  4.540772366E-01 -1.034139053E+01  1.840051364E+01  2.920019320E-07  0.00000E+00  9.000E+00
</event>
<event>
      5  10001  2.40292E+09  3.77010E+00 -1.00000E+00  2.69564E-01
      21    -1     0     0   512   514  0.000000000E+00  0.000000000E+00  4.112530903E+01  4.112530903E+01  0.000000000E+00  0.00000E+00  9.000E+00
       1    -1     0     0   511     0  0.000000000E+00  0.000000000E+00 -4.418396111E+01  4.418396111E+01  0.000000000E+00  0.00000E+00  9.000E+00
      21     1     1     2   512   513 -8.235544496E+00  5.524932420E+00  3.779640862E+01  3.907579271E+01  4.768371582E-07  0.00000E+00  9.000E+00
       1     1     1     2   513     0  1.166881877E+01 -3.967612290E+00 -1.224734114E+01  1.737842178E+01  3.300000131E-01  0.00000E+00  9.000E+00
      21     1     1     2   511   514 -3.433274274E+00 -1.557320130E+00 -2.860771956E+01  2.885505565E+01  3.371747881E-07  0.00000E+00  9.000E+00
</event>
<event>
      5  10001  2.40292E+09  1.27523E+01 -1.00000E+00  1.84242E-01
       2    -1     0     0   511     0  0.000000000E+00  0.000000000E+00  3.533798312E+02  3.533798312E+02  0.000000000E+00  0.00000E+00  9.000E+00
      21    -1     0     0   515   516  0.000000000E+00  0.000000000E+00 -8.008992581E-01  8.008992581E-01  0.000000000E+00  0.00000E+00  9.000E+00
      -4     1     1     2     0   516 -7.710861483E-01  8.175622340E-03  4.927290927E-01  1.757106328E+00  1.500000000E+00  0.00000E+00  9.000E+00
       2     1     1     2   515     0  7.625175494E+00  5.808603931E-01  2.359928041E+02  2.361169058E+02  3.300000131E-01  0.00000E+00  9.000E+00
       4     1     1     2   511     0 -6.854089346E+00 -5.890360154E-01  1.160933987E+02  1.163067183E+02  1.500000000E+00  0.00000E+00  9.000E+00
</event>
<event>
      5  10001  2.40292E+09  1.63493E+01 -1.00000E+00  1.73885E-01
      21    -1     0     0   512   515  0.000000000E+00  0.000000000E+00  6.571748872E+01  6.571748872E+01  0.000000000E+00  0.00000E+00  9.000E+00
      21    -1     0     0   514   513  0.000000000E+00  0.000000000E+00 -3.698952716E+00  3.698952716E+00  0.000000000E+00  0.00000E+00  9.000E+00
      21     1     1     2   512   513 -6.133825298E+00 -4.368284885E+00  4.596952091E+00  8.822567322E+00  1.884864366E-07  0.00000E+00  9.000E+00
      21     1     1     2   514   516  1.030904319E+01  4.306696780E+00  1.974626335E+01  2.268785854E+01  3.371747881E-07  0.00000E+00  9.000E+00
      21     1     1     2   516   515 -4.175217892E+00  6.158810481E-02  3.767532056E+01  3.790601558E+01  8.259061849E-07  0.00000E+00  9.000E+00
</event>
<event>
      5  10001  2.40292E+09  5.93547E+00 -1.00000E+00  2.26125E-01
      21    -1     0     0   511   512  0.000000000E+00  0.000000000E+00  4.043400296E+01  4.043400296E+01  0.000000000E+00  0.00000E+00  9.000E+00
      21    -1     0     0   517   515  0.000000000E+00  0.000000000E+00 -2.052802028E+02  2.052802028E+02  0.000000000E+00  0.00000E+00  9.000E+00
      21     1     1     2   511   515 -9.476581035E+00 -9.829519957E+00 -2.009727326E+02  2.014360054E+02  2.697398305E-06  0.00000E+00  9.000E+00
      21     1     1     2   517   513  7.866313138E+00  4.116658342E+00  1.328066695E+00  8.977166560E+00  4.357156610E-07  0.00000E+00  9.000E+00
      21     1     1     2   513   512  1.610267897E+00  5.712861615E+00  3.479846601E+01  3.530103379E+01  6.743495762E-07  0.00000E+00  9.000E+00
</event>
<event>
      5  10001  2.40292E+09  9.44376E+00 -1.00000E+00  1.98615E-01
      21    -1     0     0   511   515  0.000000000E+00  0.000000000E+00  4.617027203E+01  4.617027203E+01  0.000000000E+00  0.00000E+00  9.000E+00
      21    -1     0     0   512   514  0.000000000E+00  0.000000000E+00 -9.091519755E+01  9.091519755E+01  0.000000000E+00  0.00000E+00  9.000E+00
      21     1     1     2   512   516  5.963024844E+00  9.088009240E+00 -8.750427976E+01  8.817680281E+01  1.651812370E-06  0.00000E+00  9.000E+00
      21     1     1     2   516   515  2.187833407E+00 -1.385749907E+01  2.185785925E+01  2.597273391E+01  8.920806376E-07  0.00000E+00  9.000E+00
      21     1     1     2   511   514 -8.150858251E+00  4.769489834E+00  2.090149499E+01  2.293593286E+01  0.000000000E+00  0.00000E+00  9.000E+00
</event>
<event>
      5  10001  2.40292E+09  1.20059E+01 -1.00000E+00  1.86953E-01
       2    -1     0     0   514     0  0.000000000E+00  0.000000000E+00  1.010171973E+03  1.010171973E+03  0.000000000E+00  0.00000E+00  9.000E+00
      21    -1     0     0   513   514  0.000000000E+00  0.000000000E+00 -4.042488514E+01  4.042488514E+01  0.000000000E+00  0.00000E+00  9.000E+00
      21     1     1     2   512   511  6.927355320E-01 -3.968859600E+00 -1.733603635E+01  1.779803038E+01  1.815741803E-06  0.00000E+00  9.000E+00
       2     1     1     2   511     0 -1.151703149E+01  2.387750028E+00  1.008595892E+03  1.008664526E+03  3.300000131E-01  0.00000E+00  9.000E+00
      21     1     1     2   513   512  1.082429596E+01  1.581109572E+00 -2.151276847E+01  2.413430127E+01  1.011524364E-06  0.00000E+00  9.000E+00
</event>
<event>
      5  10001  2.40292E+09  2.54552E+00 -1.00000E+00  3.20179E-01
       2    -1     0     0   515     0  0.000000000E+00  0.000000000E+00  2.099657425E+02  2.099657425E+02  0.000000000E+00  0.00000E+00  9.000E+00
      21    -1     0     0   512   515  0.000000000E+00  0.000000000E+00 -2.279453824E+01  2.279453824E+01  0.000000000E+00  0.00000E+00  9.000E+00
      -5     1     1     2     0   513 -9.244014616E+00 -3.837669724E+00 -1.796416059E+01  2.111706851E+01  4.800000191E+00  0.00000E+00  9.000E+00
       5     1     1     2   512     0  9.580983252E+00  6.341179473E+00  8.696866995E+00  1.518819590E+01  4.800000191E+00  0.00000E+00  9.000E+00
       2     1     1     2   513     0 -3.369686359E-01 -2.503509749E+00  1.964384979E+02  1.964550164E+02  3.300000131E-01  0.00000E+00  9.000E+00
</event>
<event>
      5  10001  2.40292E+09  5.44156E+00 -1.00000E+00  2.32186E-01
      21    -1     0     0   511   512  0.000000000E+00  0.000000000E+00  1.385022814E+02  1.385022814E+02  0.000000000E+00  0.00000E+00  9.000E+00
      21    -1     0     0   515   511  0.000000000E+00  0.000000000E+00 -8.197816788E+00  8.197816788E+00  0.000000000E+00  0.00000E+00  9.000E+00
      21     1     1     2   514   516  1.144190285E+00 -1.303512923E+01 -1.030363587E+00  1.312575387E+01  5.609253116E-07  0.00000E+00  9.000E+00
      21     1     1     2   516   512  2.931562468E+00  9.429739346E+00  1.242459022E+02  1.246377080E+02  1.348699152E-06  0.00000E+00  9.000E+00
      21     1     1     2   515   514 -4.075752753E+00  3.605389885E+00  7.088925956E+00  8.936636276E+00  1.460009660E-07  0.00000E+00  9.000E+00
</event>
<event>
      5  10001  2.40292E+09  8.54716E+00 -1.00000E+00  2.03920E-01
      21    -1     0     0   513   516  0.000000000E+00  0.000000000E+00  4.617208385E+02  4.617208385E+02  0.000000000E+00  0.00000E+00  9.000E+00
      21    -1     0     0   515   513  0.000000000E+00  0.000000000E+00 -1.673234958E+02  1.673234958E+02  0.000000000E+00  0.00000E+00  9.000E+00
      21     1     1     2   515   514 -1.091879150E+01  4.504489585E+00 -1.668917191E+02  1.673091639E+02  0.000000000E+00  0.00000E+00  9.000E+00
      21     1     1     2   514   511  1.896158567E+00 -3.792635575E+00  3.643140569E+02  3.643387319E+02  1.078959322E-05  0.00000E+00  9.000E+00
      21     1     1     2   511   516  9.022632935E+00 -7.118540099E-01  9.697500497E+01  9.739643849E+01  1.348699152E-06  0.00000E+00  9.000E+00
</event>
<event>
      5  10001  2.40292E+09  3.84363E+00 -1.00000E+00  2.67507E-01
      21    -1     0     0   512   514  0.000000000E+00  0.000000000E+00  1.905667530E+00  1.905667530E+00  0.000000000E+00  0.00000E+00  9.000E+00
       1    -1     0     0   516     0  0.000000000E+00  0.000000000E+00 -4.951668062E+02  4.951668062E+02  0.000000000E+00  0.00000E+00  9.000E+00
      21     1     1     2   516   515  2.795459139E+00  8.183072843E+00 -9.076475826E+01  9.117575673E+01  1.348699152E-06  0.00000E+00  9.000E+00
      21     1     1     2   515   514 -2.426824879E+00 -1.200883717E+01 -2.050831917E+01  2.388917755E+01  5.840038640E-07  0.00000E+00  9.000E+00
       1     1     1     2   512     0 -3.686342597E-01  3.825764323E+00 -3.819880612E+02  3.820075394E+02  3.300000131E-01  0.00000E+00  9.000E+00
</event>
<event>
      5  10001  2.40292E+09  4.68582E+00 -1.00000E+00  2.48167E-01
      21    -1     0     0   511   515  0.000000000E+00  0.000000000E+00  1.907340999E+02  1.907340999E+02  0.000000000E+00  0.00000E+00  9.000E+00
      21    -1     0     0   516   513  0.000000000E+00  0.000000000E+00 -6.071064212E+00  6.071064212E+00  0.000000000E+00  0.00000E+00  9.000E+00
      21     1     1     2   511   513 -9.813329666E+00  2.863129888E+00 -1.450368632E+00  1.032484969E+01  5.824810352E-07  0.00000E+00  9.000E+00
      21     1     1     2   514   515  4.103401400E+00  3.271567841E-01  1.129918299E+02  1.130667881E+02  1.907348633E-06  0.00000E+00  9.000E+00
      21     1     1     2   516   514  5.709928265E+00 -3.190286672E+00  7.312157443E+01  7.341352639E+01  1.348699152E-06  0.00000E+00  9.000E+00
</event>
<event>
      5  10001  2.40292E+09  7.10430E+00 -1.00000E+00  2.14579E-01
      21    -1     0     0   516   514  0.000000000E+00  0.000000000E+00  2.081945014E+02  2.081945014E+02  0.000000000E+00  0.00000E+00  9.000E+00
      -5    -1     0     0     0   512  0.000000000E+00  0.000000000E+00 -4.003607966E+01  4.003607966E+01  0.000000000E+00  0.00000E+00  9.000E+00
      -5     1     1     2     0   511 -3.576709260E+00 -6.820322454E+00 -3.250096520E+01  3.374407189E+01  4.800000191E+00  0.00000E+00  9.000E+00
      21     1     1     2   516   512  1.030586670E+00  1.425096738E+01  2.050100396E+02  2.055073442E+02  2.697398305E-06  0.00000E+00  9.000E+00
      21     1     1     2   511   514  2.546122590E+00 -7.430644930E+00 -4.350652694E+00  8.979164949E+00  1.032382731E-07  0.00000E+00  9.000E+00
</event>
<event>
      5  10001  2.40292E+09  5.80262E+00 -1.00000E+00  2.27672E-01
      21    -1     0     0   513   515  0.000000000E+00  0.000000000E+00  7.639682678E+01  7.639682678E+01  0.000000000E+00  0.00000E+00  9.000E+00
      21    -1     0     0   511   514  0.000000000E+00  0.000000000E+00 -2.404327849E+00  2.404327849E+00  0.000000000E+00  0.00000E+00  9.000E+00
      21     1     1     2   513   514 -6.996997976E+00  7.412134349E+00  5.476398287E+01  5.570450193E+01  6.743495762E-07  0.00000E+00  9.000E+00
      -1     1     1     2     0   515  3.575137366E+00 -3.444846138E+00  2.509173105E+00  5.572559715E+00  3.300000131E-01  0.00000E+00  9.000E+00
       1     1     1     2   511     0  3.421860609E+00 -3.967288212E+00  1.671934296E+01  1.752409298E+01  3.300000131E-01  0.00000E+00  9.000E+00
</event>
<event>
      5  10001  2.40292E+09  6.62298E+00 -1.00000E+00  2.18935E-01
       4    -1     0     0   513     0  0.000000000E+00  0.000000000E+00  8.026888119E+01  8.026888119E+01  0.000000000E+00  0.00000E+00  9.000E+00
       2    -1     0     0   516     0  0.000000000E+00  0.000000000E+00 -2.008786242E+02  2.008786242E+02  0.000000000E+00  0.00000E+00  9.000E+00
      21     1     1     2   516   512  1.063144121E+01  1.436530402E+01  3.428827348E+01  3.866620229E+01  8.259061849E-07  0.00000E+00  9.000E+00
       4     1     1     2   512     0 -5.445125408E+00 -1.024701451E+01  4.295356500E+01  4.451864153E+01  1.500000000E+00  0.00000E+00  9.000E+00
       2     1     1     2   513     0 -5.186315802E+00 -4.118289504E+00 -1.978515815E+02  1.979626616E+02  3.300000131E-01  0.00000E+00  9.000E+00
</event>
<event>
      5  10001  2.40292E+09  8.33187E+00 -1.00000E+00  2.05324E-01
      21    -1     0     0   512   514  0.000000000E+00  0.000000000E+00  5.933854986E+01  5.933854986E+01  0.000000000E+00  0.00000E+00  9.000E+00
      21    -1     0     0   511   513  0.000000000E+00  0.000000000E+00 -1.606950642E+01  1.606950642E+01  0.000000000E+00  0.00000E+00  9.000E+00
      21     1     1     2   512   513  8.845530991E+00 -8.659349890E+00 -2.935118933E+00  1.272174053E+01  3.650024150E-07  0.00000E+00  9.000E+00
       5     1     1     2   511     0 -8.148028169E-01  1.022176101E+01 -3.682527079E+00  1.190585189E+01  4.800000191E+00  0.00000E+00  9.000E+00
      -5     1     1     2     0   514 -8.030728174E+00 -1.562411123E+00  4.988668945E+01  5.078046386E+01  4.800000191E+00  0.00000E+00  9.000E+00
</event>
<event>
      5  10001  2.40292E+09  1.50606E+01 -1.00000E+00  1.77171E-01
      -4    -1     0     0     0   514  0.000000000E+00  0.000000000E+00  2.859390339E+01  2.859390339E+01  0.000000000E+00  0.00000E+00  9.000E+00
      21    -1     0     0   512   515  0.000000000E+00  0.000000000E+00 -3.980108954E+00  3.980108954E+00  0.000000000E+00  0.00000E+00  9.000E+00
      21     1     1     2   511   515 -2.037569348E+00  6.400666791E+00  2.423745765E+00  7.141062088E+00  1.228781231E-07  0.00000E+00  9.000E+00
      21     1     1     2   512   514  4.514758757E+00 -2.015402732E+00  3.604198713E+00  6.118426527E+00  1.976862425E-07  0.00000E+00  9.000E+00
      -4     1     1     2     0   511 -2.477189409E+00 -4.385264059E+00  1.858584996E+01  1.931452373E+01  1.500000000E+00  0.00000E+00  9.000E+00
</event>
<event>
      5  10001  2.40292E+09  1.15586E+01 -1.00000E+00  1.88701E-01
      21    -1     0     0   513   512  0.000000000E+00  0.000000000E+00  8.854255835E+02  8.854255835E+02  0.000000000E+00  0.00000E+00  9.000E+00
      21    -1     0     0   511   513  0.000000000E+00  0.000000000E+00 -3.896225102E+00  3.896225102E+00  0.000000000E+00  0.00000E+00  9.000E+00
      21     1     1     2   514   512  3.509063700E+00  1.195956251E+00  7.133372490E+02  7.133468824E+02  1.321449896E-05  0.00000E+00  9.000E+00
       4     1     1     2   511     0 -3.211191489E+00 -1.176922194E+01  6.450942476E+00  1.388131819E+01  1.500000000E+00  0.00000E+00  9.000E+00
      -4     1     1     2     0   514 -2.978722109E-01  1.057326569E+01  1.617411669E+02  1.620936080E+02  1.500000000E+00  0.00000E+00  9.000E+00
</event>
<event>
      5  10001  2.40292E+09  7.20875E+00 -1.00000E+00  2.13695E-01
      21    -1     0     0   515   511  0.000000000E+00  0.000000000E+00  5.729393700E+01  5.729393700E+01  0.000000000E+00  0.00000E+00  9.000E+00
      21    -1     0     0   512   514  0.000000000E+00  0.000000000E+00 -2.351350944E+01  2.351350944E+01  0.000000000E+00  0.00000E+00  9.000E+00
      21     1     1     2   515   514 -1.151296046E+01  1.017081451E+01 -1.955210559E+01  2.486520781E+01  4.129530925E-07  0.00000E+00  9.000E+00
      21     1     1     2   513   511  5.056218949E+00 -8.298418729E+00  2.497894680E+01  2.680255373E+01  0.000000000E+00  0.00000E+00  9.000E+00
      21     1     1     2   512   513  6.456741516E+00 -1.872395785E+00  2.835358635E+01  2.913968490E+01  0.000000000E+00  0.00000E+00  9.000E+00
</event>
<event>
      5  10001  2.40292E+09  6.71264E+00 -1.00000E+00  2.18086E-01
      21    -1     0     0   516   513  0.000000000E+00  0.000000000E+00  2.440947462E+01  2.440947462E+01  0.000000000E+00  0.00000E+00  9.000E+00
      21    -1     0     0   512   511  0.000000000E+00  0.000000000E+00 -2.316688063E+02  2.316688063E+02  0.000000000E+00  0.00000E+00  9.000E+00
      21     1     1     2   516   517 -5.393800521E-02  1.208808842E+01  2.095984843E+01  2.419586819E+01  4.768371582E-07  0.00000E+00  9.000E+00
      21     1     1     2   512   513 -6.447393939E+00 -1.375908665E+01 -3.075150015E+01  3.430067223E+01  0.000000000E+00  0.00000E+00  9.000E+00
      21     1     1     2   517   511  6.501331945E+00  1.670998232E+00 -1.974676800E+02  1.975817405E+02  3.814697266E-06  0.00000E+00  9.000E+00
</event>
<event>
      5  10001  2.40292E+09  2.75658E+00 -1.00000E+00  3.08333E-01
      21    -1     0     0   514   515  0.000000000E+00  0.000000000E+00  7.217812287E+01  7.217812287E+01  0.000000000E+00  0.00000E+00  9.000E+00
       1    -1     0     0   513     0  0.000000000E+00  0.000000000E+00 -6.419966201E+01  6.419966201E+01  0.000000000E+00  0.00000E+00  9.000E+00
      21     1     1     2   513   512 -6.041439822E+00  9.267386293E+00 -3.541041085E+01  3.709825657E+01  8.259061849E-07  0.00000E+00  9.000E+00
       1     1     1     2   514     0  3.364617859E+00 -8.609246658E+00 -2.715234943E+01  2.868446898E+01  3.300000131E-01  0.00000E+00  9.000E+00
      21     1     1     2   512   515  2.676821963E+00 -6.581396343E-01  7.054122114E+01  7.059505934E+01  9.536743164E-07  0.00000E+00  9.000E+00
</event>
<event>
      5  10001  2.40292E+09  1.25702E+01 -1.00000E+00  1.84881E-01
      21    -1     0     0   513   515  0.000000000E+00  0.000000000E+00  1.371249438E+01  1.371249438E+01  0.000000000E+00  0.00000E+00  9.000E+00
      -1    -1     0     0     0   511  0.000000000E+00  0.000000000E+00 -4.747533410E+01  4.747533410E+01  0.000000000E+00  0.00000E+00  9.000E+00
      -1     1     1     2     0   515  9.899629036E+00  1.406939359E+01  4.360853440E+00  1.775039250E+01  3.300000131E-01  0.00000E+00  9.000E+00
      21     1     1     2   514   511  5.505607865E-01 -9.263153519E+00 -1.830263139E+01  2.052061027E+01  2.384185791E-07  0.00000E+00  9.000E+00
      21     1     1     2   513   514 -1.045018982E+01 -4.806240074E+00 -1.982106177E+01  2.291682571E+01  3.371747881E-07  0.00000E+00  9.000E+00
</event>
<event>
      5  10001  2.40292E+09  1.63383E+00 -1.00000E+00  4.09455E-01
      21    -1     0     0   512   515  0.000000000E+00  0.000000000E+00  4.409964156E-01  4.409964156E-01  0.000000000E+00  0.00000E+00  9.000E+00
      21    -1     0     0   516   512  0.000000000E+00  0.000000000E+00 -9.872773826E+02  9.872773826E+02  0.000000000E+00  0.00000E+00  9.000E+00
      21     1     1     2   514   511 -7.775024380E+00 -9.888408642E+00 -1.749999834E+02  1.754514914E+02  4.672030912E-06  0.00000E+00  9.000E+00
      21     1     1     2   516   514  6.895170633E+00  8.511726244E+00 -8.082681147E+02  8.083423396E+02  1.525878906E-05  0.00000E+00  9.000E+00
      21     1     1     2   511   515  8.798537477E-01  1.376682398E+00 -3.568288056E+00  3.924547960E+00  4.150983178E-07  0.00000E+00  9.000E+00
</event>
<event>
      5  10001  2.40292E+09  2.14354E+00 -1.00000E+00  3.49388E-01
       2    -1     0     0   511     0  0.000000000E+00  0.000000000E+00  5.841739207E+00  5.841739207E+00  0.000000000E+00  0.00000E+00  9.000E+00
      21    -1     0     0   514   512  0.000000000E+00  0.000000000E+00 -4.314003939E+01  4.314003939E+01  0.000000000E+00  0.00000E+00  9.000E+00
      21     1     1     2   511   512 -8.928221414E+00  3.533911623E+00 -1.443825160E+01  1.733968795E+01  2.920019320E-07  0.00000E+00  9.000E+00
       2     1     1     2   513     0  1.011601092E+01 -5.317958011E+00 -3.209990432E+00  1.187549127E+01  3.300000131E-01  0.00000E+00  9.000E+00
      21     1     1     2   514   513 -1.187789509E+00  1.784046387E+00 -1.965005815E+01  1.976659937E+01  3.371747881E-07  0.00000E+00  9.000E+00
</event>
<event>
      5  10001  2.40292E+09  2.98556E+00 -1.00000E+00  2.97365E-01
      21    -1     0     0   511   513  0.000000000E+00  0.000000000E+00  1.066254874E+02  1.066254874E+02  0.000000000E+00  0.00000E+00  9.000E+00
       1    -1     0     0   515     0  0.000000000E+00  0.000000000E+00 -1.314267619E+02  1.314267619E+02  0.000000000E+00  0.00000E+00  9.000E+00
      21     1     1     2   515   513 -9.113316573E+00  7.108422725E+00  8.130540297E+01  8.212277860E+01  3.015782986E-06  0.00000E+00  9.000E+00
       1     1     1     2   514     0  7.548748959E+00 -9.651186226E+00 -1.306407076E+02  1.312144519E+02  3.300000131E-01  0.00000E+00  9.000E+00
      21     1     1     2   511   514  1.564567614E+00  2.542763501E+00  2.453403011E+01  2.471501874E+01  0.000000000E+00  0.00000E+00  9.000E+00
</event>
<event>
      5  10001  2.40292E+09  2.49065E+00 -1.00000E+00  3.23590E-01
       2    -1     0     0   514     0  0.000000000E+00  0.000000000E+00  3.846939940E+01  3.846939940E+01  0.000000000E+00  0.00000E+00  9.000E+00
      21    -1     0     0   513   514  0.000000000E+00  0.000000000E+00 -9.222216988E+00  9.222216988E+00  0.000000000E+00  0.00000E+00  9.000E+00
      21     1     1     2   512   511 -7.559189256E+00 -1.030072401E+01  1.496148220E+01  1.967465900E+01  2.384185791E-07  0.00000E+00  9.000E+00
       2     1     1     2   511     0  9.008642140E+00  8.275595037E+00  1.904953542E+01  2.264144002E+01  3.300000131E-01  0.00000E+00  9.000E+00
      21     1     1     2   513   512 -1.449452884E+00  2.025128969E+00 -4.763835211E+00  5.375517363E+00  1.032382731E-07  0.00000E+00  9.000E+00
</event>
<event>
      5  10001  2.40292E+09  1.33898E+01 -1.00000E+00  1.82109E-01
      -1    -1     0     0     0   512  0.000000000E+00  0.000000000E+00  3.944597917E+01  3.944597917E+01  0.000000000E+00  0.00000E+00  9.000E+00
      -1    -1     0     0     0   514  0.000000000E+00  0.000000000E+00 -5.486465409E+00  5.486465409E+00  0.000000000E+00  0.00000E+00  9.000E+00
      -1     1     1     2     0   514 -2.217345878E+00  8.155350364E+00  1.107824233E+01  1.393781602E+01  3.300000131E-01  0.00000E+00  9.000E+00
      21     1     1     2   511   512  4.048621986E-01 -1.293167866E+01  7.891531521E+00  1.515481759E+01  1.460009660E-07  0.00000E+00  9.000E+00
      -1     1     1     2     0   511  1.812483680E+00  4.776328293E+00  1.498973992E+01  1.583981098E+01  3.300000131E-01  0.00000E+00  9.000E+00
</event>
<event>
      5  10001  2.40292E+09  6.39883E+00 -1.00000E+00  2.21142E-01
      21    -1     0     0   513   515  0.000000000E+00  0.000000000E+00  5.981738365E+00  5.981738365E+00  0.000000000E+00  0.00000E+00  9.000E+00
      -3    -1     0     0     0   513  0.000000000E+00  0.000000000E+00 -1.165978853E+02  1.165978853E+02  0.000000000E+00  0.00000E+00  9.000E+00
      -3     1     1     2     0   514 -2.274869177E+00 -1.076731101E+01 -9.648376488E+01  9.711064257E+01  5.000000000E-01  0.00000E+00  9.000E+00
      21     1     1     2   512   515 -2.051607457E+00  9.525877899E+00  8.918248693E-01  9.785029100E+00  1.618680431E-07  0.00000E+00  9.000E+00
      21     1     1     2   514   512  4.326476634E+00  1.241433111E+00 -1.502420692E+01  1.568395198E+01  3.371747881E-07  0.00000E+00  9.000E+00
</event>
<event>
      5  10001  2.40292E+09  4.97358E+00 -1.00000E+00  2.42911E-01
      21    -1     0     0   512   514  0.000000000E+00  0.000000000E+00  2.099270299E+01  2.099270299E+01  0.000000000E+00  0.00000E+00  9.000E+00
       4    -1     0     0   514     0  0.000000000E+00  0.000000000E+00 -1.113696668E+01  1.113696668E+01  0.000000000E+00  0.00000E+00  9.000E+00
       4     1     1     2   512     0 -6.830553706E-01 -9.631187794E+00  1.441004714E+01  1.741050837E+01  1.500000000E+00  0.00000E+00  9.000E+00
       4     1     1     2   511     0 -2.288321891E+00  8.595188670E+00 -6.117222665E+00  1.089881179E+01  1.500000000E+00  0.00000E+00  9.000E+00
      -4     1     1     2     0   511  2.971377261E+00  1.035999124E+00  1.562911829E+00  3.820349512E+00  1.500000000E+00  0.00000E+00  9.000E+00
</event>
<event>
      5  10001  2.40292E+09  6.49242E+00 -1.00000E+00  2.20206E-01
       3    -1     0     0   513     0  0.000000000E+00  0.000000000E+00  1.795113878E+01  1.795113878E+01  0.000000000E+00  0.00000E+00  9.000E+00
       2    -1     0     0   514     0  0.000000000E+00  0.000000000E+00 -9.867357513E+01  9.867357513E+01  0.000000000E+00  0.00000E+00  9.000E+00
       2     1     1     2   513     0  4.779355312E+00  1.021280067E+01 -8.300559361E+01  8.376861587E+01  3.300000131E-01  0.00000E+00  9.000E+00
       3     1     1     2   512     0 -1.126029806E+01 -9.832980941E+00  1.333481282E+01  2.003868907E+01  5.000000000E-01  0.00000E+00  9.000E+00
      21     1     1     2   514   512  6.480942744E+00 -3.798197289E-01 -1.105165556E+01  1.281740896E+01  2.064765462E-07  0.00000E+00  9.000E+00
</event>
<event>
      5  10001  2.40292E+09  6.30580E+00 -1.00000E+00  2.22094E-01
      21    -1     0     0   511   512  0.000000000E+00  0.000000000E+00  7.819430002E+01  7.819430002E+01  0.000000000E+00  0.00000E+00  9.000E+00
      21    -1     0     0   514   513  0.000000000E+00  0.000000000E+00 -6.146265054E+01  6.146265054E+01  0.000000000E+00  0.00000E+00  9.000E+00
      21     1     1     2   511   515 -7.412996186E+00  4.949812840E+00  7.508466943E+01  7.561190874E+01  1.651812370E-06  0.00000E+00  9.000E+00
      21     1     1     2   514   512  1.026212853E+01 -1.057525643E+01 -1.828467744E+01  2.348354232E+01  0.000000000E+00  0.00000E+00  9.000E+00
      21     1     1     2   515   513 -2.849132347E+00  5.625443591E+00 -4.006834251E+01  4.056149950E+01  0.000000000E+00  0.00000E+00  9.000E+00
</event>
<event>
      5  10001  2.40292E+09  4.74011E+00 -1.00000E+00  2.47132E-01
       1    -1     0     0   514     0  0.000000000E+00  0.000000000E+00  6.670885474E+01  6.670885474E+01  0.000000000E+00  0.00000E+00  9.000E+00
      21    -1     0     0   516   511  0.000000000E+00  0.000000000E+00 -8.590239961E+01  8.590239961E+01  0.000000000E+00  0.00000E+00  9.000E+00
      21     1     1     2   514   513 -9.173686602E+00  2.914069801E+00 -2.518132595E+00  9.949337689E+00  4.683802618E-07  0.00000E+00  9.000E+00
       1     1     1     2   516     0  8.873523475E+00 -7.644639253E+00  6.237679039E+01  6.346773045E+01  3.300000131E-01  0.00000E+00  9.000E+00
      21     1     1     2   513   511  3.001631264E-01  4.730569452E+00 -7.905220267E+01  7.919418622E+01  9.536743164E-07  0.00000E+00  9.000E+00
</event>
<event>
      5  10001  2.40292E+09  3.77957E+00 -1.00000E+00  2.69295E-01
      21    -1     0     0   511   512  0.000000000E+00  0.000000000E+00  5.477745682E+01  5.477745682E+01  0.000000000E+00  0.00000E+00  9.000E+00
      -3    -1     0     0     0   511  0.000000000E+00  0.000000000E+00 -8.235259594E+00  8.235259594E+00  0.000000000E+00  0.00000E+00  9.000E+00
      -3     1     1     2     0   515  7.373605074E+00  2.149842404E+00 -1.873268631E+00  7.921553478E+00  5.000000000E-01  0.00000E+00  9.000E+00
      21     1     1     2   514   512 -8.331348835E+00 -5.317388462E+00  5.031432418E+01  5.127589308E+01  6.743495762E-07  0.00000E+00  9.000E+00
      21     1     1     2   515   514  9.577437610E-01  3.167546058E+00 -1.898858323E+00  3.815269855E+00  1.896608183E-07  0.00000E+00  9.000E+00
</event>
<event>
      5  10001  2.40292E+09  6.98185E+00 -1.00000E+00  2.15642E-01
      21    -1     0     0   513   514  0.000000000E+00  0.000000000E+00  1.498171033E+02  1.498171033E+02  0.000000000E+00  0.00000E+00  9.000E+00
      21    -1     0     0   515   511  0.000000000E+00  0.000000000E+00 -1.055616656E+02  1.055616656E+02  0.000000000E+00  0.00000E+00  9.000E+00
      21     1     1     2   513   516  4.579313881E+00 -1.099121447E+01  1.080086999E+02  1.086630396E+02  0.000000000E+00  0.00000E+00  9.000E+00
      21     1     1     2   515   514 -1.464342907E+00  1.723967457E+01  3.955413124E+01  4.317267628E+01  0.000000000E+00  0.00000E+00  9.000E+00
      21     1     1     2   516   511 -3.114970974E+00 -6.248460105E+00 -1.033073935E+02  1.035430531E+02  0.000000000E+00  0.00000E+00  9.000E+00
</event>
<event>
      5  10001  2.40292E+09  5.25182E+00 -1.00000E+00  2.34762E-01
      21    -1     0     0   512   511  0.000000000E+00  0.000000000E+00  3.692829122E+00  3.692829122E+00  0.000000000E+00  0.00000E+00  9.000E+00
      21    -1     0     0   516   517  0.000000000E+00  0.000000000E+00 -7.993265046E+02  7.993265046E+02  0.000000000E+00  0.00000E+00  9.000E+00
      21     1     1     2   512   517 -2.782930736E+00 -9.488853077E+00 -3.417986261E+00  1.046258411E+01  6.377975511E-07  0.00000E+00  9.000E+00
      21     1     1     2   513   511  1.715641401E+00  1.261335422E+01 -7.692113335E+02  7.693166551E+02  1.525878906E-05  0.00000E+00  9.000E+00
      21     1     1     2   516   513  1.067289334E+00 -3.124501142E+00 -2.300435567E+01  2.324009453E+01  3.371747881E-07  0.00000E+00  9.000E+00
</event>
<event>
      5  10001  2.40292E+09  1.38591E+01 -1.00000E+00  1.80633E-01
      21    -1     0     0   514   513  0.000000000E+00  0.000000000E+00  1.999817514E+01  1.999817514E+01  0.000000000E+00  0.00000E+00  9.000E+00
      21    -1     0     0   515   514  0.000000000E+00  0.000000000E+00 -3.804653729E+01  3.804653729E+01  0.000000000E+00  0.00000E+00  9.000E+00
      21     1     1     2   515   516  4.897810091E+00  1.108275393E+01 -2.958416378E+01  3.196934039E+01  0.000000000E+00  0.00000E+00  9.000E+00
      21     1     1     2   516   511 -7.819754891E+00 -1.456952392E+00  1.364771142E+01  1.579655987E+01  5.057621821E-07  0.00000E+00  9.000E+00
      21     1     1     2   511   513  2.921944800E+00 -9.625801533E+00 -2.111909781E+00  1.027881216E+01  2.107342426E-07  0.00000E+00  9.000E+00
</event>
<event>
      5  10001  2.40292E+09  3.79192E+00 -1.00000E+00  2.68946E-01
      21    -1     0     0   512   516  0.000000000E+00  0.000000000E+00  1.160200032E+01  1.160200032E+01  0.000000000E+00  0.00000E+00  9.000E+00
      21    -1     0     0   515   513  0.000000000E+00  0.000000000E+00 -1.424703011E+01  1.424703011E+01  0.000000000E+00  0.00000E+00  9.000E+00
      21     1     1     2   512   513  8.367277281E+00 -5.798013377E+00 -8.747602615E+00  1.342195365E+01  1.685873940E-07  0.00000E+00  9.000E+00
      21     1     1     2   514   516 -5.413068495E+00  1.859070311E+00  2.152727762E+00  6.114874469E+00  6.664001875E-08  0.00000E+00  9.000E+00
      21     1     1     2   515   514 -2.954208786E+00  3.938943066E+00  3.949845067E+00  6.312202316E+00  9.424321831E-08  0.00000E+00  9.000E+00
</event>
<event>
      5  10001  2.40292E+09  1.24948E+01 -1.00000E+00  1.85150E-01
      21    -1     0     0   511   512  0.000000000E+00  0.000000000E+00  3.400184948E+00  3.400184948E+00  0.000000000E+00  0.00000E+00  9.000E+00
      21    -1     0     0   515   511  0.000000000E+00  0.000000000E+00 -4.278132313E+02  4.278132313E+02  0.000000000E+00  0.00000E+00  9.000E+00
      21     1     1     2   514   516  1.813886648E+01  6.209400010E+00 -3.476376768E+01  3.970005880E+01  1.168007728E-06  0.00000E+00  9.000E+00
      21     1     1     2   515   514 -5.663136884E+00 -6.898634960E+00 -3.458913967E+02  3.460065326E+02  6.607249480E-06  0.00000E+00  9.000E+00
      21     1     1     2   516   512 -1.247572959E+01  6.892349496E-01 -4.375788194E+01  4.550682482E+01  1.066240300E-06  0.00000E+00  9.000E+00
</event>
<event>
      5  10001  2.40292E+09  1.57215E+01 -1.00000E+00  1.75436E-01
      21    -1     0     0   513   512  0.000000000E+00  0.000000000E+00  1.783323007E+00  1.783323007E+00  0.000000000E+00  0.00000E+00  9.000E+00
      -2    -1     0     0     0   513  0.000000000E+00  0.000000000E+00 -6.220807287E+01  6.220807287E+01  0.000000000E+00  0.00000E+00  9.000E+00
      -2     1     1     2     0   511  3.096251133E+00  1.283472916E+00 -7.816041190E+00  8.510785727E+00  3.300000131E-01  0.00000E+00  9.000E+00
       2     1     1     2   511     0 -7.964729735E+00  2.323269688E-01 -1.115146423E+01  1.370966630E+01  3.300000131E-01  0.00000E+00  9.000E+00
      -2     1     1     2     0   512  4.868478602E+00 -1.515799885E+00 -4.145724444E+01  4.177094385E+01  3.300000131E-01  0.00000E+00  9.000E+00
</event>
<event>
      5  10001  2.40292E+09  4.53917E+01 -1.00000E+00  1.41485E-01
       3    -1     0     0   514     0  0.000000000E+00  0.000000000E+00  3.917636592E+02  3.917636592E+02  0.000000000E+00  0.00000E+00  9.000E+00
      21    -1     0     0   515   512  0.000000000E+00  0.000000000E+00 -3.178933781E+02  3.178933781E+02  0.000000000E+00  0.00000E+00  9.000E+00
      21     1     1     2   514   512  3.856432009E+01 -6.600952734E+00  1.979822461E+01  4.384916257E+01  2.770173559E-06  0.00000E+00  9.000E+00
      21     1     1     2   515   511  5.917760994E+00  1.564267845E+01 -3.042060456E+02  3.046654419E+02  6.607249480E-06  0.00000E+00  9.000E+00
       3     1     1     2   511     0 -4.448208108E+01 -9.041725711E+00  3.582781022E+02  3.611424329E+02  5.000000000E-01  0.00000E+00  9.000E+00
</event>
<event>
      5  10001  2.40292E+09  9.16537E+00 -1.00000E+00  2.00176E-01
      -2    -1     0     0     0   513  0.000000000E+00  0.000000000E+00  6.477739985E+00  6.477739985E+00  0.000000000E+00  0.00000E+00  9.000E+00
      21    -1     0     0   513   514  0.000000000E+00  0.000000000E+00 -7.953522044E+01  7.953522044E+01  0.000000000E+00  0.00000E+00  9.000E+00
      -2     1     1     2     0   511  8.796230435E+00  8.184798133E+00 -2.404235421E+00  1.225780724E+01  3.300000131E-01  0.00000E+00  9.000E+00
      21     1     1     2   512   514 -9.804854497E+00 -3.190977122E+00 -6.617066471E+01  6.696920468E+01  9.536743164E-07  0.00000E+00  9.000E+00
      21     1     1     2   511   512  1.008624062E+00 -4.993821012E+00 -4.482580319E+00  6.785948505E+00  1.332800375E-07  0.00000E+00  9.000E+00
</event>
<event>
      5  10001  2.40292E+09  7.48190E+00 -1.00000E+00  2.11478E-01
      21    -1     0     0   515   512  0.000000000E+00  0.000000000E+00  4.403095963E+01  4.403095963E+01  0.000000000E+00  0.00000E+00  9.000E+00
      21    -1     0     0   511   516  0.000000000E+00  0.000000000E+00 -4.056181331E+00  4.056181331E+00  0.000000000E+00  0.00000E+00  9.000E+00
      21     1     1     2   515   516  8.462754741E+00 -3.077809389E+00  2.703614974E+01  2.849639488E+01  3.371747881E-07  0.00000E+00  9.000E+00
       5     1     1     2   511     0 -5.664016557E+00 -1.364217284E+00  7.448936237E+00  1.060513202E+01  4.800000191E+00  0.00000E+00  9.000E+00
      -5     1     1     2     0   512 -2.798738184E+00  4.442026673E+00  5.489692328E+00  8.985614063E+00  4.800000191E+00  0.00000E+00  9.000E+00
</event>
<event>
      5  10001  2.40292E+09  6.83209E+00 -1.00000E+00  2.16982E-01
      21    -1     0     0   513   511  0.000000000E+00  0.000000000E+00  4.852480973E+01  4.852480973E+01  0.000000000E+00  0.00000E+00  9.000E+00
      21    -1     0     0   512   513  0.000000000E+00  0.000000000E+00 -6.310505348E+01  6.310505348E+01  0.000000000E+00  0.00000E+00  9.000E+00
      21     1     1     2   512   514 -2.264034484E+01 -1.425084750E+00 -5.773909588E+01  6.203562907E+01  0.000000000E+00  0.00000E+00  9.000E+00
      21     1     1     2   514   515  1.300621397E+01  4.952649526E+00  2.830712798E+01  3.154336433E+01  3.371747881E-07  0.00000E+00  9.000E+00
      21     1     1     2   515   511  9.634130865E+00 -3.527564776E+00  1.485172415E+01  1.805086981E+01  0.000000000E+00  0.00000E+00  9.000E+00
</event>
<event>
      5  10001  2.40292E+09  1.10828E+01 -1.00000E+00  1.90678E-01
      -3    -1     0     0     0   511  0.000000000E+00  0.000000000E+00  5.686151130E+00  5.686151130E+00  0.000000000E+00  0.00000E+00  9.000E+00
      21    -1     0     0   511   513  0.000000000E+00  0.000000000E+00 -6.270759631E+01  6.270759631E+01  0.000000000E+00  0.00000E+00  9.000E+00
      -3     1     1     2     0   514  5.293810070E+00  2.032600672E+00 -8.590498698E-02  5.693265338E+00  5.000000000E-01  0.00000E+00  9.000E+00
      21     1     1     2   512   513 -3.310006933E+00 -1.119743856E+01 -4.913404137E+01  5.050240388E+01  6.743495762E-07  0.00000E+00  9.000E+00
      21     1     1     2   514   512 -1.983803137E+00  9.164837890E+00 -7.801498821E+00  1.219807822E+01  2.920019320E-07  0.00000E+00  9.000E+00
</event>
<event>
      5  10001  2.40292E+09  4.29323E+00 -1.00000E+00  2.56333E-01
      21    -1     0     0   513   511  0.000000000E+00  0.000000000E+00  2.780161658E+02  2.780161658E+02  0.000000000E+00  0.00000E+00  9.000E+00
      -4    -1     0     0     0   515  0.000000000E+00  0.000000000E+00 -1.557157622E+00  1.557157622E+00  0.000000000E+00  0.00000E+00  9.000E+00
      -4     1     1     2     0   516  1.370344811E+00  4.287783828E+00  4.369261806E+00  6.450068510E+00  1.500000000E+00  0.00000E+00  9.000E+00
      21     1     1     2   513   515 -2.211560128E+00 -9.866749533E+00  2.533714621E+02  2.535731483E+02  3.814697266E-06  0.00000E+00  9.000E+00
      21     1     1     2   516   511  8.412153169E-01  5.578965705E+00  1.871828433E+01  1.955010664E+01  4.768371582E-07  0.00000E+00  9.000E+00
</event>
<event>
      5  10001  2.40292E+09  8.31790E+00 -1.00000E+00  2.05418E-01
      21    -1     0     0   512   516  0.000000000E+00  0.000000000E+00  5.135139095E+01  5.135139095E+01  0.000000000E+00  0.00000E+00  9.000E+00
      21    -1     0     0   514   513  0.000000000E+00  0.000000000E+00 -1.632284237E+01  1.632284237E+01  0.000000000E+00  0.00000E+00  9.000E+00
      21     1     1     2   512   511 -2.304359762E+00 -1.443878802E+01  3.971484972E+01  4.232089273E+01  0.000000000E+00  0.00000E+00  9.000E+00
      21     1     1     2   514   516  3.457707691E+00  6.201236593E+00  7.674088532E+00  1.045479376E+01  2.528810911E-07  0.00000E+00  9.000E+00
      21     1     1     2   511   513 -1.153347929E+00  8.237551426E+00 -1.236038967E+01  1.489854683E+01  1.685873940E-07  0.00000E+00  9.000E+00
</event>
<event>
      5  10001  2.40292E+09  5.31311E+00 -1.00000E+00  2.33913E-01
      21    -1     0     0   515   513  0.000000000E+00  0.000000000E+00  3.986247619E+00  3.986247619E+00  0.000000000E+00  0.00000E+00  9.000E+00
      21    -1     0     0   512   517  0.000000000E+00  0.000000000E+00 -7.529730253E+01  7.529730253E+01  0.000000000E+00  0.00000E+00  9.000E+00
      21     1     1     2   515   517 -1.112962444E+01  3.571613006E-02 -8.871980158E+00  1.423312502E+01  3.576278687E-07  0.00000E+00  9.000E+00
      21     1     1     2   511   513  1.087668953E+01 -5.342806165E+00 -5.126113284E+01  5.267401345E+01  6.743495762E-07  0.00000E+00  9.000E+00
      21     1     1     2   512   511  2.529349161E-01  5.307090034E+00 -1.117794190E+01  1.237641167E+01  1.192092896E-07  0.00000E+00  9.000E+00
</event>
<event>
      5  10001  2.40292E+09  6.67190E+00 -1.00000E+00  2.18470E-01
      21    -1     0     0   514   513  0.000000000E+00  0.000000000E+00  1.151006734E+02  1.151006734E+02  0.000000000E+00  0.00000E+00  9.000E+00
      21    -1     0     0   515   514  0.000000000E+00  0.000000000E+00 -2.315788124E+02  2.315788124E+02  0.000000000E+00  0.00000E+00  9.000E+00
      21     1     1     2   511   513 -1.398971257E+01  2.827538680E+00  7.618513594E+01  7.751052813E+01  1.348699152E-06  0.00000E+00  9.000E+00
      21     1     1     2   512   511  1.649560350E+01  3.355887009E+00  3.634996931E+01  4.005854692E+01  1.066240300E-06  0.00000E+00  9.000E+00
      21     1     1     2   515   512 -2.505890929E+00 -6.183425689E+00 -2.290132443E+02  2.291104107E+02  0.000000000E+00  0.00000E+00  9.000E+00
</event>
<event>
      5  10001  2.40292E+09  3.39735E+00 -1.00000E+00  2.81259E-01
       4    -1     0     0   511     0  0.000000000E+00  0.000000000E+00  6.326768805E+00  6.326768805E+00  0.000000000E+00  0.00000E+00  9.000E+00
      21    -1     0     0   516   512  0.000000000E+00  0.000000000E+00 -6.413681310E+02  6.413681310E+02  0.000000000E+00  0.00000E+00  9.000E+00
      21     1     1     2   514   512 -2.880449377E+00  1.038613088E+01 -6.209986523E+02  6.210921791E+02  0.000000000E+00  0.00000E+00  9.000E+00
       4     1     1     2   516     0  2.249766095E+00 -1.372329781E+01 -1.705919738E+01  2.206029387E+01  1.500000000E+00  0.00000E+00  9.000E+00
      21     1     1     2   511   514  6.306832825E-01  3.337166935E+00  3.016487539E+00  4.542426843E+00  2.598106231E-07  0.00000E+00  9.000E+00
</event>
<event>
      5  10001  2.40292E+09  5.57069E+00 -1.00000E+00  2.30516E-01
      21    -1     0     0   513   514  0.000000000E+00  0.000000000E+00  1.906654088E+01  1.906654088E+01  0.000000000E+00  0.00000E+00  9.000E+00
      21    -1     0     0   515   513  0.000000000E+00  0.000000000E+00 -5.886226130E+01  5.886226130E+01  0.000000000E+00  0.00000E+00  9.000E+00
      21     1     1     2   516   514  3.420646088E+00  1.026963613E+01  1.666844971E+01  1.987469400E+01  2.384185791E-07  0.00000E+00  9.000E+00
       4     1     1     2   515     0 -1.022717910E+00 -3.515588861E+00 -3.777546119E+01  3.798211138E+01  1.500000000E+00  0.00000E+00  9.000E+00
      -4     1     1     2     0   516 -2.397928178E+00 -6.754047265E+00 -1.868870893E+01  2.007199680E+01  1.500000000E+00  0.00000E+00  9.000E+00
</event>
<event>
      5  10001  2.40292E+09  2.37607E+00 -1.00000E+00  3.31237E-01
       1    -1     0     0   513     0  0.000000000E+00  0.000000000E+00  3.462122329E+02  3.462122329E+02  0.000000000E+00  0.00000E+00  9.000E+00
      21    -1     0     0   511   512  0.000000000E+00  0.000000000E+00 -2.096439085E+00  2.096439085E+00  0.000000000E+00  0.00000E+00  9.000E+00
      21     1     1     2   513   514 -8.819975095E+00  9.323766825E-01  1.113349625E+01  1.423432561E+01  3.576278687E-07  0.00000E+00  9.000E+00
       1     1     1     2   511     0  9.782956486E+00 -2.904434945E+00  3.308727362E+02  3.310302379E+02  3.300000131E-01  0.00000E+00  9.000E+00
      21     1     1     2   514   512 -9.629813917E-01  1.972058263E+00  2.109561398E+00  3.044108449E+00  8.940696716E-08  0.00000E+00  9.000E+00
</event>
<event>
      5  10001  2.40292E+09  1.18297E+01 -1.00000E+00  1.87629E-01
       1    -1     0     0   512     0  0.000000000E+00  0.000000000E+00  1.928256894E+01  1.928256894E+01  0.000000000E+00  0.00000E+00  9.000E+00
      21    -1     0     0   514   512  0.000000000E+00  0.000000000E+00 -8.519056002E+01  8.519056002E+01  0.000000000E+00  0.00000E+00  9.000E+00
      21     1     1     2   514   515  1.413722492E+01 -1.361936623E+01 -7.289668183E+01  7.549353937E+01  1.907348633E-06  0.00000E+00  9.000E+00
      21     1     1     2   515   511 -1.727070421E+01  4.971941570E+00  8.092547368E+00  1.971006722E+01  2.920019320E-07  0.00000E+00  9.000E+00
       1     1     1     2   511     0  3.133479298E+00  8.647424655E+00 -1.103856620E+00  9.269522379E+00  3.300000131E-01  0.00000E+00  9.000E+00
</event>
<event>
      5  10001  2.40292E+09  9.30223E+00 -1.00000E+00  1.99399E-01
      21    -1     0     0   513   515  0.000000000E+00  0.000000000E+00  1.279365369E+02  1.279365369E+02  0.000000000E+00  0.00000E+00  9.000E+00
      21    -1     0     0   514   516  0.000000000E+00  0.000000000E+00 -1.460822795E+01  1.460822795E+01  0.000000000E+00  0.00000E+00  9.000E+00
      21     1     1     2   513   516  1.200862335E+01  7.277907652E+00  1.218276078E+02  1.226341755E+02  1.348699152E-06  0.00000E+00  9.000E+00
      21     1     1     2   512   515 -3.509439867E+00 -8.452403754E+00 -6.110056109E+00  1.100418480E+01  3.475518164E-07  0.00000E+00  9.000E+00
      21     1     1     2   514   512 -8.499183488E+00  1.174496102E+00 -2.389242765E+00  8.906404552E+00  2.230201594E-07  0.00000E+00  9.000E+00
</event>
<event>
      5  10001  2.40292E+09  3.11435E+00 -1.00000E+00  2.91889E-01
      -2    -1     0     0     0   514  0.000000000E+00  0.000000000E+00  3.240853395E+00  3.240853395E+00  0.000000000E+00  0.00000E+00  9.000E+00
       1    -1     0     0   514     0  0.000000000E+00  0.000000000E+00 -1.467897117E+02  1.467897117E+02  0.000000000E+00  0.00000E+00  9.000E+00
      21     1     1     2   512   511  1.193384290E+01 -9.717553023E+00 -5.402618736E+01  5.617540710E+01  0.000000000E+00  0.00000E+00  9.000E+00
       1     1     1     2   511     0 -9.332585552E+00  8.006080233E+00 -8.986713108E+01  9.070504188E+01  3.300000131E-01  0.00000E+00  9.000E+00
      -2     1     1     2     0   512 -2.601257345E+00  1.711472790E+00  3.444601084E-01  3.150116134E+00  3.300000131E-01  0.00000E+00  9.000E+00
</event>
<event>
      5  10001  2.40292E+09  5.12292E+00 -1.00000E+00  2.36601E-01
      21    -1     0     0   513   511  0.000000000E+00  0.000000000E+00  8.778101526E+01  8.778101526E+01  0.000000000E+00  0.00000E+00  9.000E+00
      21    -1     0     0   515   512  0.000000000E+00  0.000000000E+00 -3.191724364E+01  3.191724364E+01  0.000000000E+00  0.00000E+00  9.000E+00
      21     1     1     2   513   512  1.013765056E+01 -1.255618710E+01  8.060309027E+01  8.220272474E+01  2.132480600E-06  0.00000E+00  9.000E+00
      21     1     1     2   514   511 -1.102905534E+01  1.760095386E+01 -2.482944633E+01  3.237182484E+01  4.768371582E-07  0.00000E+00  9.000E+00
      21     1     1     2   515   514  8.914047811E-01 -5.044766765E+00  9.012767677E-02  5.123709320E+00  8.318540705E-08  0.00000E+00  9.000E+00
</event>
<event>
      5  10001  2.40292E+09  5.61742E+00 -1.00000E+00  2.29928E-01
      21    -1     0     0   516   512  0.000000000E+00  0.000000000E+00  4.618173401E+01  4.618173401E+01  0.000000000E+00  0.00000E+00  9.000E+00
      21    -1     0     0   515   517  0.000000000E+00  0.000000000E+00 -3.868479629E+00  3.868479629E+00  0.000000000E+00  0.00000E+00  9.000E+00
      21     1     1     2   516   517  6.723998649E+00  9.798483423E+00  2.057354598E+01  2.375906625E+01  3.371747881E-07  0.00000E+00  9.000E+00
      21     1     1     2   515   511 -6.403786330E+00 -7.166189893E+00  8.632226738E+00  1.291813049E+01  2.665600750E-07  0.00000E+00  9.000E+00
      21     1     1     2   511   512 -3.202123193E-01 -2.632293531E+00  1.310748167E+01  1.337301689E+01  1.685873940E-07  0.00000E+00  9.000E+00
</event>
<event>
      5  10001  2.40292E+09  6.50756E+00 -1.00000E+00  2.20056E-01
      21    -1     0     0   513   515  0.000000000E+00  0.000000000E+00  4.272779082E+01  4.272779082E+01  0.000000000E+00  0.00000E+00  9.000E+00
      21    -1     0     0   514   516  0.000000000E+00  0.000000000E+00 -1.213876086E+01  1.213876086E+01  0.000000000E+00  0.00000E+00  9.000E+00
      21     1     1     2   513   512  7.434340355E-01 -1.708544495E+01  2.986468926E+01  3.441460138E+01  3.371747881E-07  0.00000E+00  9.000E+00
      21     1     1     2   514   515 -5.504807576E+00  1.264949882E+01  1.591441245E+00  1.388687913E+01  4.298152060E-07  0.00000E+00  9.000E+00
      21     1     1     2   512   516  4.761373541E+00  4.435946130E+00 -8.671005465E-01  6.565071166E+00  1.601441596E-07  0.00000E+00  9.000E+00
</event>
<event>
      5  10001  2.40292E+09  8.40818E+00 -1.00000E+00  2.04820E-01
      21    -1     0     0   511   512  0.000000000E+00  0.000000000E+00  7.386904848E+01  7.386904848E+01  0.000000000E+00  0.00000E+00  9.000E+00
      21    -1     0     0   517   511  0.000000000E+00  0.000000000E+00 -1.430743020E+01  1.430743020E+01  0.000000000E+00  0.00000E+00  9.000E+00
      21     1     1     2   517   516  1.141625477E+01  4.438402261E+00 -1.076109137E+01  1.630433608E+01  4.298152060E-07  0.00000E+00  9.000E+00
      21     1     1     2   513   512 -6.120119795E+00 -6.308337801E+00  3.399589747E+01  3.511370156E+01  6.743495762E-07  0.00000E+00  9.000E+00
      21     1     1     2   516   513 -5.296134974E+00  1.869935540E+00  3.632681217E+01  3.675844103E+01  0.000000000E+00  0.00000E+00  9.000E+00
</event>
<event>
      5  10001  2.40292E+09  3.06853E+00 -1.00000E+00  2.93786E-01
      21    -1     0     0   514   513  0.000000000E+00  0.000000000E+00  4.782483490E-01  4.782483490E-01  0.000000000E+00  0.00000E+00  9.000E+00
      21    -1     0     0   516   515  0.000000000E+00  0.000000000E+00 -2.516327456E+02  2.516327456E+02  0.000000000E+00  0.00000E+00  9.000E+00
      21     1     1     2   514   515 -9.450876962E+00 -3.403665802E+00 -7.599857043E+01  7.665955077E+01  1.348699152E-06  0.00000E+00  9.000E+00
      21     1     1     2   516   511  2.380168800E+00  2.492826850E-01 -3.487249497E+01  3.495451688E+01  4.768371582E-07  0.00000E+00  9.000E+00
      21     1     1     2   511   513  7.070708162E+00  3.154383117E+00 -1.402834319E+02  1.404969263E+02  2.697398305E-06  0.00000E+00  9.000E+00
</event>
<event>
      5  10001  2.40292E+09  7.83391E+00 -1.00000E+00  2.08802E-01
      21    -1     0     0   512   515  0.000000000E+00  0.000000000E+00  5.699213526E+01  5.699213526E+01  0.000000000E+00  0.00000E+00  9.000E+00
      21    -1     0     0   514   513  0.000000000E+00  0.000000000E+00 -1.140555314E+01  1.140555314E+01  0.000000000E+00  0.00000E+00  9.000E+00
      21     1     1     2   512   513  1.458832777E+00  7.153330224E+00  4.343562610E+01  4.404488553E+01  8.259061849E-07  0.00000E+00  9.000E+00
      21     1     1     2   517   515 -5.347427054E+00 -1.395399444E+01  5.375845814E+00  1.588107853E+01  1.332800375E-07  0.00000E+00  9.000E+00
      21     1     1     2   514   517  3.888594277E+00  6.800664216E+00 -3.224889792E+00  8.471724346E+00  1.519626234E-07  0.00000E+00  9.000E+00
</event>
<event>
      5  10001  2.40292E+09  8.12916E+00 -1.00000E+00  2.06700E-01
      21    -1     0     0   512   513  0.000000000E+00  0.000000000E+00  6.806807904E+01  6.806807904E+01  0.000000000E+00  0.00000E+00  9.000E+00
      21    -1     0     0   514   511  0.000000000E+00  0.000000000E+00 -1.207298161E+01  1.207298161E+01  0.000000000E+00  0.00000E+00  9.000E+00
      21     1     1     2   514   516  1.281089765E+01 -1.483736929E+01  2.682849165E+00  1.978545692E+01  5.380949403E-07  0.00000E+00  9.000E+00
      21     1     1     2   516   513 -4.681750052E+00  1.482252862E+01  1.654986342E+01  2.270515619E+01  6.307962682E-07  0.00000E+00  9.000E+00
      21     1     1     2   512   511 -8.129147596E+00  1.484066641E-02  3.676238484E+01  3.765044754E+01  8.259061849E-07  0.00000E+00  9.000E+00
</event>
<event>
      5  10001  2.40292E+09  1.10728E+01 -1.00000E+00  1.90721E-01
      21    -1     0     0   515   513  0.000000000E+00  0.000000000E+00  6.308192962E+00  6.308192962E+00  0.000000000E+00  0.00000E+00  9.000E+00
      21    -1     0     0   517   515  0.000000000E+00  0.000000000E+00 -4.300101897E+02  4.300101897E+02  0.000000000E+00  0.00000E+00  9.000E+00
      21     1     1     2   517   511  1.121269307E+01 -2.031168578E+01 -1.993990263E+02  2.007442671E+02  4.672030912E-06  0.00000E+00  9.000E+00
      21     1     1     2   511   514 -3.203613019E+00  1.266568605E+01 -2.241193408E+02  2.244998032E+02  2.697398305E-06  0.00000E+00  9.000E+00
      21     1     1     2   514   513 -8.009080056E+00  7.645999731E+00 -1.836296794E-01  1.107431240E+01  1.874157969E-07  0.00000E+00  9.000E+00
</event>
<event>
      5  10001  2.40292E+09  1.05936E+01 -1.00000E+00  1.92849E-01
      21    -1     0     0   512   514  0.000000000E+00  0.000000000E+00  8.608465652E+00  8.608465652E+00  0.000000000E+00  0.00000E+00  9.000E+00
      21    -1     0     0   513   512  0.000000000E+00  0.000000000E+00 -1.299791261E+02  1.299791261E+02  0.000000000E+00  0.00000E+00  9.000E+00
      21     1     1     2   516   514 -8.888792418E-01 -1.328604559E+01  2.314013452E+00  1.351531620E+01  3.769728732E-07  0.00000E+00  9.000E+00
      21     1     1     2   511   516  6.039840676E+00  1.097206509E+01 -7.213428990E+01  7.321353472E+01  1.651812370E-06  0.00000E+00  9.000E+00
      21     1     1     2   513   511 -5.150961435E+00  2.313980502E+00 -5.155038396E+01  5.185874079E+01  6.743495762E-07  0.00000E+00  9.000E+00
</event>
<event>
      5  10001  2.40292E+09  4.50899E+00 -1.00000E+00  2.51688E-01
      21    -1     0     0   515   516  0.000000000E+00  0.000000000E+00  1.464190334E+02  1.464190334E+02  0.000000000E+00  0.00000E+00  9.000E+00
      21    -1     0     0   513   515  0.000000000E+00  0.000000000E+00 -1.128021838E+01  1.128021838E+01  0.000000000E+00  0.00000E+00  9.000E+00
      21     1     1     2   511   516 -7.219827089E+00  8.667723139E+00  1.428065024E+02  1.432513611E+02  1.907348633E-06  0.00000E+00  9.000E+00
      21     1     1     2   513   512  5.161452675E+00 -2.626223433E+00 -4.429121628E+00  7.290731214E+00  3.908537939E-07  0.00000E+00  9.000E+00
      21     1     1     2   512   511  2.058374413E+00 -6.041499706E+00 -3.238565729E+00  7.157159486E+00  5.960464478E-08  0.00000E+00  9.000E+00
</event>
<event>
      5  10001  2.40292E+09  7.49181E+00 -1.00000E+00  2.11400E-01
      21    -1     0     0   512   513  0.000000000E+00  0.000000000E+00  4.895769673E+01  4.895769673E+01  0.000000000E+00  0.00000E+00  9.000E+00
      -2    -1     0     0     0   511  0.000000000E+00  0.000000000E+00 -4.934754926E+00  4.934754926E+00  0.000000000E+00  0.00000E+00  9.000E+00
      -2     1     1     2     0   513 -7.781060086E+00  8.056146972E+00  5.660832383E+00  1.255389674E+01  3.300000131E-01  0.00000E+00  9.000E+00
      21     1     1     2   512   514  2.290816853E+00 -6.639300098E+00  3.223145154E+01  3.298779496E+01  0.000000000E+00  0.00000E+00  9.000E+00
      21     1     1     2   514   511  5.490243233E+00 -1.416846874E+00  6.130657874E+00  8.350759953E+00  1.192092896E-07  0.00000E+00  9.000E+00
</event>
<event>
      5  10001  2.40292E+09  7.39014E+00 -1.00000E+00  2.12208E-01
      21    -1     0     0   515   514  0.000000000E+00  0.000000000E+00  3.095030893E+01  3.095030893E+01  0.000000000E+00  0.00000E+00  9.000E+00
      21    -1     0     0   516   515  0.000000000E+00  0.000000000E+00 -3.790760719E+00  3.790760719E+00  0.000000000E+00  0.00000E+00  9.000E+00
      21     1     1     2   511   514  7.320005468E+00  5.091967977E+00  1.789503939E+01  1.999357529E+01  3.371747881E-07  0.00000E+00  9.000E+00
      21     1     1     2   512   511 -3.944389142E+00  5.237240759E-03  3.798738568E-01  3.962642714E+00  1.161430573E-07  0.00000E+00  9.000E+00
      21     1     1     2   516   512 -3.375616326E+00 -5.097205218E+00  8.884634959E+00  1.078485164E+01  1.685873940E-07  0.00000E+00  9.000E+00
</event>
<event>
      5  10001  2.40292E+09  7.17167E+00 -1.00000E+00  2.14007E-01
       2    -1     0     0   515     0  0.000000000E+00  0.000000000E+00  2.849666914E+02  2.849666914E+02  0.000000000E+00  0.00000E+00  9.000E+00
      21    -1     0     0   513   512  0.000000000E+00  0.000000000E+00 -2.182271562E+00  2.182271562E+00  0.000000000E+00  0.00000E+00  9.000E+00
      21     1     1     2   515   511  2.871783642E+00  2.163470780E+00  2.284462545E+00  4.259872794E+00  2.250025998E-07  0.00000E+00  9.000E+00
       2     1     1     2   513     0 -1.194832603E+01 -6.883779193E+00  2.555650861E+02  2.559370451E+02  3.300000131E-01  0.00000E+00  9.000E+00
      21     1     1     2   511   512  9.076542383E+00  4.720308413E+00  2.493487123E+01  2.695204513E+01  5.840038640E-07  0.00000E+00  9.000E+00
</event>
<event>
      5  10001  2.40292E+09  3.45381E+00 -1.00000E+00  2.79336E-01
       2    -1     0     0   512     0  0.000000000E+00  0.000000000E+00  1.762041001E-01  1.762041001E-01  0.000000000E+00  0.00000E+00  9.000E+00
       2    -1     0     0   511     0  0.000000000E+00  0.000000000E+00 -9.693695126E+02  9.693695126E+02  0.000000000E+00  0.00000E+00  9.000E+00
       2     1     1     2   511     0  1.205492587E+01 -7.568523777E-01 -3.129486811E+02  3.131818641E+02  3.300000131E-01  0.00000E+00  9.000E+00
      21     1     1     2   512   513 -5.833922596E+00  1.670759784E+00 -2.724043997E+02  2.724719858E+02  5.394796609E-06  0.00000E+00  9.000E+00
       2     1     1     2   513     0 -6.221003272E+00 -9.139074058E-01 -3.838402277E+02  3.838918669E+02  3.300000131E-01  0.00000E+00  9.000E+00
</event>
<event>
      5  10001  2.40292E+09  8.77522E+00 -1.00000E+00  2.02491E-01
      21    -1     0     0   514   516  0.000000000E+00  0.000000000E+00  3.360633763E+00  3.360633763E+00  0.000000000E+00  0.00000E+00  9.000E+00
      21    -1     0     0   511   515  0.000000000E+00  0.000000000E+00 -1.372173613E+02  1.372173613E+02  0.000000000E+00  0.00000E+00  9.000E+00
      21     1     1     2   514   515 -4.032883374E+00  1.290162705E+01 -1.207735442E+02  1.215276311E+02  1.907348633E-06  0.00000E+00  9.000E+00
      21     1     1     2   512   516  7.991493066E-02 -1.959315735E+00 -3.348890996E+00  3.880769956E+00  4.214684851E-08  0.00000E+00  9.000E+00
      21     1     1     2   511   512  3.952968443E+00 -1.094231132E+01 -9.734292320E+00  1.516959404E+01  3.953724850E-07  0.00000E+00  9.000E+00
</event>
<event>
      5  10001  2.40292E+09  6.87656E+00 -1.00000E+00  2.16579E-01
      21    -1     0     0   513   512  0.000000000E+00  0.000000000E+00  1.476512990E+02  1.476512990E+02  0.000000000E+00  0.00000E+00  9.000E+00
      21    -1     0     0   511   514  0.000000000E+00  0.000000000E+00 -4.208763765E+01  4.208763765E+01  0.000000000E+00  0.00000E+00  9.000E+00
      21     1     1     2   513   517 -1.653307248E+01 -4.450487341E+00  2.777519654E+01  3.262837516E+01  6.743495762E-07  0.00000E+00  9.000E+00
      21     1     1     2   511   512  1.114677670E+01  1.755795511E-01  1.168842170E+02  1.174146568E+02  1.907348633E-06  0.00000E+00  9.000E+00
      21     1     1     2   517   514  5.386295783E+00  4.274907790E+00 -3.909575210E+01  3.969590472E+01  6.743495762E-07  0.00000E+00  9.000E+00
</event>
<event>
      5  10001  2.40292E+09  9.78808E+00 -1.00000E+00  1.96780E-01
      21    -1     0     0   515   511  0.000000000E+00  0.000000000E+00  3.379266073E+01  3.379266073E+01  0.000000000E+00  0.00000E+00  9.000E+00
      21    -1     0     0   512   516  0.000000000E+00  0.000000000E+00 -7.351540477E+01  7.351540477E+01  0.000000000E+00  0.00000E+00  9.000E+00
      21     1     1     2   515   516  1.391523960E+00 -8.292853088E+00 -5.556482775E+01  5.619748957E+01  6.743495762E-07  0.00000E+00  9.000E+00
      21     1     1     2   517   511 -7.001155106E+00  1.631398031E+01  2.942666532E+01  3.436700101E+01  1.168007728E-06  0.00000E+00  9.000E+00
      21     1     1     2   512   517  5.609631146E+00 -8.021127226E+00 -1.358458161E+01  1.674357492E+01  3.371747881E-07  0.00000E+00  9.000E+00
</event>
<event>
      5  10001  2.40292E+09  8.66341E+00 -1.00000E+00  2.03184E-01
      -2    -1     0     0     0   511  0.000000000E+00  0.000000000E+00  3.358368831E+01  3.358368831E+01  0.000000000E+00  0.00000E+00  9.000E+00
       2    -1     0     0   511     0  0.000000000E+00  0.000000000E+00 -4.321627582E+02  4.321627582E+02  0.000000000E+00  0.00000E+00  9.000E+00
      21     1     1     2   513   512  1.824376715E+01 -1.363884821E+01 -7.905777571E+01  8.227384226E+01  1.348699152E-06  0.00000E+00  9.000E+00
       2     1     1     2   512     0 -1.135857747E+01  8.380693289E+00 -3.507646361E+02  3.510487034E+02  3.300000131E-01  0.00000E+00  9.000E+00
      -2     1     1     2     0   513 -6.885189682E+00  5.258154925E+00  3.124334195E+01  3.242390085E+01  3.300000131E-01  0.00000E+00  9.000E+00
</event>
<event>
      5  10001  2.40292E+09  4.83800E+00 -1.00000E+00  2.45319E-01
       2    -1     0     0   512     0  0.000000000E+00  0.000000000E+00  9.595691601E+01  9.595691601E+01  0.000000000E+00  0.00000E+00  9.000E+00
      21    -1     0     0   514   515  0.000000000E+00  0.000000000E+00 -3.377813728E+01  3.377813728E+01  0.000000000E+00  0.00000E+00  9.000E+00
      -3     1     1     2     0   515  8.754487289E+00  6.904350103E+00 -2.365581775E+01  2.615642964E+01  5.000000000E-01  0.00000E+00  9.000E+00
       2     1     1     2   514     0 -6.899299579E+00 -9.492833109E+00  9.403622330E+01  9.476620921E+01  3.300000131E-01  0.00000E+00  9.000E+00
       3     1     1     2   512     0 -1.855187709E+00  2.588483006E+00 -8.201626828E+00  8.812414444E+00  5.000000000E-01  0.00000E+00  9.000E+00
</event>
<event>
      5  10001  2.40292E+09  3.67371E+00 -1.00000E+00  2.72377E-01
      -3    -1     0     0     0   514  0.000000000E+00  0.000000000E+00  1.802883697E+01  1.802883697E+01  0.000000000E+00  0.00000E+00  9.000E+00
      21    -1     0     0   516   513  0.000000000E+00  0.000000000E+00 -3.491758870E+01  3.491758870E+01  0.000000000E+00  0.00000E+00  9.000E+00
      21     1     1     2   511   513 -1.028961398E+01  4.417924142E+00 -2.829999741E+01  3.043491519E+01  0.000000000E+00  0.00000E+00  9.000E+00
      21     1     1     2   516   514  1.168116428E+01 -1.018636129E+00  1.366838450E+00  1.180489161E+01  4.624164298E-07  0.00000E+00  9.000E+00
      -3     1     1     2     0   511 -1.391550302E+00 -3.399288013E+00  1.004440722E+01  1.070661887E+01  5.000000000E-01  0.00000E+00  9.000E+00
</event>
<event>
      5  10001  2.40292E+09  1.14247E+01 -1.00000E+00  1.89245E-01
      -2    -1     0     0     0   513  0.000000000E+00  0.000000000E+00  6.225162656E+02  6.225162656E+02  0.000000000E+00  0.00000E+00  9.000E+00
      21    -1     0     0   512   514  0.000000000E+00  0.000000000E+00 -1.124595232E+00  1.124595232E+00  0.000000000E+00  0.00000E+00  9.000E+00
      -2     1     1     2     0   514  5.549493350E+00  1.741777595E+01  3.801093126E+02  3.805487803E+02  3.300000131E-01  0.00000E+00  9.000E+00
      21     1     1     2   512   511  3.341779960E+00 -1.024445026E+01  3.825865991E+01  3.974721767E+01  1.581489940E-06  0.00000E+00  9.000E+00
      21     1     1     2   511   513 -8.891273309E+00 -7.173325698E+00  2.030236979E+02  2.033448629E+02  3.814697266E-06  0.00000E+00  9.000E+00
</event>
<event>
      5  10001  2.40292E+09  2.87026E+00 -1.00000E+00  3.02673E-01
      21    -1     0     0   515   512  0.000000000E+00  0.000000000E+00  7.270798878E+01  7.270798878E+01  0.000000000E+00  0.00000E+00  9.000E+00
      21    -1     0     0   513   515  0.000000000E+00  0.000000000E+00 -1.503921300E+01  1.503921300E+01  0.000000000E+00  0.00000E+00  9.000E+00
      21     1     1     2   513   516 -1.025593288E+01 -4.521862125E+00 -1.239621656E+01  1.671219858E+01  2.384185791E-07  0.00000E+00  9.000E+00
      21     1     1     2   516   514  5.900877941E+00  4.252200162E+00  4.015315473E+01  4.080658527E+01  4.768371582E-07  0.00000E+00  9.000E+00
      21     1     1     2   514   512  4.355054944E+00  2.696619629E-01  2.991183761E+01  3.022841792E+01  3.371747881E-07  0.00000E+00  9.000E+00
</event>
<event>
      5  10001  2.40292E+09  9.40242E+00 -1.00000E+00  1.98842E-01
      21    -1     0     0   511   516  0.000000000E+00  0.000000000E+00  1.579094679E+00  1.579094679E+00  0.000000000E+00  0.00000E+00  9.000E+00
      21    -1     0     0   513   512  0.000000000E+00  0.000000000E+00 -2.361982368E+02  2.361982368E+02  0.000000000E+00  0.00000E+00  9.000E+00
      21     1     1     2   511   512  1.733269043E+01  3.066276286E+00 -1.101916807E+02  1.115886675E+02  0.000000000E+00  0.00000E+00  9.000E+00
      21     1     1     2   515   516 -1.013166387E+01 -7.438640182E+00 -7.685415110E+01  7.787518554E+01  1.907348633E-06  0.00000E+00  9.000E+00
      21     1     1     2   513   515 -7.201026555E+00  4.372363896E+00 -4.757331031E+01  4.831347848E+01  9.536743164E-07  0.00000E+00  9.000E+00
</event>
<event>
      5  10001  2.40292E+09  2.45084E+01 -1.00000E+00  1.59362E-01
       1    -1     0     0   512     0  0.000000000E+00  0.000000000E+00  2.519521601E+01  2.519521601E+01  0.000000000E+00  0.00000E+00  9.000E+00
      21    -1     0     0   514   515  0.000000000E+00  0.000000000E+00 -3.144643387E+01  3.144643387E+01  0.000000000E+00  0.00000E+00  9.000E+00
      21     1     1     2   511   515  5.411057640E+00 -5.524946572E+00 -6.469600416E+00  1.008267370E+01  1.460009660E-07  0.00000E+00  9.000E+00
       1     1     1     2   514     0  6.426876950E+00  1.387463698E+01  1.800201787E+01  2.362185103E+01  3.300000131E-01  0.00000E+00  9.000E+00
      21     1     1     2   512   511 -1.183793459E+01 -8.349690407E+00 -1.778363531E+01  2.293712515E+01  3.371747881E-07  0.00000E+00  9.000E+00
</event>
<event>
      5  10001  2.40292E+09  2.59336E+00 -1.00000E+00  3.17324E-01
      21    -1     0     0   513   514  0.000000000E+00  0.000000000E+00  7.518117833E+01  7.518117833E+01  0.000000000E+00  0.00000E+00  9.000E+00
      21    -1     0     0   515   511  0.000000000E+00  0.000000000E+00 -4.142992248E+01  4.142992248E+01  0.000000000E+00  0.00000E+00  9.000E+00
      21     1     1     2   513   511  7.358276218E+00 -8.744056341E+00  4.491748051E+01  4.634849302E+01  6.743495762E-07  0.00000E+00  9.000E+00
      21     1     1     2   516   514 -4.909431607E+00  9.597676929E+00  2.852116952E+01  3.049057283E+01  4.768371582E-07  0.00000E+00  9.000E+00
      21     1     1     2   515   516 -2.448844612E+00 -8.536205883E-01 -3.968739418E+01  3.977203496E+01  4.768371582E-07  0.00000E+00  9.000E+00
</event>
<event>
      5  10001  2.40292E+09  1.07026E+01 -1.00000E+00  1.92352E-01
      21    -1     0     0   512   511  0.000000000E+00  0.000000000E+00  8.349157384E+02  8.349157384E+02  0.000000000E+00  0.00000E+00  9.000E+00
      -2    -1     0     0     0   517  0.000000000E+00  0.000000000E+00 -4.974026928E+00  4.974026928E+00  0.000000000E+00  0.00000E+00  9.000E+00
      21     1     1     2   512   517 -1.265707139E+01 -1.714429181E+01  6.138164618E+02  6.141862722E+02  1.078959322E-05  0.00000E+00  9.000E+00
      21     1     1     2   515   511  2.282534069E+00  1.451488419E+01  2.143460134E+02  2.148490290E+02  3.814697266E-06  0.00000E+00  9.000E+00
      -2     1     1     2     0   515  1.037453732E+01  2.629407625E+00  1.779236311E+00  1.085446410E+01  3.300000131E-01  0.00000E+00  9.000E+00
</event>
<event>
      5  10001  2.40292E+09  5.58628E+00 -1.00000E+00  2.30319E-01
      21    -1     0     0   511   515  0.000000000E+00  0.000000000E+00  1.179048907E+03  1.179048907E+03  0.000000000E+00  0.00000E+00  9.000E+00
      21    -1     0     0   514   513  0.000000000E+00  0.000000000E+00 -3.861309003E+00  3.861309003E+00  0.000000000E+00  0.00000E+00  9.000E+00
      21     1     1     2   514   516  3.948869270E+00 -6.610901986E+00  1.345179734E-01  7.701667915E+00  6.887103677E-07  0.00000E+00  9.000E+00
      21     1     1     2   516   515 -8.417690453E+00  9.962933351E+00  9.321166433E+02  9.322078922E+02  1.078959322E-05  0.00000E+00  9.000E+00
      21     1     1     2   511   513  4.468821182E+00 -3.352031365E+00  2.429364362E+02  2.430006554E+02  2.697398305E-06  0.00000E+00  9.000E+00
</event>
<event>
      5  10001  2.40292E+09  2.96382E+00 -1.00000E+00  2.98335E-01
      -2    -1     0     0     0   512  0.000000000E+00  0.000000000E+00  9.361561490E-01  9.361561490E-01  0.000000000E+00  0.00000E+00  9.000E+00
      21    -1     0     0   514   511  0.000000000E+00  0.000000000E+00 -4.245237066E+02  4.245237066E+02  0.000000000E+00  0.00000E+00  9.000E+00
      -2     1     1     2     0   513 -6.978625866E+00  8.537997995E+00 -4.114033206E+01  4.259383114E+01  3.300000131E-01  0.00000E+00  9.000E+00
      21     1     1     2   513   511  9.935233149E+00 -8.334774482E+00 -2.139000258E+02  2.142927866E+02  0.000000000E+00  0.00000E+00  9.000E+00
      21     1     1     2   514   512 -2.956607283E+00 -2.032235131E-01 -1.685471926E+02  1.685732451E+02  2.697398305E-06  0.00000E+00  9.000E+00
</event>
<event>
      5  10001  2.40292E+09  1.13302E+01 -1.00000E+00  1.89635E-01
       1    -1     0     0   515     0  0.000000000E+00  0.000000000E+00  4.893793321E+02  4.893793321E+02  0.000000000E+00  0.00000E+00  9.000E+00
      21    -1     0     0   514   512  0.000000000E+00  0.000000000E+00 -1.785290766E+01  1.785290766E+01  0.000000000E+00  0.00000E+00  9.000E+00
      21     1     1     2   515   512 -8.486787568E+00 -1.422155475E+01  1.181661470E+01  2.034479210E+01  4.129530925E-07  0.00000E+00  9.000E+00
      21     1     1     2   514   513 -6.253173497E-02  6.786363167E+00 -1.266920796E+01  1.437245510E+01  2.384185791E-07  0.00000E+00  9.000E+00
       1     1     1     2   513     0  8.549319303E+00  7.435191578E+00  4.723790177E+02  4.725149925E+02  3.300000131E-01  0.00000E+00  9.000E+00
</event>
<event>
      5  10001  2.40292E+09  5.33127E+00 -1.00000E+00  2.33665E-01
       3    -1     0     0   512     0  0.000000000E+00  0.000000000E+00  4.244782556E+00  4.244782556E+00  0.000000000E+00  0.00000E+00  9.000E+00
      21    -1     0     0   511   513  0.000000000E+00  0.000000000E+00 -5.827590080E+01  5.827590080E+01  0.000000000E+00  0.00000E+00  9.000E+00
      21     1     1     2   512   513 -7.970117028E+00 -4.735430561E+00 -4.689540442E+01  4.780299179E+01  6.743495762E-07  0.00000E+00  9.000E+00
       3     1     1     2   514     0  4.144052002E+00  6.634698141E+00 -2.101230662E+00  8.115266891E+00  5.000000000E-01  0.00000E+00  9.000E+00
      21     1     1     2   511   514  3.826065026E+00 -1.899267580E+00 -5.034483161E+00  6.602424678E+00  1.332800375E-07  0.00000E+00  9.000E+00
</event>
<event>
      5  10001  2.40292E+09  4.83318E+00 -1.00000E+00  2.45406E-01
      21    -1     0     0   515   516  0.000000000E+00  0.000000000E+00  6.470488988E+00  6.470488988E+00  0.000000000E+00  0.00000E+00  9.000E+00
      21    -1     0     0   511   515  0.000000000E+00  0.000000000E+00 -4.927597562E+01  4.927597562E+01  0.000000000E+00  0.00000E+00  9.000E+00
      21     1     1     2   514   516 -9.234424335E+00 -2.957319029E+00  1.616741532E+00  9.830268654E+00  1.884864366E-07  0.00000E+00  9.000E+00
      21     1     1     2   511   512  5.629588293E+00  4.949110883E+00 -2.815797495E+01  2.913859152E+01  3.371747881E-07  0.00000E+00  9.000E+00
      21     1     1     2   512   514  3.604836042E+00 -1.991791855E+00 -1.626425322E+01  1.677760443E+01  2.384185791E-07  0.00000E+00  9.000E+00
</event>
<event>
      5  10001  2.40292E+09  1.56571E+01 -1.00000E+00  1.75601E-01
      21    -1     0     0   515   511  0.000000000E+00  0.000000000E+00  4.348328753E+01  4.348328753E+01  0.000000000E+00  0.00000E+00  9.000E+00
      21    -1     0     0   516   514  0.000000000E+00  0.000000000E+00 -5.276859329E+01  5.276859329E+01  0.000000000E+00  0.00000E+00  9.000E+00
      21     1     1     2   513   514  1.544684181E+00  1.628362204E+01 -3.726895708E+01  4.070033855E+01  0.000000000E+00  0.00000E+00  9.000E+00
      21     1     1     2   516   511 -4.409499634E+00 -3.167641706E+01  1.557054120E+01  3.557078630E+01  5.057621821E-07  0.00000E+00  9.000E+00
      21     1     1     2   515   513  2.864815453E+00  1.539279502E+01  1.241311012E+01  1.998075596E+01  2.920019320E-07  0.00000E+00  9.000E+00
</event>
<event>
      5  10001  2.40292E+09  3.34689E+00 -1.00000E+00  2.83029E-01
      21    -1     0     0   512   514  0.000000000E+00  0.000000000E+00  1.489683038E+01  1.489683038E+01  0.000000000E+00  0.00000E+00  9.000E+00
       1    -1     0     0   515     0  0.000000000E+00  0.000000000E+00 -3.239755436E+02  3.239755436E+02  0.000000000E+00  0.00000E+00  9.000E+00
      21     1     1     2   515   511  2.289891873E+01  2.053343938E+00 -1.254896122E+01  2.619261590E+01  4.460403188E-07  0.00000E+00  9.000E+00
       1     1     1     2   512     0 -2.107209117E+01 -4.857669243E+00 -3.038562773E+02  3.046249762E+02  3.300000131E-01  0.00000E+00  9.000E+00
      21     1     1     2   511   514 -1.826827555E+00  2.804325304E+00  7.326525252E+00  8.054781908E+00  3.576278687E-07  0.00000E+00  9.000E+00
</event>
<event>
      5  10001  2.40292E+09  5.07770E+00 -1.00000E+00  2.37265E-01
      -4    -1     0     0     0   513  0.000000000E+00  0.000000000E+00  2.073859682E+00  2.073859682E+00  0.000000000E+00  0.00000E+00  9.000E+00
       2    -1     0     0   512     0  0.000000000E+00  0.000000000E+00 -3.445467545E+02  3.445467545E+02  0.000000000E+00  0.00000E+00  9.000E+00
      -4     1     1     2     0   514  7.961711640E+00  1.096701493E+01 -2.351018114E+01  2.717798531E+01  1.500000000E+00  0.00000E+00  9.000E+00
       2     1     1     2   514     0 -7.511692602E+00 -5.913717243E+00 -2.783418460E+02  2.785061753E+02  3.300000131E-01  0.00000E+00  9.000E+00
      21     1     1     2   512   513 -4.500190378E-01 -5.053297688E+00 -4.062086770E+01  4.093645352E+01  6.743495762E-07  0.00000E+00  9.000E+00
</event>
<event>
      5  10001  2.40292E+09  6.63337E+00 -1.00000E+00  2.18836E-01
      21    -1     0     0   511   515  0.000000000E+00  0.000000000E+00  2.982168338E+00  2.982168338E+00  0.000000000E+00  0.00000E+00  9.000E+00
      21    -1     0     0   512   511  0.000000000E+00  0.000000000E+00 -3.820692158E+02  3.820692158E+02  0.000000000E+00  0.00000E+00  9.000E+00
      21     1     1     2   513   515  1.237702255E+01  4.278494400E+00 -1.305962328E+01  1.849459277E+01  2.384185791E-07  0.00000E+00  9.000E+00
      21     1     1     2   512   514 -6.705724051E+00 -2.610615062E+00 -3.274508874E+02  3.275299463E+02  5.394796609E-06  0.00000E+00  9.000E+00
      21     1     1     2   514   513 -5.671298496E+00 -1.667879338E+00 -3.857653681E+01  3.902684512E+01  6.743495762E-07  0.00000E+00  9.000E+00
</event>
<event>
      5  10001  2.40292E+09  6.47927E+00 -1.00000E+00  2.20336E-01
      21    -1     0     0   516   512  0.000000000E+00  0.000000000E+00  3.610721469E+00  3.610721469E+00  0.000000000E+00  0.00000E+00  9.000E+00
      21    -1     0     0   517   516  0.000000000E+00  0.000000000E+00 -4.995689826E+01  4.995689826E+01  0.000000000E+00  0.00000E+00  9.000E+00
      21     1     1     2   517   513  8.321882222E+00 -8.621360229E+00 -3.325510793E+01  3.534803784E+01  4.768371582E-07  0.00000E+00  9.000E+00
      21     1     1     2   511   512 -1.048646458E+00  2.573762410E+00 -1.205320989E+00  3.029308671E+00  6.495265579E-08  0.00000E+00  9.000E+00
      21     1     1     2   513   511 -7.273235764E+00  6.047597818E+00 -1.188574787E+01  1.519027322E+01  2.384185791E-07  0.00000E+00  9.000E+00
</event>
<event>
      5  10001  2.40292E+09  4.66029E+01 -1.00000E+00  1.40812E-01
      21    -1     0     0   514   511  0.000000000E+00  0.000000000E+00  2.659195209E+00  2.659195209E+00  0.000000000E+00  0.00000E+00  9.000E+00
      21    -1     0     0   511   512  0.000000000E+00  0.000000000E+00 -8.124054163E+02  8.124054163E+02  0.000000000E+00  0.00000E+00  9.000E+00
      21     1     1     2   515   512 -7.722988723E+00 -1.530774451E+01 -6.182682080E+02  6.185059002E+02  1.078959322E-05  0.00000E+00  9.000E+00
       4     1     1     2   514     0  1.890485745E+01  2.014432362E+01 -1.658603987E+02  1.681520422E+02  1.500000000E+00  0.00000E+00  9.000E+00
      -4     1     1     2     0   515 -1.118186873E+01 -4.836579116E+00 -2.561761433E+01  2.840666911E+01  1.500000000E+00  0.00000E+00  9.000E+00
</event>
<event>
      5  10001  2.40292E+09  3.36820E+00 -1.00000E+00  2.82276E-01
      21    -1     0     0   513   512  0.000000000E+00  0.000000000E+00  3.661301858E+01  3.661301858E+01  0.000000000E+00  0.00000E+00  9.000E+00
      21    -1     0     0   511   514  0.000000000E+00  0.000000000E+00 -4.827354880E+01  4.827354880E+01  0.000000000E+00  0.00000E+00  9.000E+00
      21     1     1     2   513   515  9.615845188E+00  5.669696575E+00 -4.494901192E+01  4.631439960E+01  0.000000000E+00  0.00000E+00  9.000E+00
      21     1     1     2   511   512 -9.034530427E+00 -2.352042738E+00  3.388854430E+01  3.515093569E+01  4.768371582E-07  0.00000E+00  9.000E+00
      21     1     1     2   515   514 -5.813147612E-01 -3.317653837E+00 -6.000625985E-01  3.421232082E+00  5.866593029E-08  0.00000E+00  9.000E+00
</event>
<event>
      5  10001  2.40292E+09  8.23918E+00 -1.00000E+00  2.05947E-01
      21    -1     0     0   513   512  0.000000000E+00  0.000000000E+00  5.021162891E+02  5.021162891E+02  0.000000000E+00  0.00000E+00  9.000E+00
      21    -1     0     0   517   516  0.000000000E+00  0.000000000E+00 -1.109655259E+00  1.109655259E+00  0.000000000E+00  0.00000E+00  9.000E+00
      21     1     1     2   511   512 -7.551724910E-01  1.567883584E+01  1.865768816E+02  1.872360246E+02  2.697398305E-06  0.00000E+00  9.000E+00
      21     1     1     2   517   511 -5.629049605E-01 -7.545773049E+00  1.908532636E+01  2.053059266E+01  7.539457465E-07  0.00000E+00  9.000E+00
      21     1     1     2   513   516  1.318077451E+00 -8.133062793E+00  2.953444259E+02  2.954593271E+02  5.394796609E-06  0.00000E+00  9.000E+00
</event>
<event>
      5  10001  2.40292E+09  7.03792E+00 -1.00000E+00  2.15151E-01
      21    -1     0     0   514   516  0.000000000E+00  0.000000000E+00  6.209361525E+01  6.209361525E+01  0.000000000E+00  0.00000E+00  9.000E+00
      21    -1     0     0   512   511  0.000000000E+00  0.000000000E+00 -1.058977257E+02  1.058977257E+02  0.000000000E+00  0.00000E+00  9.000E+00
      21     1     1     2   514   515 -1.293593512E+01  6.999791765E+00 -2.294187349E+00  1.488619488E+01  5.372690075E-07  0.00000E+00  9.000E+00
      21     1     1     2   512   516  7.935996253E+00 -2.046725598E+00  5.536831890E+01  5.597159869E+01  1.168007728E-06  0.00000E+00  9.000E+00
      21     1     1     2   515   511  4.999938871E+00 -4.953066167E+00 -9.687824198E+01  9.713354736E+01  1.348699152E-06  0.00000E+00  9.000E+00
</event>
<event>
      5  10001  2.40292E+09  8.95656E+00 -1.00000E+00  2.01395E-01
      21    -1     0     0   513   511  0.000000000E+00  0.000000000E+00  1.741111289E+00  1.741111289E+00  0.000000000E+00  0.00000E+00  9.000E+00
      21    -1     0     0   515   517  0.000000000E+00  0.000000000E+00 -3.173056799E+02  3.173056799E+02  0.000000000E+00  0.00000E+00  9.000E+00
      21     1     1     2   513   517  2.028513721E+00 -1.084006814E+01 -1.916260041E+01  2.210943689E+01  5.840038640E-07  0.00000E+00  9.000E+00
      21     1     1     2   512   511 -3.534662451E+00  3.622432719E+00 -2.402598721E+02  2.403131748E+02  2.697398305E-06  0.00000E+00  9.000E+00
      21     1     1     2   515   512  1.506148731E+00  7.217635423E+00 -5.614209614E+01  5.662417950E+01  6.743495762E-07  0.00000E+00  9.000E+00
</event>
<event>
      5  10001  2.40292E+09  6.16352E+00 -1.00000E+00  2.23596E-01
       2    -1     0     0   511     0  0.000000000E+00  0.000000000E+00  2.846644714E+02  2.846644714E+02  0.000000000E+00  0.00000E+00  9.000E+00
      21    -1     0     0   514   512  0.000000000E+00  0.000000000E+00 -7.870389629E+00  7.870389629E+00  0.000000000E+00  0.00000E+00  9.000E+00
      21     1     1     2   515   512  8.072348803E-01 -7.677477935E+00 -5.540334677E+00  9.502136808E+00  7.300048300E-07  0.00000E+00  9.000E+00
       2     1     1     2   514     0  1.744954590E+00  1.328765540E+01  2.146710210E+02  2.150891974E+02  3.300000131E-01  0.00000E+00  9.000E+00
      21     1     1     2   511   515 -2.552189471E+00 -5.610177467E+00  6.766339540E+01  6.794352684E+01  1.651812370E-06  0.00000E+00  9.000E+00
</event>
<event>
      5  10001  2.40292E+09  2.33799E+01 -1.00000E+00  1.60923E-01
      21    -1     0     0   513   514  0.000000000E+00  0.000000000E+00  2.086552307E+01  2.086552307E+01  0.000000000E+00  0.00000E+00  9.000E+00
       2    -1     0     0   511     0  0.000000000E+00  0.000000000E+00 -7.964457160E+01  7.964457160E+01  0.000000000E+00  0.00000E+00  9.000E+00
      21     1     1     2   511   512  1.057572453E+01 -2.158866443E+00 -1.234691679E+00  1.086421268E+01  1.541388099E-07  0.00000E+00  9.000E+00
       2     1     1     2   513     0 -1.730894868E+01  3.281088004E+00 -7.175180965E+01  7.388366755E+01  3.300000131E-01  0.00000E+00  9.000E+00
      21     1     1     2   512   514  6.733224151E+00 -1.122221561E+00  1.420745280E+01  1.576221444E+01  0.000000000E+00  0.00000E+00  9.000E+00
</event>
<event>
      5  10001  2.40292E+09  1.36565E+01 -1.00000E+00  1.81261E-01
      21    -1     0     0   515   512  0.000000000E+00  0.000000000E+00  6.062662200E+01  6.062662200E+01  0.000000000E+00  0.00000E+00  9.000E+00
      21    -1     0     0   514   515  0.000000000E+00  0.000000000E+00 -1.441644834E+02  1.441644834E+02  0.000000000E+00  0.00000E+00  9.000E+00
      21     1     1     2   514   511 -9.301857994E+00  3.394686568E+00 -1.392030379E+02  1.395547714E+02  1.907348633E-06  0.00000E+00  9.000E+00
      21     1     1     2   511   513  1.862031675E+01  3.221026978E-01  5.076113140E+01  5.406951458E+01  1.507891493E-06  0.00000E+00  9.000E+00
      21     1     1     2   513   512 -9.318458757E+00 -3.716789266E+00  4.904045157E+00  1.116681938E+01  2.980232239E-07  0.00000E+00  9.000E+00
</event>
<event>
      5  10001  2.40292E+09  1.22920E+01 -1.00000E+00  1.85885E-01
      21    -1     0     0   516   511  0.000000000E+00  0.000000000E+00  1.225988014E+02  1.225988014E+02  0.000000000E+00  0.00000E+00  9.000E+00
      21    -1     0     0   514   512  0.000000000E+00  0.000000000E+00 -2.211466949E+00  2.211466949E+00  0.000000000E+00  0.00000E+00  9.000E+00
      21     1     1     2   516   512  1.313394075E+00 -1.039435745E+01  1.493584061E+01  1.824409509E+01  2.384185791E-07  0.00000E+00  9.000E+00
      21     1     1     2   514   515 -6.104796708E+00  4.479951077E+00  4.425868532E+01  4.490177871E+01  0.000000000E+00  0.00000E+00  9.000E+00
      21     1     1     2   515   511  4.791402633E+00  5.914406372E+00  6.119280854E+01  6.166439458E+01  6.743495762E-07  0.00000E+00  9.000E+00
</event>
<event>
      5  10001  2.40292E+09  3.11275E+00 -1.00000E+00  2.91955E-01
      21    -1     0     0   513   511  0.000000000E+00  0.000000000E+00  1.676588363E+02  1.676588363E+02  0.000000000E+00  0.00000E+00  9.000E+00
       2    -1     0     0   514     0  0.000000000E+00  0.000000000E+00 -1.071819894E+01  1.071819894E+01  0.000000000E+00  0.00000E+00  9.000E+00
      21     1     1     2   514   511  5.605956281E+00 -8.664663950E+00  1.647630744E+02  1.650859589E+02  2.697398305E-06  0.00000E+00  9.000E+00
      21     1     1     2   513   512 -1.204255790E+00  3.994688184E+00 -4.173770329E+00  5.901535771E+00  3.816559456E-07  0.00000E+00  9.000E+00
       2     1     1     2   512     0 -4.401700492E+00  4.669975766E+00 -3.648666705E+00  7.389540554E+00  3.300000131E-01  0.00000E+00  9.000E+00
</event>
<event>
      5  10001  2.40292E+09  1.36588E+01 -1.00000E+00  1.81254E-01
       2    -1     0     0   515     0  0.000000000E+00  0.000000000E+00  5.190777494E+02  5.190777494E+02  0.000000000E+00  0.00000E+00  9.000E+00
      21    -1     0     0   513   515  0.000000000E+00  0.000000000E+00 -4.426111025E+00  4.426111025E+00  0.000000000E+00  0.00000E+00  9.000E+00
      21     1     1     2   513   511  1.707226040E+01 -8.287391009E+00  2.475870038E+01  3.119513054E+01  1.011524364E-06  0.00000E+00  9.000E+00
       2     1     1     2   512     0 -1.966372022E+01 -1.641263332E+00  4.645253348E+02  4.649443528E+02  3.300000131E-01  0.00000E+00  9.000E+00
      21     1     1     2   511   512  2.591459823E+00  9.928654341E+00  2.536760319E+01  2.736437707E+01  9.536743164E-07  0.00000E+00  9.000E+00
</event>
<event>
      5  10001  2.40292E+09  4.80036E+00 -1.00000E+00  2.46008E-01
       1    -1     0     0   511     0  0.000000000E+00  0.000000000E+00  4.258043565E+02  4.258043565E+02  0.000000000E+00  0.00000E+00  9.000E+00
      21    -1     0     0   514   513  0.000000000E+00  0.000000000E+00 -1.038895322E+02  1.038895322E+02  0.000000000E+00  0.00000E+00  9.000E+00
      21     1     1     2   511   512 -1.070107016E+01 -7.897111398E-01 -1.241033074E+01  1.640587869E+01  4.129530925E-07  0.00000E+00  9.000E+00
       1     1     1     2   514     0  1.142447724E+01  5.535249193E+00  4.236469892E+02  4.238372777E+02  3.300000131E-01  0.00000E+00  9.000E+00
      21     1     1     2   512   513 -7.234070781E-01 -4.745538054E+00 -8.932183410E+01  8.945073223E+01  2.697398305E-06  0.00000E+00  9.000E+00
</event>
<event>
      5  10001  2.40292E+09  1.25658E+01 -1.00000E+00  1.84897E-01
      21    -1     0     0   515   513  0.000000000E+00  0.000000000E+00  6.930873595E+00  6.930873595E+00  0.000000000E+00  0.00000E+00  9.000E+00
      21    -1     0     0   512   516  0.000000000E+00  0.000000000E+00 -5.664930574E+01  5.664930574E+01  0.000000000E+00  0.00000E+00  9.000E+00
      21     1     1     2   515   516 -2.394052820E+00 -1.690381693E+01 -3.404038014E+01  3.808172784E+01  6.743495762E-07  0.00000E+00  9.000E+00
      21     1     1     2   511   513 -1.305593877E+00  5.088519312E+00  3.270735857E-01  5.263514158E+00  1.344205331E-07  0.00000E+00  9.000E+00
      21     1     1     2   512   511  3.699646697E+00  1.181529762E+01 -1.600512559E+01  2.023493733E+01  5.331201500E-07  0.00000E+00  9.000E+00
</event>
<event>
      5  10001  2.40292E+09  3.57580E+01 -1.00000E+00  1.47893E-01
      21    -1     0     0   514   511  0.000000000E+00  0.000000000E+00  3.723079485E+01  3.723079485E+01  0.000000000E+00  0.00000E+00  9.000E+00
      21    -1     0     0   512   517  0.000000000E+00  0.000000000E+00 -1.028055503E+02  1.028055503E+02  0.000000000E+00  0.00000E+00  9.000E+00
      21     1     1     2   514   517 -1.205392721E+00  2.032693958E+01  3.206062179E+01  3.798053335E+01  6.743495762E-07  0.00000E+00  9.000E+00
      -4     1     1     2     0   511  9.007088536E+00 -7.529562578E+00 -2.247306118E+01  2.539902430E+01  1.500000000E+00  0.00000E+00  9.000E+00
       4     1     1     2   512     0 -7.801695815E+00 -1.279737700E+01 -7.516231601E+01  7.665678746E+01  1.500000000E+00  0.00000E+00  9.000E+00
</event>
<event>
      5  10001  2.40292E+09  4.85323E+00 -1.00000E+00  2.45042E-01
      21    -1     0     0   513   516  0.000000000E+00  0.000000000E+00  7.415933990E+01  7.415933990E+01  0.000000000E+00  0.00000E+00  9.000E+00
      21    -1     0     0   512   513  0.000000000E+00  0.000000000E+00 -2.938131590E+00  2.938131590E+00  0.000000000E+00  0.00000E+00  9.000E+00
      21     1     1     2   512   515 -9.533285176E+00  4.021707963E+00  8.365628242E+00  1.330569040E+01  1.192092896E-07  0.00000E+00  9.000E+00
      21     1     1     2   511   516  3.176574701E+00 -2.707805286E+00  1.859274267E+01  1.905552194E+01  4.129530925E-07  0.00000E+00  9.000E+00
      21     1     1     2   515   511  6.356710475E+00 -1.313902677E+00  4.426283740E+01  4.473625916E+01  4.768371582E-07  0.00000E+00  9.000E+00
</event>
<event>
      5  10001  2.40292E+09  2.86755E+01 -1.00000E+00  1.54379E-01
       1    -1     0     0   513     0  0.000000000E+00  0.000000000E+00  6.373163387E+01  6.373163387E+01  0.000000000E+00  0.00000E+00  9.000E+00
      21    -1     0     0   511   513  0.000000000E+00  0.000000000E+00 -1.091909076E+01  1.091909076E+01  0.000000000E+00  0.00000E+00  9.000E+00
      21     1     1     2   512   514  9.357390525E+00 -1.446493368E+01  2.284180155E+01  2.861018983E+01  0.000000000E+00  0.00000E+00  9.000E+00
       1     1     1     2   514     0  3.738285205E+00  1.652512339E+01  2.787128439E+01  3.261858171E+01  3.300000131E-01  0.00000E+00  9.000E+00
      21     1     1     2   511   512 -1.309567573E+01 -2.060189706E+00  2.099457172E+00  1.342195309E+01  2.230201594E-07  0.00000E+00  9.000E+00
</event>
<event>
      5  10001  2.40292E+09  5.17994E+00 -1.00000E+00  2.35778E-01
       2    -1     0     0   514     0  0.000000000E+00  0.000000000E+00  2.313245932E+02  2.313245932E+02  0.000000000E+00  0.00000E+00  9.000E+00
       2    -1     0     0   512     0  0.000000000E+00  0.000000000E+00 -1.680518842E+01  1.680518842E+01  0.000000000E+00  0.00000E+00  9.000E+00
      21     1     1     2   514   511  1.271614771E+01  4.886448849E-01  1.041681755E+01  1.644534202E+01  3.371747881E-07  0.00000E+00  9.000E+00
       2     1     1     2   511     0 -7.593440071E+00 -1.255995742E+00 -1.268160453E+01  1.483812154E+01  3.300000131E-01  0.00000E+00  9.000E+00
       2     1     1     2   512     0 -5.122707638E+00  7.673508570E-01  2.167841917E+02  2.168463180E+02  3.300000131E-01  0.00000E+00  9.000E+00
</event>
<event>
      5  10001  2.40292E+09  7.73013E+00 -1.00000E+00  2.09571E-01
      21    -1     0     0   513   516  0.000000000E+00  0.000000000E+00  4.195485628E+01  4.195485628E+01  0.000000000E+00  0.00000E+00  9.000E+00
      21    -1     0     0   512   511  0.000000000E+00  0.000000000E+00 -1.447016149E+02  1.447016149E+02  0.000000000E+00  0.00000E+00  9.000E+00
      21     1     1     2   515   516 -3.934828459E-01 -9.578849607E+00  3.882050639E+01  3.998675912E+01  6.743495762E-07  0.00000E+00  9.000E+00
      21     1     1     2   512   515  7.764265337E+00  1.190832576E+01 -1.836046916E+01  2.322065603E+01  0.000000000E+00  0.00000E+00  9.000E+00
      21     1     1     2   513   511 -7.370782491E+00 -2.329476150E+00 -1.232067958E+02  1.234490560E+02  0.000000000E+00  0.00000E+00  9.000E+00
</event>
<event>
      5  10001  2.40292E+09  9.78000E+00 -1.00000E+00  1.96822E-01
      21    -1     0     0   514   512  0.000000000E+00  0.000000000E+00  1.230299308E+01  1.230299308E+01  0.000000000E+00  0.00000E+00  9.000E+00
       2    -1     0     0   513     0  0.000000000E+00  0.000000000E+00 -1.145695819E+02  1.145695819E+02  0.000000000E+00  0.00000E+00  9.000E+00
      21     1     1     2   515   512  1.042191478E+01 -1.121751778E+00  7.022780522E+00  1.261721368E+01  4.380028980E-07  0.00000E+00  9.000E+00
       2     1     1     2   514     0 -7.711105182E+00  8.336645030E+00 -1.046386088E+02  1.052535422E+02  3.300000131E-01  0.00000E+00  9.000E+00
      21     1     1     2   513   515 -2.710809600E+00 -7.214893252E+00 -4.650760509E+00  9.001819074E+00  1.332800375E-07  0.00000E+00  9.000E+00
</event>
<event>
      5  10001  2.40292E+09  6.22972E+00 -1.00000E+00  2.22891E-01
      21    -1     0     0   511   513  0.000000000E+00  0.000000000E+00  5.226274558E+00  5.226274558E+00  0.000000000E+00  0.00000E+00  9.000E+00
      21    -1     0     0   512   515  0.000000000E+00  0.000000000E+00 -2.722249716E+01  2.722249716E+01  0.000000000E+00  0.00000E+00  9.000E+00
      21     1     1     2   511   515 -2.336375336E+00  1.050255378E+01 -1.349054190E+01  1.725563694E+01  1.685873940E-07  0.00000E+00  9.000E+00
      21     1     1     2   514   513 -1.683905901E+00 -5.917152012E+00 -2.520203117E+00  6.648281791E+00  1.788139343E-07  0.00000E+00  9.000E+00
      21     1     1     2   512   514  4.020281237E+00 -4.585401766E+00 -5.985477589E+00  8.544852986E+00  1.192092896E-07  0.00000E+00  9.000E+00
</event>
<event>
      5  10001  2.40292E+09  4.17008E+00 -1.00000E+00  2.59176E-01
      21    -1     0     0   511   514  0.000000000E+00  0.000000000E+00  6.868474451E+00  6.868474451E+00  0.000000000E+00  0.00000E+00  9.000E+00
      21    -1     0     0   512   516  0.000000000E+00  0.000000000E+00 -6.393836059E+01  6.393836059E+01  0.000000000E+00  0.00000E+00  9.000E+00
      21     1     1     2   512   517  7.762308465E+00 -9.351616392E+00 -2.514589702E+01  2.792887930E+01  3.371747881E-07  0.00000E+00  9.000E+00
      21     1     1     2   517   514 -8.617033499E+00  5.270070992E+00 -3.579211017E+01  3.719008019E+01  9.536743164E-07  0.00000E+00  9.000E+00
      21     1     1     2   511   516  8.547250338E-01  4.081545401E+00  3.868121053E+00  5.687875545E+00  1.192092896E-07  0.00000E+00  9.000E+00
</event>
<event>
      5  10001  2.40292E+09  8.62520E+00 -1.00000E+00  2.03424E-01
      21    -1     0     0   513   514  0.000000000E+00  0.000000000E+00  6.915611009E+00  6.915611009E+00  0.000000000E+00  0.00000E+00  9.000E+00
      21    -1     0     0   515   513  0.000000000E+00  0.000000000E+00 -1.251008587E+02  1.251008587E+02  0.000000000E+00  0.00000E+00  9.000E+00
      21     1     1     2   516   512 -7.875695349E+00  9.693016582E+00 -3.107752109E+00  1.287009211E+01  6.151130033E-07  0.00000E+00  9.000E+00
      21     1     1     2   515   516  1.367903294E+01 -3.312152863E+00 -1.047480161E+02  1.056893239E+02  1.907348633E-06  0.00000E+00  9.000E+00
      21     1     1     2   512   514 -5.803337593E+00 -6.380863720E+00 -1.032947944E+01  1.345705371E+01  2.920019320E-07  0.00000E+00  9.000E+00
</event>
<event>
      5  10001  2.40292E+09  5.23342E+00 -1.00000E+00  2.35020E-01
      21    -1     0     0   511   513  0.000000000E+00  0.000000000E+00  7.158626325E+01  7.158626325E+01  0.000000000E+00  0.00000E+00  9.000E+00
      21    -1     0     0   512   514  0.000000000E+00  0.000000000E+00 -6.535158355E+00  6.535158355E+00  0.000000000E+00  0.00000E+00  9.000E+00
      21     1     1     2   511   514 -8.384103347E+00 -1.374331247E+01  3.105296858E+01  3.497797427E+01  4.768371582E-07  0.00000E+00  9.000E+00
      21     1     1     2   512   515  3.698558448E+00  1.141215076E+01  3.930856699E+00  1.262411003E+01  1.460009660E-07  0.00000E+00  9.000E+00
      21     1     1     2   515   513  4.685544899E+00  2.331161710E+00  3.006727962E+01  3.051933730E+01  4.768371582E-07  0.00000E+00  9.000E+00
</event>
<event>
      5  10001  2.40292E+09  5.48838E+00 -1.00000E+00  2.31573E-01
      21    -1     0     0   516   512  0.000000000E+00  0.000000000E+00  2.593559366E+01  2.593559366E+01  0.000000000E+00  0.00000E+00  9.000E+00
      21    -1     0     0   517   513  0.000000000E+00  0.000000000E+00 -6.231886595E+00  6.231886595E+00  0.000000000E+00  0.00000E+00  9.000E+00
      21     1     1     2   516   513 -6.309054384E+00  7.187933372E+00  1.817510162E+01  2.053788870E+01  2.384185791E-07  0.00000E+00  9.000E+00
      21     1     1     2   511   512  4.910799144E+00 -5.855794007E+00  3.892917654E+00  8.576775591E+00  1.115100797E-07  0.00000E+00  9.000E+00
      21     1     1     2   517   511  1.398255240E+00 -1.332139365E+00 -2.364312217E+00  3.052815957E+00  1.460009660E-07  0.00000E+00  9.000E+00
</event>
<event>
      5  10001  2.40292E+09  4.72735E+00 -1.00000E+00  2.47373E-01
      21    -1     0     0   512   511  0.000000000E+00  0.000000000E+00  5.549512422E+01  5.549512422E+01  0.000000000E+00  0.00000E+00  9.000E+00
      21    -1     0     0   515   514  0.000000000E+00  0.000000000E+00 -1.789802852E+02  1.789802852E+02  0.000000000E+00  0.00000E+00  9.000E+00
      21     1     1     2   515   517  1.722529482E+00  9.704147385E+00 -1.379480671E+02  1.382996992E+02  1.907348633E-06  0.00000E+00  9.000E+00
      21     1     1     2   517   511 -3.174549343E+00 -1.420297544E+01 -3.945367272E+01  4.205228372E+01  8.259061849E-07  0.00000E+00  9.000E+00
      21     1     1     2   512   514  1.452019861E+00  4.498828059E+00  5.391657887E+01  5.412342647E+01  6.743495762E-07  0.00000E+00  9.000E+00
</event>
<event>
      5  10001  2.40292E+09  2.18374E+01 -1.00000E+00  1.63240E-01
      21    -1     0     0   513   515  0.000000000E+00  0.000000000E+00  1.710466814E+02  1.710466814E+02  0.000000000E+00  0.00000E+00  9.000E+00
      21    -1     0     0   516   513  0.000000000E+00  0.000000000E+00 -1.817100955E+01  1.817100955E+01  0.000000000E+00  0.00000E+00  9.000E+00
      21     1     1     2   516   514  9.769971997E+00 -2.787231013E+00 -1.649961266E+01  1.937674450E+01  4.129530925E-07  0.00000E+00  9.000E+00
      21     1     1     2   514   511 -2.277733982E+00 -1.488440347E+00  1.653191143E+01  1.675433145E+01  0.000000000E+00  0.00000E+00  9.000E+00
      21     1     1     2   511   515 -7.492238015E+00  4.275671359E+00  1.528433731E+02  1.530866150E+02  1.907348633E-06  0.00000E+00  9.000E+00
</event>
<event>
      5  10001  2.40292E+09  5.92327E+00 -1.00000E+00  2.26264E-01
      21    -1     0     0   512   515  0.000000000E+00  0.000000000E+00  7.509154197E+02  7.509154197E+02  0.000000000E+00  0.00000E+00  9.000E+00
      -2    -1     0     0     0   512  0.000000000E+00  0.000000000E+00 -7.652619059E-01  7.652619059E-01  0.000000000E+00  0.00000E+00  9.000E+00
      -2     1     1     2     0   513  4.447826765E+00  7.912666831E+00  4.856390215E+01  4.940602141E+01  3.300000131E-01  0.00000E+00  9.000E+00
      21     1     1     2   511   515 -8.865078142E+00 -7.506477775E+00  6.852042219E+02  6.853026795E+02  0.000000000E+00  0.00000E+00  9.000E+00
      21     1     1     2   513   511  4.417251377E+00 -4.061890558E-01  1.638203376E+01  1.697198072E+01  3.371747881E-07  0.00000E+00  9.000E+00
</event>
<event>
      5  10001  2.40292E+09  2.71508E+00 -1.00000E+00  3.10516E-01
      21    -1     0     0   514   515  0.000000000E+00  0.000000000E+00  6.462602797E+01  6.462602797E+01  0.000000000E+00  0.00000E+00  9.000E+00
      21    -1     0     0   516   514  0.000000000E+00  0.000000000E+00 -3.945851471E+01  3.945851471E+01  0.000000000E+00  0.00000E+00  9.000E+00
      21     1     1     2   511   515 -1.034562054E+01  3.574401552E+00  6.325031562E+01  6.419042480E+01  9.536743164E-07  0.00000E+00  9.000E+00
      21     1     1     2   512   511  7.991329150E+00 -6.697943618E-01 -2.853155669E+01  2.963713368E+01  7.539457465E-07  0.00000E+00  9.000E+00
      21     1     1     2   516   512  2.354291391E+00 -2.904607191E+00 -9.551245674E+00  1.025698420E+01  1.192092896E-07  0.00000E+00  9.000E+00
</event>
<event>
      5  10001  2.40292E+09  5.71106E+00 -1.00000E+00  2.28772E-01
      21    -1     0     0   513   512  0.000000000E+00  0.000000000E+00  1.764366523E+02  1.764366523E+02  0.000000000E+00  0.00000E+00  9.000E+00
      21    -1     0     0   511   513  0.000000000E+00  0.000000000E+00 -3.216819681E+00  3.216819681E+00  0.000000000E+00  0.00000E+00  9.000E+00
      21     1     1     2   516   517  8.424993504E+00 -3.866425443E+00  2.339610215E+01  2.516559868E+01  6.743495762E-07  0.00000E+00  9.000E+00
      21     1     1     2   517   512 -9.488847409E+00  9.477525748E+00  1.478325727E+02  1.484396553E+02  0.000000000E+00  0.00000E+00  9.000E+00
      21     1     1     2   511   516  1.063853905E+00 -5.611100305E+00  1.991157803E+00  6.048218015E+00  8.688795410E-08  0.00000E+00  9.000E+00
</event>
<event>
      5  10001  2.40292E+09  1.02081E+01 -1.00000E+00  1.94671E-01
      21    -1     0     0   514   516  0.000000000E+00  0.000000000E+00  2.725675915E+01  2.725675915E+01  0.000000000E+00  0.00000E+00  9.000E+00
      21    -1     0     0   511   515  0.000000000E+00  0.000000000E+00 -4.504548742E+00  4.504548742E+00  0.000000000E+00  0.00000E+00  9.000E+00
      21     1     1     2   514   515 -7.483241752E+00 -4.928837205E+00  1.090908612E+01  1.411738302E+01  1.192092896E-07  0.00000E+00  9.000E+00
      21     1     1     2   511   512  1.719569054E+00  5.121689745E+00  1.036824746E+01  1.169141475E+01  2.064765462E-07  0.00000E+00  9.000E+00
      21     1     1     2   512   516  5.763672698E+00 -1.928525402E-01  1.474876829E+00  5.952510121E+00  7.884953353E-08  0.00000E+00  9.000E+00
</event>
<event>
      5  10001  2.40292E+09  1.13223E+01 -1.00000E+00  1.89668E-01
      21    -1     0     0   511   514  0.000000000E+00  0.000000000E+00  1.542461452E+02  1.542461452E+02  0.000000000E+00  0.00000E+00  9.000E+00
      21    -1     0     0   512   513  0.000000000E+00  0.000000000E+00 -2.351468356E+01  2.351468356E+01  0.000000000E+00  0.00000E+00  9.000E+00
      21     1     1     2   511   513 -4.575083211E+00  7.707900905E+00  7.676352580E+00  1.180125043E+01  2.528810911E-07  0.00000E+00  9.000E+00
       4     1     1     2   512     0  1.253109576E+01 -1.575833734E+01 -1.641661110E+01  2.602131198E+01  1.500000000E+00  0.00000E+00  9.000E+00
      -4     1     1     2     0   514 -7.956012553E+00  8.050436438E+00  1.394717201E+02  1.399382663E+02  1.500000000E+00  0.00000E+00  9.000E+00
</event>
<event>
      5  10001  2.40292E+09  7.04826E+00 -1.00000E+00  2.15062E-01
      21    -1     0     0   515   512  0.000000000E+00  0.000000000E+00  1.417134955E+02  1.417134955E+02  0.000000000E+00  0.00000E+00  9.000E+00
       2    -1     0     0   514     0  0.000000000E+00  0.000000000E+00 -1.125659366E+00  1.125659366E+00  0.000000000E+00  0.00000E+00  9.000E+00
      21     1     1     2   511   512 -3.478688281E+00 -1.049243759E+00  6.315976539E+01  6.326419326E+01  6.743495762E-07  0.00000E+00  9.000E+00
       2     1     1     2   515     0  6.000869147E+00  7.655955773E+00  2.799700869E+01  2.964060534E+01  3.300000131E-01  0.00000E+00  9.000E+00
      21     1     1     2   514   511 -2.522180866E+00 -6.606712014E+00  4.943106207E+01  4.993435628E+01  0.000000000E+00  0.00000E+00  9.000E+00
</event>
<event>
      5  10001  2.40292E+09  3.03495E+01 -1.00000E+00  1.52656E-01
      21    -1     0     0   513   514  0.000000000E+00  0.000000000E+00  6.114739938E+02  6.114739938E+02  0.000000000E+00  0.00000E+00  9.000E+00
      21    -1     0     0   512   511  0.000000000E+00  0.000000000E+00 -7.375734579E-01  7.375734579E-01  0.000000000E+00  0.00000E+00  9.000E+00
      21     1     1     2   513   511  1.850365155E+00 -1.033777748E+01  3.313265902E+02  3.314929907E+02  5.394796609E-06  0.00000E+00  9.000E+00
      21     1     1     2   515   514  3.225757150E+00  8.522289195E+00  2.673890747E+02  2.675442995E+02  3.814697266E-06  0.00000E+00  9.000E+00
      21     1     1     2   512   515 -5.076122306E+00  1.815488284E+00  1.202075543E+01  1.317427708E+01  6.307962682E-07  0.00000E+00  9.000E+00
</event>
<event>
      5  10001  2.40292E+09  3.98886E+00 -1.00000E+00  2.63647E-01
      21    -1     0     0   513   511  0.000000000E+00  0.000000000E+00  2.730691946E+02  2.730691946E+02  0.000000000E+00  0.00000E+00  9.000E+00
      -1    -1     0     0     0   513  0.000000000E+00  0.000000000E+00 -1.691801306E+02  1.691801306E+02  0.000000000E+00  0.00000E+00  9.000E+00
      -1     1     1     2     0   512 -1.255884617E-01 -1.004027990E+01 -1.688271588E+02  1.691258154E+02  3.300000131E-01  0.00000E+00  9.000E+00
       2     1     1     2   512     0  4.114267008E+00  1.007617264E+01  2.053584879E+02  2.056469642E+02  3.300000131E-01  0.00000E+00  9.000E+00
      -2     1     1     2     0   511 -3.988678547E+00 -3.589274465E-02  6.735773488E+01  6.747654551E+01  3.300000131E-01  0.00000E+00  9.000E+00
</event>
<event>
      5  10001  2.40292E+09  1.44950E+01 -1.00000E+00  1.78748E-01
      21    -1     0     0   514   512  0.000000000E+00  0.000000000E+00  3.406711352E+02  3.406711352E+02  0.000000000E+00  0.00000E+00  9.000E+00
      21    -1     0     0   513   511  0.000000000E+00  0.000000000E+00 -3.767763683E+00  3.767763683E+00  0.000000000E+00  0.00000E+00  9.000E+00
      21     1     1     2   514   511  1.278928614E+01  9.944252770E+00  1.821380507E+02  1.828571123E+02  4.672030912E-06  0.00000E+00  9.000E+00
      21     1     1     2   515   512 -8.871126181E+00 -2.389966159E+01  1.330691968E+02  1.354891207E+02  2.697398305E-06  0.00000E+00  9.000E+00
      21     1     1     2   513   515 -3.918159959E+00  1.395540882E+01  2.169612396E+01  2.609266578E+01  7.539457465E-07  0.00000E+00  9.000E+00
</event>
<event>
      5  10001  2.40292E+09  9.05527E+00 -1.00000E+00  2.00813E-01
      21    -1     0     0   516   511  0.000000000E+00  0.000000000E+00  1.509253253E+02  1.509253253E+02  0.000000000E+00  0.00000E+00  9.000E+00
      21    -1     0     0   513   516  0.000000000E+00  0.000000000E+00 -6.930693545E+01  6.930693545E+01  0.000000000E+00  0.00000E+00  9.000E+00
      21     1     1     2   513   517 -1.342518237E+01 -8.493013893E+00 -6.778721717E+01  6.962380066E+01  0.000000000E+00  0.00000E+00  9.000E+00
      21     1     1     2   512   511  9.599496454E+00  9.575100906E+00  8.446806679E+01  8.554932611E+01  1.651812370E-06  0.00000E+00  9.000E+00
      21     1     1     2   517   512  3.825685919E+00 -1.082087013E+00  6.493754023E+01  6.505913400E+01  0.000000000E+00  0.00000E+00  9.000E+00
</event>
<event>
      5  10001  2.40292E+09  1.31724E+01 -1.00000E+00  1.82819E-01
      21    -1     0     0   514   512  0.000000000E+00  0.000000000E+00  5.842815354E+01  5.842815354E+01  0.000000000E+00  0.00000E+00  9.000E+00
      21    -1     0     0   511   515  0.000000000E+00  0.000000000E+00 -5.589848033E+01  5.589848033E+01  0.000000000E+00  0.00000E+00  9.000E+00
      21     1     1     2   514   515  2.053690442E+01 -1.020413041E+01  4.008277774E+01  4.617919219E+01  9.536743164E-07  0.00000E+00  9.000E+00
      21     1     1     2   513   512 -2.175746357E+01  2.331987098E+01 -4.052352115E+00  3.215004139E+01  7.702617635E-07  0.00000E+00  9.000E+00
      21     1     1     2   511   513  1.220559150E+00 -1.311574058E+01 -3.350075241E+01  3.599740029E+01  6.743495762E-07  0.00000E+00  9.000E+00
</event>
<event>
      5  10001  2.40292E+09  7.68899E+00 -1.00000E+00  2.09880E-01
      -2    -1     0     0     0   516  0.000000000E+00  0.000000000E+00  4.623710438E+01  4.623710438E+01  0.000000000E+00  0.00000E+00  9.000E+00
      21    -1     0     0   516   514  0.000000000E+00  0.000000000E+00 -6.115439034E+00  6.115439034E+00  0.000000000E+00  0.00000E+00  9.000E+00
      -2     1     1     2     0   512  4.633828387E+00  7.088230345E+00  3.331127509E+01  3.437245005E+01  3.300000131E-01  0.00000E+00  9.000E+00
      21     1     1     2   511   514  3.577745939E-01 -8.786233171E+00 -6.803850502E-01  8.819797039E+00  1.425379997E-07  0.00000E+00  9.000E+00
      21     1     1     2   512   511 -4.991602981E+00  1.698002826E+00  7.490775310E+00  9.160296319E+00  1.192092896E-07  0.00000E+00  9.000E+00
</event>
<event>
      5  10001  2.40292E+09  1.96999E+01 -1.00000E+00  1.66871E-01
      -1    -1     0     0     0   513  0.000000000E+00  0.000000000E+00  2.158754575E+02  2.158754575E+02  0.000000000E+00  0.00000E+00  9.000E+00
      21    -1     0     0   515   511  0.000000000E+00  0.000000000E+00 -4.726591196E+00  4.726591196E+00  0.000000000E+00  0.00000E+00  9.000E+00
      -1     1     1     2     0   514 -1.518326236E+01  8.518991765E-01  1.707507041E+02  1.714268621E+02  3.300000131E-01  0.00000E+00  9.000E+00
      21     1     1     2   515   513  1.684772812E+01  8.254393008E+00  2.615149615E+01  3.218511609E+01  9.536743164E-07  0.00000E+00  9.000E+00
      21     1     1     2   514   511 -1.664465754E+00 -9.106292184E+00  1.424666610E+01  1.699007059E+01  0.000000000E+00  0.00000E+00  9.000E+00
</event>
<event>
      5  10001  2.40292E+09  1.49014E+01 -1.00000E+00  1.77606E-01
       2    -1     0     0   514     0  0.000000000E+00  0.000000000E+00  1.352623909E+03  1.352623909E+03  0.000000000E+00  0.00000E+00  9.000E+00
      21    -1     0     0   512   511  0.000000000E+00  0.000000000E+00 -7.921755269E-01  7.921755269E-01  0.000000000E+00  0.00000E+00  9.000E+00
      21     1     1     2   514   511  1.136780471E+00  9.162620634E+00  3.244150457E+01  3.372976587E+01  1.907348633E-06  0.00000E+00  9.000E+00
       2     1     1     2   513     0 -1.004800630E+01 -6.889836596E+00  1.136223944E+03  1.136289308E+03  3.300000131E-01  0.00000E+00  9.000E+00
      21     1     1     2   512   513  8.911225824E+00 -2.272784038E+00  1.831662847E+02  1.833970101E+02  3.814697266E-06  0.00000E+00  9.000E+00
</event>
<event>
      5  10001  2.40292E+09  6.95726E+00 -1.00000E+00  2.15859E-01
      21    -1     0     0   512   511  0.000000000E+00  0.000000000E+00  4.538831652E+00  4.538831652E+00  0.000000000E+00  0.00000E+00  9.000E+00
       1    -1     0     0   514     0  0.000000000E+00  0.000000000E+00 -3.798497382E+02  3.798497382E+02  0.000000000E+00  0.00000E+00  9.000E+00
       1     1     1     2   512     0 -7.528622881E+00  1.451758018E+01 -2.958479265E+02  2.962997550E+02  3.300000131E-01  0.00000E+00  9.000E+00
       5     1     1     2   514     0  7.674081125E-01 -1.571847935E+01 -7.783356440E+01  7.955352449E+01  4.800000191E+00  0.00000E+00  9.000E+00
      -5     1     1     2     0   511  6.761214769E+00  1.200899175E+00 -1.629415603E+00  8.535290330E+00  4.800000191E+00  0.00000E+00  9.000E+00
</event>
<event>
      5  10001  2.40292E+09  1.83387E+00 -1.00000E+00  3.81372E-01
      -2    -1     0     0     0   511  0.000000000E+00  0.000000000E+00  3.505121541E+02  3.505121541E+02  0.000000000E+00  0.00000E+00  9.000E+00
      21    -1     0     0   512   514  0.000000000E+00  0.000000000E+00 -1.547139184E+00  1.547139184E+00  0.000000000E+00  0.00000E+00  9.000E+00
      -2     1     1     2     0   513  1.139615289E+01  6.034016110E+00  3.120986464E+02  3.123650999E+02  3.300000131E-01  0.00000E+00  9.000E+00
      21     1     1     2   512   511 -1.000998672E+01 -7.234541602E+00  3.482450861E+01  3.694976084E+01  1.261592536E-06  0.00000E+00  9.000E+00
      21     1     1     2   513   514 -1.386166174E+00  1.200525492E+00  2.041859915E+00  2.744432551E+00  4.214684851E-08  0.00000E+00  9.000E+00
</event>
<event>
      5  10001  2.40292E+09  4.91835E+00 -1.00000E+00  2.43877E-01
      21    -1     0     0   515   512  0.000000000E+00  0.000000000E+00  1.734353218E+01  1.734353218E+01  0.000000000E+00  0.00000E+00  9.000E+00
      21    -1     0     0   513   516  0.000000000E+00  0.000000000E+00 -8.670114560E+01  8.670114560E+01  0.000000000E+00  0.00000E+00  9.000E+00
      21     1     1     2   515   516 -1.130182618E+01  1.083932833E+01  1.282335779E+01  2.024007951E+01  2.384185791E-07  0.00000E+00  9.000E+00
      21     1     1     2   511   512  7.215637102E+00 -3.520341206E+00 -4.128294819E+01  4.205639109E+01  0.000000000E+00  0.00000E+00  9.000E+00
      21     1     1     2   513   511  4.086189077E+00 -7.318987126E+00 -4.089802303E+01  4.174820717E+01  0.000000000E+00  0.00000E+00  9.000E+00
</event>
<event>
      5  10001  2.40292E+09  4.00155E+00 -1.00000E+00  2.63322E-01
      21    -1     0     0   514   511  0.000000000E+00  0.000000000E+00  2.125800622E+01  2.125800622E+01  0.000000000E+00  0.00000E+00  9.000E+00
      21    -1     0     0   513   517  0.000000000E+00  0.000000000E+00 -1.653282761E+01  1.653282761E+01  0.000000000E+00  0.00000E+00  9.000E+00
      21     1     1     2   514   517 -1.354747595E+01 -4.902732789E+00 -9.010188442E+00  1.699277462E+01  2.384185791E-07  0.00000E+00  9.000E+00
       1     1     1     2   513     0  9.785105135E+00  9.235778670E-01  1.068183945E+01  1.451936199E+01  3.300000131E-01  0.00000E+00  9.000E+00
      -1     1     1     2     0   511  3.762370816E+00  3.979154922E+00  3.053527596E+00  6.278697225E+00  3.300000131E-01  0.00000E+00  9.000E+00
</event>
<event>
      5  10001  2.40292E+09  4.23848E+00 -1.00000E+00  2.57578E-01
       1    -1     0     0   512     0  0.000000000E+00  0.000000000E+00  1.531788723E+03  1.531788723E+03  0.000000000E+00  0.00000E+00  9.000E+00
      21    -1     0     0   515   511  0.000000000E+00  0.000000000E+00 -2.037483281E+01  2.037483281E+01  0.000000000E+00  0.00000E+00  9.000E+00
      21     1     1     2   512   511 -1.384484974E+01 -9.345631197E+00 -1.320755924E+01  2.129460748E+01  2.920019320E-07  0.00000E+00  9.000E+00
      21     1     1     2   515   513  9.606945946E+00  9.275787567E+00  1.116529285E+01  1.740682078E+01  4.460403188E-07  0.00000E+00  9.000E+00
       1     1     1     2   513     0  4.237903792E+00  6.984363056E-02  1.513456156E+03  1.513462127E+03  3.300000131E-01  0.00000E+00  9.000E+00
</event>
<event>
      5  10001  2.40292E+09  9.83942E+00 -1.00000E+00  1.96515E-01
      21    -1     0     0   514   511  0.000000000E+00  0.000000000E+00  9.231171649E-01  9.231171649E-01  0.000000000E+00  0.00000E+00  9.000E+00
      21    -1     0     0   516   514  0.000000000E+00  0.000000000E+00 -1.287719001E+02  1.287719001E+02  0.000000000E+00  0.00000E+00  9.000E+00
      21     1     1     2   516   517 -4.063838228E-01  7.518753027E+00 -3.053108835E+01  3.144589243E+01  5.840038640E-07  0.00000E+00  9.000E+00
      21     1     1     2   517   512  4.645833148E+00 -3.844752264E+00 -7.481683244E+01  7.505947176E+01  1.348699152E-06  0.00000E+00  9.000E+00
      21     1     1     2   512   511 -4.239449325E+00 -3.674000763E+00 -2.250086220E+01  2.318965312E+01  4.129530925E-07  0.00000E+00  9.000E+00
</event>
<event>
      5  10001  2.40292E+09  6.00621E+00 -1.00000E+00  2.25324E-01
      21    -1     0     0   513   516  0.000000000E+00  0.000000000E+00  1.024940315E+02  1.024940315E+02  0.000000000E+00  0.00000E+00  9.000E+00
      21    -1     0     0   511   513  0.000000000E+00  0.000000000E+00 -2.878855075E+01  2.878855075E+01  0.000000000E+00  0.00000E+00  9.000E+00
      21     1     1     2   511   515  1.667445393E+01  8.078510928E+00 -2.474835157E+01  3.091570245E+01  8.259061849E-07  0.00000E+00  9.000E+00
      21     1     1     2   515   514 -1.079284615E+01 -2.208624837E+00  4.932527566E+01  5.054054185E+01  6.743495762E-07  0.00000E+00  9.000E+00
      21     1     1     2   514   516 -5.881607782E+00 -5.869886091E+00  4.912855668E+01  4.982633795E+01  0.000000000E+00  0.00000E+00  9.000E+00
</event>
<event>
      5  10001  2.40292E+09  8.67468E+00 -1.00000E+00  2.03114E-01
      21    -1     0     0   512   515  0.000000000E+00  0.000000000E+00  1.719917773E+01  1.719917773E+01  0.000000000E+00  0.00000E+00  9.000E+00
      21    -1     0     0   511   513  0.000000000E+00  0.000000000E+00 -3.208363378E+02  3.208363378E+02  0.000000000E+00  0.00000E+00  9.000E+00
      21     1     1     2   512   516  8.308823226E+00  7.284293107E+00  1.483114408E+01  1.849487237E+01  9.536743164E-07  0.00000E+00  9.000E+00
      21     1     1     2   511   515 -2.543966938E+00 -1.376630275E+01 -2.653192076E+02  2.656882850E+02  3.814697266E-06  0.00000E+00  9.000E+00
      21     1     1     2   516   513 -5.764856288E+00  6.482009643E+00 -5.314909648E+01  5.385235811E+01  6.743495762E-07  0.00000E+00  9.000E+00
</event>
<event>
      5  10001  2.40292E+09  7.11070E+00 -1.00000E+00  2.14524E-01
      21    -1     0     0   514   511  0.000000000E+00  0.000000000E+00  5.779477313E+01  5.779477313E+01  0.000000000E+00  0.00000E+00  9.000E+00
      21    -1     0     0   516   517  0.000000000E+00  0.000000000E+00 -7.172120374E+00  7.172120374E+00  0.000000000E+00  0.00000E+00  9.000E+00
      21     1     1     2   514   517 -2.887336162E+00 -1.114878255E+01  4.561301596E+01  4.704443950E+01  6.743495762E-07  0.00000E+00  9.000E+00
      21     1     1     2   516   512  6.303428978E+00  7.119334356E+00 -1.405559477E+00  9.612166041E+00  8.296615426E-08  0.00000E+00  9.000E+00
      21     1     1     2   512   511 -3.416092817E+00  4.029448192E+00  6.415196266E+00  8.310287961E+00  8.429369702E-08  0.00000E+00  9.000E+00
</event>
<event>
      5  10001  2.40292E+09  7.38691E+00 -1.00000E+00  2.12234E-01
       2    -1     0     0   513     0  0.000000000E+00  0.000000000E+00  6.819863512E+01  6.819863512E+01  0.000000000E+00  0.00000E+00  9.000E+00
      21    -1     0     0   511   513  0.000000000E+00  0.000000000E+00 -3.086606410E+01  3.086606410E+01  0.000000000E+00  0.00000E+00  9.000E+00
      21     1     1     2   511   515  1.344029180E+01 -6.614350418E+00 -1.702571550E+01  2.267743511E+01  3.371747881E-07  0.00000E+00  9.000E+00
      21     1     1     2   515   516 -7.955697089E+00  1.156249009E+01 -6.225540774E+00  1.535388066E+01  5.717076687E-07  0.00000E+00  9.000E+00
       2     1     1     2   516     0 -5.484594710E+00 -4.948139676E+00  6.058382729E+01  6.103338344E+01  3.300000131E-01  0.00000E+00  9.000E+00
</event>
<event>
      5  10001  2.40292E+09  5.12160E+00 -1.00000E+00  2.36620E-01
      21    -1     0     0   512   515  0.000000000E+00  0.000000000E+00  2.541541095E+01  2.541541095E+01  0.000000000E+00  0.00000E+00  9.000E+00
      21    -1     0     0   511   513  0.000000000E+00  0.000000000E+00 -1.925080250E+02  1.925080250E+02  0.000000000E+00  0.00000E+00  9.000E+00
      21     1     1     2   512   514 -6.254078403E+00 -1.133714411E+01  1.784408834E+01  2.204667372E+01  3.371747881E-07  0.00000E+00  9.000E+00
      21     1     1     2   511   515  2.389500262E+00  7.976224654E+00  2.245958024E+00  8.624047697E+00  7.884953353E-08  0.00000E+00  9.000E+00
      21     1     1     2   514   513  3.864578141E+00  3.360919455E+00 -1.871826605E+02  1.872527146E+02  2.697398305E-06  0.00000E+00  9.000E+00
</event>
<event>
      5  10001  2.40292E+09  7.53310E+00 -1.00000E+00  2.11077E-01
       2    -1     0     0   512     0  0.000000000E+00  0.000000000E+00  2.255256467E+02  2.255256467E+02  0.000000000E+00  0.00000E+00  9.000E+00
      21    -1     0     0   511   512  0.000000000E+00  0.000000000E+00 -2.723675162E+00  2.723675162E+00  0.000000000E+00  0.00000E+00  9.000E+00
      21     1     1     2   514   516  7.456723455E+00  2.340738826E+00  2.922503849E+01  3.025201907E+01  1.215700987E-06  0.00000E+00  9.000E+00
       2     1     1     2   516     0 -1.452012024E+01  2.766257767E-01  1.881579987E+02  1.887179159E+02  3.300000131E-01  0.00000E+00  9.000E+00
      21     1     1     2   511   514  7.063396787E+00 -2.617364603E+00  5.418934388E+00  9.279386916E+00  8.429369702E-08  0.00000E+00  9.000E+00
</event>
<event>
      5  10001  2.40292E+09  3.17457E+00 -1.00000E+00  2.89476E-01
      21    -1     0     0   511   513  0.000000000E+00  0.000000000E+00  6.303719914E-01  6.303719914E-01  0.000000000E+00  0.00000E+00  9.000E+00
       1    -1     0     0   515     0  0.000000000E+00  0.000000000E+00 -2.168383063E+02  2.168383063E+02  0.000000000E+00  0.00000E+00  9.000E+00
      21     1     1     2   515   513 -4.160829727E+00 -8.168768529E+00 -1.432825382E+02  1.435755099E+02  0.000000000E+00  0.00000E+00  9.000E+00
      21     1     1     2   511   512  4.888017945E+00  7.306442310E+00 -4.034565497E+01  4.129223527E+01  4.768371582E-07  0.00000E+00  9.000E+00
       1     1     1     2   512     0 -7.271882188E-01  8.623262193E-01 -3.257974110E+01  3.260093310E+01  3.300000131E-01  0.00000E+00  9.000E+00
</event>
<event>
      5  10001  2.40292E+09  4.69665E+00 -1.00000E+00  2.47958E-01
       1    -1     0     0   514     0  0.000000000E+00  0.000000000E+00  2.100346474E+01  2.100346474E+01  0.000000000E+00  0.00000E+00  9.000E+00
      21    -1     0     0   511   514  0.000000000E+00  0.000000000E+00 -7.014951129E+01  7.014951129E+01  0.000000000E+00  0.00000E+00  9.000E+00
      21     1     1     2   511   512  7.756718821E+00 -9.331956736E+00 -6.501542917E+01  6.613817455E+01  0.000000000E+00  0.00000E+00  9.000E+00
       1     1     1     2   513     0 -6.243642176E+00  6.159204326E+00  1.859806580E+01  2.056491714E+01  3.300000131E-01  0.00000E+00  9.000E+00
      21     1     1     2   512   513 -1.513076645E+00  3.172752410E+00 -2.728683181E+00  4.449884346E+00  7.300048300E-08  0.00000E+00  9.000E+00
</event>
<event>
      5  10001  2.40292E+09  9.11002E+00 -1.00000E+00  2.00495E-01
      21    -1     0     0   515   512  0.000000000E+00  0.000000000E+00  5.413564307E+00  5.413564307E+00  0.000000000E+00  0.00000E+00  9.000E+00
      21    -1     0     0   511   516  0.000000000E+00  0.000000000E+00 -4.330256649E+01  4.330256649E+01  0.000000000E+00  0.00000E+00  9.000E+00
      21     1     1     2   515   516  6.838474481E+00  9.403640537E+00 -2.916206492E+01  3.139457308E+01  4.768371582E-07  0.00000E+00  9.000E+00
      21     1     1     2   511   514  4.554116100E-01 -7.185418649E+00 -3.063897182E+00  7.824647393E+00  9.424321831E-08  0.00000E+00  9.000E+00
      21     1     1     2   514   512 -7.293886091E+00 -2.218221889E+00 -5.663040078E+00  9.496910318E+00  8.429369702E-08  0.00000E+00  9.000E+00
</event>
<event>
      5  10001  2.40292E+09  7.27165E+00 -1.00000E+00  2.13173E-01
      21    -1     0     0   513   511  0.000000000E+00  0.000000000E+00  3.250534840E+01  3.250534840E+01  0.000000000E+00  0.00000E+00  9.000E+00
       1    -1     0     0   517     0  0.000000000E+00  0.000000000E+00 -3.717114816E+01  3.717114816E+01  0.000000000E+00  0.00000E+00  9.000E+00
      21     1     1     2   513   512 -4.955716522E-01  1.149451168E+01 -8.632423073E+00  1.438360588E+01  2.920019320E-07  0.00000E+00  9.000E+00
      21     1     1     2   517   511  7.324505123E+00 -8.996713006E+00  2.793257259E+01  3.024595563E+01  0.000000000E+00  0.00000E+00  9.000E+00
       1     1     1     2   512     0 -6.828933471E+00 -2.497798679E+00 -2.396594927E+01  2.504693505E+01  3.300000131E-01  0.00000E+00  9.000E+00
</event>
<event>
      5  10001  2.40292E+09  6.92583E+00 -1.00000E+00  2.16138E-01
      21    -1     0     0   514   516  0.000000000E+00  0.000000000E+00  5.630455084E+01  5.630455084E+01  0.000000000E+00  0.00000E+00  9.000E+00
      21    -1     0     0   512   511  0.000000000E+00  0.000000000E+00 -1.330593043E+01  1.330593043E+01  0.000000000E+00  0.00000E+00  9.000E+00
      21     1     1     2   514   515  7.509612777E+00 -4.709415704E-01  4.437734685E+01  4.501072077E+01  0.000000000E+00  0.00000E+00  9.000E+00
      21     1     1     2   512   516 -1.345295347E+01 -3.084876236E+00  5.482123458E+00  1.485099647E+01  2.920019320E-07  0.00000E+00  9.000E+00
      21     1     1     2   515   511  5.943340698E+00  3.555817806E+00 -6.860849902E+00  9.748764039E+00  1.685873940E-07  0.00000E+00  9.000E+00
</event>
<event>
      5  10001  2.40292E+09  5.89739E+00 -1.00000E+00  2.26562E-01
      21    -1     0     0   513   512  0.000000000E+00  0.000000000E+00  9.594621993E+00  9.594621993E+00  0.000000000E+00  0.00000E+00  9.000E+00
      21    -1     0     0   517   513  0.000000000E+00  0.000000000E+00 -8.290171923E+01  8.290171923E+01  0.000000000E+00  0.00000E+00  9.000E+00
      21     1     1     2   517   511  1.064537339E+01  8.926234563E+00 -7.501886296E+01  7.629437357E+01  0.000000000E+00  0.00000E+00  9.000E+00
      21     1     1     2   514   512 -3.936299663E+00 -8.027177670E+00  2.750041980E+00  9.353756854E+00  1.154238983E-07  0.00000E+00  9.000E+00
      21     1     1     2   511   514 -6.709073728E+00 -8.990568931E-01 -1.038276256E+00  6.848210801E+00  2.870166344E-07  0.00000E+00  9.000E+00
</event>
<event>
      5  10001  2.40292E+09  8.24423E+00 -1.00000E+00  2.05913E-01
      21    -1     0     0   515   512  0.000000000E+00  0.000000000E+00  3.642238151E+00  3.642238151E+00  0.000000000E+00  0.00000E+00  9.000E+00
      21    -1     0     0   516   515  0.000000000E+00  0.000000000E+00 -8.358088320E+01  8.358088320E+01  0.000000000E+00  0.00000E+00  9.000E+00
      21     1     1     2   514   512  3.761947667E+00 -1.369612537E+01 -1.931370015E+01  2.397405085E+01  3.371747881E-07  0.00000E+00  9.000E+00
      21     1     1     2   516   513 -3.396610813E+00  7.424326777E+00 -5.166464901E+01  5.230576976E+01  9.536743164E-07  0.00000E+00  9.000E+00
      21     1     1     2   513   514 -3.653368543E-01  6.271798598E+00 -8.960295885E+00  1.094330074E+01  1.685873940E-07  0.00000E+00  9.000E+00
</event>
<event>
      5  10001  2.40292E+09  2.02629E+01 -1.00000E+00  1.65861E-01
      21    -1     0     0   511   516  0.000000000E+00  0.000000000E+00  9.618277242E+00  9.618277242E+00  0.000000000E+00  0.00000E+00  9.000E+00
      21    -1     0     0   512   514  0.000000000E+00  0.000000000E+00 -3.246166124E+01  3.246166124E+01  0.000000000E+00  0.00000E+00  9.000E+00
      21     1     1     2   511   514  1.212555380E+00  1.000268257E+01 -1.522891246E+01  1.826044150E+01  2.384185791E-07  0.00000E+00  9.000E+00
      21     1     1     2   512   515 -3.286125083E+00  4.986435752E-01  5.783561208E+00  6.670595455E+00  2.384185791E-07  0.00000E+00  9.000E+00
      21     1     1     2   515   516  2.073569703E+00 -1.050132614E+01 -1.339803275E+01  1.714890153E+01  2.384185791E-07  0.00000E+00  9.000E+00
</event>
<event>
      5  10001  2.40292E+09  1.30250E+01 -1.00000E+00  1.83311E-01
      21    -1     0     0   513   512  0.000000000E+00  0.000000000E+00  5.818935083E+01  5.818935083E+01  0.000000000E+00  0.00000E+00  9.000E+00
      21    -1     0     0   511   516  0.000000000E+00  0.000000000E+00 -2.654090239E+01  2.654090239E+01  0.000000000E+00  0.00000E+00  9.000E+00
      21     1     1     2   513   516  1.372956220E+01 -1.058470844E+01 -1.694166053E+01  2.423957079E+01  4.768371582E-07  0.00000E+00  9.000E+00
      21     1     1     2   517   512 -1.972543800E+00  1.619025377E+01  4.358574300E+01  4.653742837E+01  9.536743164E-07  0.00000E+00  9.000E+00
      21     1     1     2   511   517 -1.175701840E+01 -5.605545329E+00  5.004365975E+00  1.395325406E+01  1.976862425E-07  0.00000E+00  9.000E+00
</event>
<event>
      5  10001  2.40292E+09  1.08247E+01 -1.00000E+00  1.91805E-01
      21    -1     0     0   514   516  0.000000000E+00  0.000000000E+00  2.744754004E+01  2.744754004E+01  0.000000000E+00  0.00000E+00  9.000E+00
      21    -1     0     0   511   514  0.000000000E+00  0.000000000E+00 -7.268703307E+00  7.268703307E+00  0.000000000E+00  0.00000E+00  9.000E+00
      21     1     1     2   511   515  9.758912273E+00  1.124215331E+00 -1.497782500E+00  9.936980492E+00  2.279439351E-07  0.00000E+00  9.000E+00
      21     1     1     2   515   512 -3.922492512E+00 -1.823719367E+00  3.173793076E+00  5.365152592E+00  1.192092896E-07  0.00000E+00  9.000E+00
      21     1     1     2   512   516 -5.836419761E+00  6.995040361E-01  1.850282616E+01  1.941411026E+01  2.384185791E-07  0.00000E+00  9.000E+00
</event>
<event>
      5  10001  2.40292E+09  4.92793E+00 -1.00000E+00  2.43708E-01
      21    -1     0     0   514   512  0.000000000E+00  0.000000000E+00  7.483030649E+01  7.483030649E+01  0.000000000E+00  0.00000E+00  9.000E+00
      -2    -1     0     0     0   513  0.000000000E+00  0.000000000E+00 -4.955644837E+00  4.955644837E+00  0.000000000E+00  0.00000E+00  9.000E+00
      -2     1     1     2     0   512 -7.771934527E-01  1.527160066E+01  1.416975023E+01  2.084985703E+01  3.300000131E-01  0.00000E+00  9.000E+00
      21     1     1     2   511   513 -1.847433120E+00 -1.110124200E+01  2.048152167E+01  2.336970930E+01  0.000000000E+00  0.00000E+00  9.000E+00
      21     1     1     2   514   511  2.624626573E+00 -4.170358663E+00  3.522338975E+01  3.556638499E+01  4.768371582E-07  0.00000E+00  9.000E+00
</event>
<event>
      5  10001  2.40292E+09  9.35784E+00 -1.00000E+00  1.99089E-01
      21    -1     0     0   515   513  0.000000000E+00  0.000000000E+00  4.449725106E+01  4.449725106E+01  0.000000000E+00  0.00000E+00  9.000E+00
      21    -1     0     0   516   515  0.000000000E+00  0.000000000E+00 -1.514607586E+01  1.514607586E+01  0.000000000E+00  0.00000E+00  9.000E+00
      21     1     1     2   511   513 -1.083166408E+01 -2.413351070E+00  3.921177007E+01  4.075183582E+01  4.768371582E-07  0.00000E+00  9.000E+00
      21     1     1     2   512   511  3.479317893E+00  5.919244249E+00 -7.988425263E+00  1.053366241E+01  8.429369702E-08  0.00000E+00  9.000E+00
      21     1     1     2   516   512  7.352346191E+00 -3.505893180E+00 -1.872169603E+00  8.357828696E+00  1.365713982E-07  0.00000E+00  9.000E+00
</event>
<event>
      5  10001  2.40292E+09  1.87881E+01 -1.00000E+00  1.68598E-01
       2    -1     0     0   515     0  0.000000000E+00  0.000000000E+00  2.823584113E+02  2.823584113E+02  0.000000000E+00  0.00000E+00  9.000E+00
      21    -1     0     0   514   512  0.000000000E+00  0.000000000E+00 -4.114981935E+01  4.114981935E+01  0.000000000E+00  0.00000E+00  9.000E+00
      21     1     1     2   515   512 -1.232829823E+01  1.126749920E+01 -3.855564888E+01  4.201763363E+01  8.259061849E-07  0.00000E+00  9.000E+00
       2     1     1     2   511     0 -2.693937370E+00 -2.134153587E+00  1.894302976E+02  1.894617599E+02  3.300000131E-01  0.00000E+00  9.000E+00
      21     1     1     2   514   511  1.502223560E+01 -9.133345616E+00  9.033394316E+01  9.202883706E+01  1.651812370E-06  0.00000E+00  9.000E+00
</event>
<event>
      5  10001  2.40292E+09  1.05115E+01 -1.00000E+00  1.93229E-01
      -3    -1     0     0     0   513  0.000000000E+00  0.000000000E+00  1.385668031E+01  1.385668031E+01  0.000000000E+00  0.00000E+00  9.000E+00
      21    -1     0     0   515   511  0.000000000E+00  0.000000000E+00 -3.371065691E+01  3.371065691E+01  0.000000000E+00  0.00000E+00  9.000E+00
      -3     1     1     2     0   511 -1.057968141E+01 -6.384607860E+00 -2.725340812E+01  2.992809935E+01  5.000000000E-01  0.00000E+00  9.000E+00
      21     1     1     2   515   512  7.242898333E+00 -1.523003717E+00  3.948307614E+00  8.388578521E+00  2.190014490E-07  0.00000E+00  9.000E+00
      21     1     1     2   512   513  3.336783076E+00  7.907611578E+00  3.451123918E+00  9.250659353E+00  4.214684851E-08  0.00000E+00  9.000E+00
</event>
<event>
      5  10001  2.40292E+09  1.20487E+01 -1.00000E+00  1.86790E-01
       4    -1     0     0   511     0  0.000000000E+00  0.000000000E+00  7.270863535E+00  7.270863535E+00  0.000000000E+00  0.00000E+00  9.000E+00
      21    -1     0     0   512   514  0.000000000E+00  0.000000000E+00 -1.429912409E+02  1.429912409E+02  0.000000000E+00  0.00000E+00  9.000E+00
      21     1     1     2   511   514  1.383087189E+01  2.839578102E+01 -6.591894549E+01  7.309528556E+01  9.536743164E-07  0.00000E+00  9.000E+00
       4     1     1     2   515     0 -6.610526197E+00 -8.691937401E+00 -3.313012259E+01  3.491566776E+01  1.500000000E+00  0.00000E+00  9.000E+00
      21     1     1     2   512   515 -7.220345691E+00 -1.970384362E+01 -3.667130926E+01  4.225115108E+01  4.768371582E-07  0.00000E+00  9.000E+00
</event>
<event>
      5  10001  2.40292E+09  3.70658E+00 -1.00000E+00  2.71403E-01
      -4    -1     0     0     0   512  0.000000000E+00  0.000000000E+00  3.886288511E+00  3.886288511E+00  0.000000000E+00  0.00000E+00  9.000E+00
       2    -1     0     0   512     0  0.000000000E+00  0.000000000E+00 -1.234266795E+03  1.234266795E+03  0.000000000E+00  0.00000E+00  9.000E+00
      -4     1     1     2     0   513 -7.026639258E+00  4.419072062E+00 -2.324201738E+00  8.749501178E+00  1.500000000E+00  0.00000E+00  9.000E+00
       2     1     1     2   511     0  6.980065598E+00 -8.659335968E+00 -1.221770363E+03  1.221821032E+03  3.300000131E-01  0.00000E+00  9.000E+00
      21     1     1     2   513   511  4.657365980E-02  4.240263906E+00 -6.285942189E+00  7.582550778E+00  4.214684851E-07  0.00000E+00  9.000E+00
</event>
<event>
      5  10001  2.40292E+09  1.85681E+01 -1.00000E+00  1.69033E-01
       1    -1     0     0   513     0  0.000000000E+00  0.000000000E+00  5.292934814E+00  5.292934814E+00  0.000000000E+00  0.00000E+00  9.000E+00
      21    -1     0     0   514   511  0.000000000E+00  0.000000000E+00 -6.088944991E+01  6.088944991E+01  0.000000000E+00  0.00000E+00  9.000E+00
      21     1     1     2   513   511  9.071715859E+00  2.095262377E+00 -2.443469938E+01  2.614843565E+01  4.768371582E-07  0.00000E+00  9.000E+00
       1     1     1     2   512     0 -8.129635740E+00  2.894368966E+00 -1.788726280E-01  8.637664291E+00  3.300000131E-01  0.00000E+00  9.000E+00
      21     1     1     2   514   512 -9.420801187E-01 -4.989631342E+00 -3.098294309E+01  3.139628479E+01  4.768371582E-07  0.00000E+00  9.000E+00
</event>
<event>
      5  10001  2.40292E+09  3.05081E+00 -1.00000E+00  2.94535E-01
      21    -1     0     0   511   515  0.000000000E+00  0.000000000E+00  1.993426322E+01  1.993426322E+01  0.000000000E+00  0.00000E+00  9.000E+00
      21    -1     0     0   515   513  0.000000000E+00  0.000000000E+00 -1.067373893E+02  1.067373893E+02  0.000000000E+00  0.00000E+00  9.000E+00
      -4     1     1     2     0   514  5.587777427E+00 -1.239489924E+01  1.392849768E+01  1.952203451E+01  1.500000000E+00  0.00000E+00  9.000E+00
      21     1     1     2   514   513 -3.564005822E+00  1.012019426E+01 -1.026779773E+02  1.032370451E+02  1.348699152E-06  0.00000E+00  9.000E+00
       4     1     1     2   511     0 -2.023771605E+00  2.274704983E+00  1.946353542E+00  3.912572859E+00  1.500000000E+00  0.00000E+00  9.000E+00
</event>
<event>
      5  10001  2.40292E+09  1.29079E+01 -1.00000E+00  1.83707E-01
      -3    -1     0     0     0   512  0.000000000E+00  0.000000000E+00  1.271159548E+01  1.271159548E+01  0.000000000E+00  0.00000E+00  9.000E+00
      21    -1     0     0   511   513  0.000000000E+00  0.000000000E+00 -9.943989821E+01  9.943989821E+01  0.000000000E+00  0.00000E+00  9.000E+00
      -3     1     1     2     0   514 -8.651246115E+00 -1.501524735E+01  2.454814866E+00  1.750936402E+01  5.000000000E-01  0.00000E+00  9.000E+00
      21     1     1     2   511   512  2.317781930E+00  1.049947000E+01 -8.525074631E+01  8.592613531E+01  0.000000000E+00  0.00000E+00  9.000E+00
      21     1     1     2   514   513  6.333464184E+00  4.515777350E+00 -3.932371283E+00  8.715994353E+00  1.192092896E-07  0.00000E+00  9.000E+00
</event>
<event>
      5  10001  2.40292E+09  1.18640E+01 -1.00000E+00  1.87496E-01
       2    -1     0     0   511     0  0.000000000E+00  0.000000000E+00  1.218963280E+02  1.218963280E+02  0.000000000E+00  0.00000E+00  9.000E+00
      21    -1     0     0   512   513  0.000000000E+00  0.000000000E+00 -1.652329933E+01  1.652329933E+01  0.000000000E+00  0.00000E+00  9.000E+00
      21     1     1     2   511   513  1.066068851E+01  1.736272851E+01 -2.897290780E+00  2.057933222E+01  7.336457744E-07  0.00000E+00  9.000E+00
       2     1     1     2   515     0  9.780419895E-01 -1.966297046E+01  1.029884388E+02  1.048537858E+02  3.300000131E-01  0.00000E+00  9.000E+00
      21     1     1     2   512   515 -1.163873050E+01  2.300241951E+00  5.281880662E+00  1.298650931E+01  0.000000000E+00  0.00000E+00  9.000E+00
</event>
<event>
      5  10001  2.40292E+09  1.31203E+01 -1.00000E+00  1.82992E-01
      21    -1     0     0   514   511  0.000000000E+00  0.000000000E+00  2.303582118E+02  2.303582118E+02  0.000000000E+00  0.00000E+00  9.000E+00
       1    -1     0     0   515     0  0.000000000E+00  0.000000000E+00 -2.969043285E+02  2.969043285E+02  0.000000000E+00  0.00000E+00  9.000E+00
      21     1     1     2   514   512 -1.589005719E+01  3.000984817E+00  3.369641490E+01  3.737577029E+01  1.651812370E-06  0.00000E+00  9.000E+00
       1     1     1     2   512     0  2.997878968E+00 -5.436679653E+00 -2.948109440E+02  2.948764934E+02  3.300000131E-01  0.00000E+00  9.000E+00
      21     1     1     2   515   511  1.289217822E+01  2.435694836E+00  1.945684124E+02  1.950102766E+02  2.697398305E-06  0.00000E+00  9.000E+00
</event>
<event>
      5  10001  2.40292E+09  3.97717E+00 -1.00000E+00  2.63948E-01
      21    -1     0     0   513   512  0.000000000E+00  0.000000000E+00  5.744331610E+02  5.744331610E+02  0.000000000E+00  0.00000E+00  9.000E+00
      -2    -1     0     0     0   511  0.000000000E+00  0.000000000E+00 -5.121138435E+01  5.121138435E+01  0.000000000E+00  0.00000E+00  9.000E+00
      21     1     1     2   513   511 -9.604972443E+00  7.327359524E+00  2.108824398E+02  2.112281920E+02  4.672030912E-06  0.00000E+00  9.000E+00
      21     1     1     2   515   512  5.983642483E+00 -8.971697086E+00  3.632196819E+02  3.633797362E+02  5.394796609E-06  0.00000E+00  9.000E+00
      -2     1     1     2     0   515  3.621329960E+00  1.644337563E+00 -5.088034506E+01  5.103661715E+01  3.300000131E-01  0.00000E+00  9.000E+00
</event>
<event>
      5  10001  2.40292E+09  1.39775E+01 -1.00000E+00  1.80272E-01
      21    -1     0     0   514   512  0.000000000E+00  0.000000000E+00  1.569976078E+00  1.569976078E+00  0.000000000E+00  0.00000E+00  9.000E+00
       2    -1     0     0   515     0  0.000000000E+00  0.000000000E+00 -2.844997004E+02  2.844997004E+02  0.000000000E+00  0.00000E+00  9.000E+00
      21     1     1     2   515   511  5.753606497E-02  5.150989150E+00 -4.519960629E+00  6.853177636E+00  2.149076030E-07  0.00000E+00  9.000E+00
       2     1     1     2   514     0  8.319883074E+00 -1.630930916E+00 -2.140853004E+02  2.142533667E+02  3.300000131E-01  0.00000E+00  9.000E+00
      21     1     1     2   511   512 -8.377419139E+00 -3.520058234E+00 -6.432446328E+01  6.496313214E+01  1.348699152E-06  0.00000E+00  9.000E+00
</event>
<event>
      5  10001  2.40292E+09  4.12705E+00 -1.00000E+00  2.60206E-01
      21    -1     0     0   511   515  0.000000000E+00  0.000000000E+00  2.298029184E+02  2.298029184E+02  0.000000000E+00  0.00000E+00  9.000E+00
      21    -1     0     0   513   514  0.000000000E+00  0.000000000E+00 -9.205408910E+00  9.205408910E+00  0.000000000E+00  0.00000E+00  9.000E+00
      21     1     1     2   511   514 -7.354265982E+00  7.278124475E+00 -2.477201923E+00  1.063921301E+01  1.154238983E-07  0.00000E+00  9.000E+00
       4     1     1     2   513     0  1.114792769E+01 -8.892458409E+00  1.696582374E+01  2.221353829E+01  1.500000000E+00  0.00000E+00  9.000E+00
      -4     1     1     2     0   515 -3.793661705E+00  1.614333934E+00  2.061088877E+02  2.061555760E+02  1.500000000E+00  0.00000E+00  9.000E+00
</event>
<event>
      5  10001  2.40292E+09  1.02214E+01 -1.00000E+00  1.94607E-01
      21    -1     0     0   512   513  0.000000000E+00  0.000000000E+00  2.722719050E+02  2.722719050E+02  0.000000000E+00  0.00000E+00  9.000E+00
      21    -1     0     0   516   515  0.000000000E+00  0.000000000E+00 -1.743195571E+00  1.743195571E+00  0.000000000E+00  0.00000E+00  9.000E+00
      21     1     1     2   512   515 -1.073271280E+01 -6.715757409E-01  1.676656427E+01  1.991883067E+01  3.371747881E-07  0.00000E+00  9.000E+00
      21     1     1     2   511   513  3.584219338E+00  3.668635172E+00  8.303159970E+01  8.318985552E+01  9.536743164E-07  0.00000E+00  9.000E+00
      21     1     1     2   516   511  7.148493458E+00 -2.997059431E+00  1.707305455E+02  1.709064144E+02  1.907348633E-06  0.00000E+00  9.000E+00
</event>
<event>
      5  10001  2.40292E+09  1.39601E+01 -1.00000E+00  1.80325E-01
       3    -1     0     0   514     0  0.000000000E+00  0.000000000E+00  3.713218363E+00  3.713218363E+00  0.000000000E+00  0.00000E+00  9.000E+00
       2    -1     0     0   513     0  0.000000000E+00  0.000000000E+00 -1.749575356E+02  1.749575356E+02  0.000000000E+00  0.00000E+00  9.000E+00
       2     1     1     2   514     0 -1.212735593E+01  7.029852392E+00 -7.254371402E+01  7.388633792E+01  3.300000131E-01  0.00000E+00  9.000E+00
       3     1     1     2   512     0 -1.377367140E+00 -1.055517766E+01 -8.838281152E+00  1.384464262E+01  5.000000000E-01  0.00000E+00  9.000E+00
      21     1     1     2   513   512  1.350472307E+01  3.525325268E+00 -8.986232204E+01  9.093977339E+01  0.000000000E+00  0.00000E+00  9.000E+00
</event>
<event>
      5  10001  2.40292E+09  1.26144E+01 -1.00000E+00  1.84725E-01
      21    -1     0     0   511   512  0.000000000E+00  0.000000000E+00  1.001593875E+02  1.001593875E+02  0.000000000E+00  0.00000E+00  9.000E+00
      21    -1     0     0   513   511  0.000000000E+00  0.000000000E+00 -2.355826833E+01  2.355826833E+01  0.000000000E+00  0.00000E+00  9.000E+00
      21     1     1     2   513   515  9.674090760E+00 -6.996025161E+00 -1.916674209E+01  2.258088578E+01  7.539457465E-07  0.00000E+00  9.000E+00
      21     1     1     2   514   512 -3.100157903E+00  1.102369414E+01  9.171428812E+01  9.242642186E+01  0.000000000E+00  0.00000E+00  9.000E+00
      21     1     1     2   515   514 -6.573932857E+00 -4.027668980E+00  4.053573146E+00  8.710348206E+00  1.032382731E-07  0.00000E+00  9.000E+00
</event>
<event>
      5  10001  2.40292E+09  8.50282E+00 -1.00000E+00  2.04205E-01
      21    -1     0     0   516   512  0.000000000E+00  0.000000000E+00  7.548922558E+00  7.548922558E+00  0.000000000E+00  0.00000E+00  9.000E+00
       1    -1     0     0   514     0  0.000000000E+00  0.000000000E+00 -6.211458528E+02  6.211458528E+02  0.000000000E+00  0.00000E+00  9.000E+00
      21     1     1     2   514   512  1.959692128E+01  8.514982803E-01 -5.725860363E+00  2.043403655E+01  9.830249847E-07  0.00000E+00  9.000E+00
      21     1     1     2   516   511 -1.393763725E+01 -3.838133527E+00 -3.310111121E+02  3.313266444E+02  3.814697266E-06  0.00000E+00  9.000E+00
       1     1     1     2   511     0 -5.659284023E+00  2.986635247E+00 -2.768599578E+02  2.769340943E+02  3.300000131E-01  0.00000E+00  9.000E+00
</event>
<event>
      5  10001  2.40292E+09  2.45401E+00 -1.00000E+00  3.25955E-01
      21    -1     0     0   513   514  0.000000000E+00  0.000000000E+00  5.340231513E+01  5.340231513E+01  0.000000000E+00  0.00000E+00  9.000E+00
      21    -1     0     0   516   515  0.000000000E+00  0.000000000E+00 -7.032967750E+00  7.032967750E+00  0.000000000E+00  0.00000E+00  9.000E+00
      21     1     1     2   513   515 -1.105399324E+01 -2.653924851E+00  1.541820138E+01  1.915606999E+01  4.460403188E-07  0.00000E+00  9.000E+00
      21     1     1     2   512   514  1.298647559E+01  1.141411639E+00  3.454751413E+01  3.692535851E+01  0.000000000E+00  0.00000E+00  9.000E+00
      21     1     1     2   516   512 -1.932482347E+00  1.512513212E+00 -3.596368128E+00  4.353854379E+00  8.429369702E-08  0.00000E+00  9.000E+00
</event>
<event>
      5  10001  2.40292E+09  2.46311E+01 -1.00000E+00  1.59198E-01
       2    -1     0     0   513     0  0.000000000E+00  0.000000000E+00  3.888833595E+01  3.888833595E+01  0.000000000E+00  0.00000E+00  9.000E+00
      21    -1     0     0   512   513  0.000000000E+00  0.000000000E+00 -5.830720879E+01  5.830720879E+01  0.000000000E+00  0.00000E+00  9.000E+00
      21     1     1     2   514   511  3.191534367E+01 -6.376818323E+00 -2.489100729E+01  4.097334765E+01  1.118282261E-06  0.00000E+00  9.000E+00
       2     1     1     2   511     0 -2.345637663E+01  1.249186622E+01  2.344357071E+01  3.543950104E+01  3.300000131E-01  0.00000E+00  9.000E+00
      21     1     1     2   512   514 -8.458967045E+00 -6.115047897E+00 -1.797143625E+01  2.078269605E+01  4.129530925E-07  0.00000E+00  9.000E+00
</event>
<event>
      5  10001  2.40292E+09  5.02838E+00 -1.00000E+00  2.38000E-01
      21    -1     0     0   512   515  0.000000000E+00  0.000000000E+00  1.074809584E+02  1.074809584E+02  0.000000000E+00  0.00000E+00  9.000E+00
      -4    -1     0     0     0   511  0.000000000E+00  0.000000000E+00 -6.314128169E+00  6.314128169E+00  0.000000000E+00  0.00000E+00  9.000E+00
      -4     1     1     2     0   515  7.987361127E+00 -2.227731962E+01  5.763842366E+01  6.232587577E+01  1.500000000E+00  0.00000E+00  9.000E+00
      21     1     1     2   512   514 -6.059475203E+00  1.763805546E+01  4.239966113E+01  4.632007669E+01  1.261592536E-06  0.00000E+00  9.000E+00
      21     1     1     2   514   511 -1.927885924E+00  4.639264163E+00  1.128745463E+00  5.149134144E+00  8.688795410E-08  0.00000E+00  9.000E+00
</event>
<event>
      5  10001  2.40292E+09  6.57833E+00 -1.00000E+00  2.19365E-01
      21    -1     0     0   513   515  0.000000000E+00  0.000000000E+00  1.081962371E+02  1.081962371E+02  0.000000000E+00  0.00000E+00  9.000E+00
       1    -1     0     0   512     0  0.000000000E+00  0.000000000E+00 -1.050507847E+02  1.050507847E+02  0.000000000E+00  0.00000E+00  9.000E+00
      21     1     1     2   512   514 -6.754292466E+00  1.212038964E+01 -7.060035236E+00  1.556818580E+01  2.528810911E-07  0.00000E+00  9.000E+00
       1     1     1     2   513     0  2.192079726E-01 -1.287332864E+01 -9.318924401E+01  9.407504846E+01  3.300000131E-01  0.00000E+00  9.000E+00
      21     1     1     2   514   515  6.535084494E+00  7.529390057E-01  1.033947317E+02  1.036037875E+02  0.000000000E+00  0.00000E+00  9.000E+00
</event>
<event>
      5  10001  2.40292E+09  6.30800E+00 -1.00000E+00  2.22072E-01
       1    -1     0     0   514     0  0.000000000E+00  0.000000000E+00  6.459017848E+00  6.459017848E+00  0.000000000E+00  0.00000E+00  9.000E+00
      -3    -1     0     0     0   514  0.000000000E+00  0.000000000E+00 -2.432964366E+02  2.432964366E+02  0.000000000E+00  0.00000E+00  9.000E+00
      21     1     1     2   513   511 -1.067965895E+01  3.977167140E+00 -2.430547644E+01  2.684453685E+01  3.371747881E-07  0.00000E+00  9.000E+00
       1     1     1     2   511     0  9.470982288E+00  2.213522501E+00  5.383593165E-01  9.746687546E+00  3.300000131E-01  0.00000E+00  9.000E+00
      -3     1     1     2     0   513  1.208676660E+00 -6.190689641E+00 -2.130703017E+02  2.131642301E+02  5.000000000E-01  0.00000E+00  9.000E+00
</event>
<event>
      5  10001  2.40292E+09  5.90866E+00 -1.00000E+00  2.26432E-01
      21    -1     0     0   512   511  0.000000000E+00  0.000000000E+00  4.024344724E+01  4.024344724E+01  0.000000000E+00  0.00000E+00  9.000E+00
      21    -1     0     0   514   513  0.000000000E+00  0.000000000E+00 -1.020160353E+02  1.020160353E+02  0.000000000E+00  0.00000E+00  9.000E+00
      21     1     1     2   512   513  5.922446762E+00  6.296853544E+00  3.823450910E+01  3.919953350E+01  0.000000000E+00  0.00000E+00  9.000E+00
      21     1     1     2   515   511 -1.149088004E+01 -4.320793591E+00 -2.531650761E+01  2.813601143E+01  4.768371582E-07  0.00000E+00  9.000E+00
      21     1     1     2   514   515  5.568433276E+00 -1.976059953E+00 -7.469058950E+01  7.492393757E+01  9.536743164E-07  0.00000E+00  9.000E+00
</event>
<event>
      5  10001  2.40292E+09  4.15916E+00 -1.00000E+00  2.59435E-01
      -4    -1     0     0     0   511  0.000000000E+00  0.000000000E+00  1.890912656E+01  1.890912656E+01  0.000000000E+00  0.00000E+00  9.000E+00
       1    -1     0     0   511     0  0.000000000E+00  0.000000000E+00 -7.510953810E+01  7.510953810E+01  0.000000000E+00  0.00000E+00  9.000E+00
      -4     1     1     2     0   512  1.472195889E+01  1.128522618E+01  1.256511633E+01  2.245494493E+01  1.500000000E+00  0.00000E+00  9.000E+00
       1     1     1     2   513     0 -9.997858832E+00 -5.847180570E+00 -5.267547484E+01  5.393478703E+01  3.300000131E-01  0.00000E+00  9.000E+00
      21     1     1     2   512   513 -4.724100058E+00 -5.438045611E+00 -1.609005303E+01  1.762893270E+01  2.384185791E-07  0.00000E+00  9.000E+00
</event>
<event>
      5  10001  2.40292E+09  8.50875E+00 -1.00000E+00  2.04166E-01
       3    -1     0     0   514     0  0.000000000E+00  0.000000000E+00  6.942865986E+01  6.942865986E+01  0.000000000E+00  0.00000E+00  9.000E+00
      -2    -1     0     0     0   514  0.000000000E+00  0.000000000E+00 -1.333240662E+01  1.333240662E+01  0.000000000E+00  0.00000E+00  9.000E+00
      -2     1     1     2     0   511 -9.941233786E+00  2.612712262E+00 -9.700724603E+00  1.413744504E+01  3.300000131E-01  0.00000E+00  9.000E+00
       3     1     1     2   515     0  1.439182873E+01 -3.650831421E+00  5.260302414E+01  5.466060239E+01  5.000000000E-01  0.00000E+00  9.000E+00
      21     1     1     2   511   515 -4.450594940E+00  1.038119159E+00  1.319395370E+01  1.396301904E+01  1.685873940E-07  0.00000E+00  9.000E+00
</event>
<event>
      5  10001  2.40292E+09  6.71885E+00 -1.00000E+00  2.18028E-01
      21    -1     0     0   516   512  0.000000000E+00  0.000000000E+00  1.186430391E+02  1.186430391E+02  0.000000000E+00  0.00000E+00  9.000E+00
      21    -1     0     0   513   514  0.000000000E+00  0.000000000E+00 -2.559605140E+01  2.559605140E+01  0.000000000E+00  0.00000E+00  9.000E+00
      -5     1     1     2     0   514 -3.755714736E+00 -1.079872114E+01  5.601617353E+00  1.360646502E+01  4.800000191E+00  0.00000E+00  9.000E+00
      21     1     1     2   513   512 -2.891789785E+00  1.094954613E+01 -1.994159053E+01  2.293299024E+01  0.000000000E+00  0.00000E+00  9.000E+00
       5     1     1     2   516     0  6.647504520E+00 -1.508249837E-01  1.073869608E+02  1.076996352E+02  4.800000191E+00  0.00000E+00  9.000E+00
</event>
<event>
      5  10001  2.40292E+09  6.02469E+00 -1.00000E+00  2.25117E-01
      21    -1     0     0   511   513  0.000000000E+00  0.000000000E+00  2.571754391E+01  2.571754391E+01  0.000000000E+00  0.00000E+00  9.000E+00
      21    -1     0     0   517   515  0.000000000E+00  0.000000000E+00 -4.936943638E+01  4.936943638E+01  0.000000000E+00  0.00000E+00  9.000E+00
      21     1     1     2   511   515 -7.390049325E+00  8.342734173E+00 -4.733854139E+01  4.863282372E+01  0.000000000E+00  0.00000E+00  9.000E+00
       3     1     1     2   517     0  2.577338324E+00 -3.623453802E+00  5.747468916E+00  7.283919908E+00  5.000000000E-01  0.00000E+00  9.000E+00
      -3     1     1     2     0   513  4.812711001E+00 -4.719280371E+00  1.793918000E+01  1.917023666E+01  5.000000000E-01  0.00000E+00  9.000E+00
</event>
<event>
      5  10001  2.40292E+09  3.56626E+00 -1.00000E+00  2.75677E-01
      21    -1     0     0   512   515  0.000000000E+00  0.000000000E+00  5.653795685E+00  5.653795685E+00  0.000000000E+00  0.00000E+00  9.000E+00
      21    -1     0     0   511   512  0.000000000E+00  0.000000000E+00 -2.392875360E+02  2.392875360E+02  0.000000000E+00  0.00000E+00  9.000E+00
      21     1     1     2   513   514 -1.096995471E+01 -1.171028272E+01 -2.564956704E+01  3.025509737E+01  4.768371582E-07  0.00000E+00  9.000E+00
      21     1     1     2   514   515  9.664576939E+00  8.391514353E+00 -8.945208766E+00  1.561532326E+01  3.371747881E-07  0.00000E+00  9.000E+00
      21     1     1     2   511   513  1.305377776E+00  3.318768370E+00 -1.990389646E+02  1.990709111E+02  2.697398305E-06  0.00000E+00  9.000E+00
</event>
<event>
      5  10001  2.40292E+09  3.59131E+00 -1.00000E+00  2.74892E-01
      21    -1     0     0   516   514  0.000000000E+00  0.000000000E+00  3.973321417E+01  3.973321417E+01  0.000000000E+00  0.00000E+00  9.000E+00
      21    -1     0     0   511   513  0.000000000E+00  0.000000000E+00 -5.047997851E+00  5.047997851E+00  0.000000000E+00  0.00000E+00  9.000E+00
      21     1     1     2   516   513 -7.337109241E+00  1.097288595E+01  1.034758973E+01  1.677229893E+01  3.769728732E-07  0.00000E+00  9.000E+00
       3     1     1     2   511     0  4.962967955E+00 -5.208810136E+00  1.630526795E+01  1.782903578E+01  5.000000000E-01  0.00000E+00  9.000E+00
      -3     1     1     2     0   514  2.374141286E+00 -5.764075812E+00  8.032358638E+00  1.017987731E+01  5.000000000E-01  0.00000E+00  9.000E+00
</event>
<event>
      5  10001  2.40292E+09  5.91581E+00 -1.00000E+00  2.26350E-01
      21    -1     0     0   512   513  0.000000000E+00  0.000000000E+00  8.399994942E+01  8.399994942E+01  0.000000000E+00  0.00000E+00  9.000E+00
      21    -1     0     0   515   514  0.000000000E+00  0.000000000E+00 -4.809617404E+01  4.809617404E+01  0.000000000E+00  0.00000E+00  9.000E+00
      21     1     1     2   512   514 -1.260100175E+01  2.172824325E+01 -2.639397342E+01  3.643547218E+01  5.840038640E-07  0.00000E+00  9.000E+00
      21     1     1     2   515   511  9.709220705E+00 -1.656738732E+01 -1.099620060E+01  2.212834646E+01  0.000000000E+00  0.00000E+00  9.000E+00
      21     1     1     2   511   513  2.891781046E+00 -5.160855928E+00  7.329394941E+01  7.353230482E+01  0.000000000E+00  0.00000E+00  9.000E+00
</event>
<event>
      5  10001  2.40292E+09  8.50631E+00 -1.00000E+00  2.04182E-01
      21    -1     0     0   515   512  0.000000000E+00  0.000000000E+00  1.347100280E+01  1.347100280E+01  0.000000000E+00  0.00000E+00  9.000E+00
       1    -1     0     0   513     0  0.000000000E+00  0.000000000E+00 -7.738366105E+02  7.738366105E+02  0.000000000E+00  0.00000E+00  9.000E+00
      21     1     1     2   515   511 -2.423854973E+00  8.896760418E+00 -8.006203570E+00  1.221174494E+01  1.440411326E-06  0.00000E+00  9.000E+00
       1     1     1     2   511     0 -1.444078824E-01 -1.700607616E+01 -7.620281184E+02  7.622179410E+02  3.300000131E-01  0.00000E+00  9.000E+00
      21     1     1     2   513   512  2.568262855E+00  8.109315746E+00  9.668714293E+00  1.287792732E+01  1.192092896E-07  0.00000E+00  9.000E+00
</event>
<event>
      5  10001  2.40292E+09  5.28048E+00 -1.00000E+00  2.34363E-01
      21    -1     0     0   515   511  0.000000000E+00  0.000000000E+00  1.214268202E+00  1.214268202E+00  0.000000000E+00  0.00000E+00  9.000E+00
      21    -1     0     0   512   514  0.000000000E+00  0.000000000E+00 -2.035114639E+02  2.035114639E+02  0.000000000E+00  0.00000E+00  9.000E+00
      21     1     1     2   512   513  1.158315572E+01  3.009190317E+00 -1.292028321E+02  1.297559114E+02  0.000000000E+00  0.00000E+00  9.000E+00
      21     1     1     2   513   511 -1.092047111E+01  2.229547067E+00 -5.513287313E+01  5.624821125E+01  1.168007728E-06  0.00000E+00  9.000E+00
      21     1     1     2   515   514 -6.626846144E-01 -5.238737384E+00 -1.796149048E+01  1.872160945E+01  3.371747881E-07  0.00000E+00  9.000E+00
</event>
<event>
      5  10001  2.40292E+09  6.33907E+00 -1.00000E+00  2.21751E-01
      21    -1     0     0   513   511  0.000000000E+00  0.000000000E+00  2.191580130E+00  2.191580130E+00  0.000000000E+00  0.00000E+00  9.000E+00
      21    -1     0     0   511   512  0.000000000E+00  0.000000000E+00 -5.594470483E+02  5.594470483E+02  0.000000000E+00  0.00000E+00  9.000E+00
      21     1     1     2   513   516 -3.805989312E+00 -1.904735867E+01 -4.795591820E+01  5.174028911E+01  9.536743164E-07  0.00000E+00  9.000E+00
       2     1     1     2   516     0  2.608799039E+00  1.282293814E+01 -1.579507097E+02  1.584921738E+02  3.300000131E-01  0.00000E+00  9.000E+00
      -2     1     1     2     0   512  1.197190273E+00  6.224420522E+00 -3.513488403E+02  3.514061655E+02  3.300000131E-01  0.00000E+00  9.000E+00
</event>
<event>
      5  10001  2.40292E+09  4.32584E+00 -1.00000E+00  2.55604E-01
      21    -1     0     0   513   512  0.000000000E+00  0.000000000E+00  5.177784576E+01  5.177784576E+01  0.000000000E+00  0.00000E+00  9.000E+00
      21    -1     0     0   511   515  0.000000000E+00  0.000000000E+00 -6.906171027E+01  6.906171027E+01  0.000000000E+00  0.00000E+00  9.000E+00
      21     1     1     2   514   515  2.965948340E+00 -1.119558276E+01 -4.149263057E+01  4.307872230E+01  4.768371582E-07  0.00000E+00  9.000E+00
      21     1     1     2   511   512  1.203839581E+00  1.004415035E+01 -2.572370474E+01  2.764133086E+01  3.371747881E-07  0.00000E+00  9.000E+00
      21     1     1     2   513   514 -4.169787921E+00  1.151432416E+00  4.993247081E+01  5.011950288E+01  6.743495762E-07  0.00000E+00  9.000E+00
</event>
<event>
      5  10001  2.40292E+09  5.41702E+00 -1.00000E+00  2.32511E-01
      21    -1     0     0   516   511  0.000000000E+00  0.000000000E+00  9.543487808E+00  9.543487808E+00  0.000000000E+00  0.00000E+00  9.000E+00
      21    -1     0     0   517   514  0.000000000E+00  0.000000000E+00 -1.641424073E+02  1.641424073E+02  0.000000000E+00  0.00000E+00  9.000E+00
      21     1     1     2   516   514 -9.088396245E+00 -7.873389682E+00 -1.571069920E+02  1.575664816E+02  2.697398305E-06  0.00000E+00  9.000E+00
      21     1     1     2   517   512  7.955751371E+00  2.282535113E+00  5.238498027E+00  9.795193107E+00  6.976544804E-07  0.00000E+00  9.000E+00
      21     1     1     2   512   511  1.132644874E+00  5.590854569E+00 -2.730425518E+00  6.324220326E+00  1.812804499E-07  0.00000E+00  9.000E+00
</event>
<event>
      5  10001  2.40292E+09  1.53896E+01 -1.00000E+00  1.76294E-01
      21    -1     0     0   513   512  0.000000000E+00  0.000000000E+00  6.365961307E+00  6.365961307E+00  0.000000000E+00  0.00000E+00  9.000E+00
      21    -1     0     0   511   513  0.000000000E+00  0.000000000E+00 -1.354746455E+02  1.354746455E+02  0.000000000E+00  0.00000E+00  9.000E+00
      21     1     1     2   515   512 -1.144734660E+01 -3.030195425E+00 -3.907061313E-01  1.184805805E+01  6.767325895E-08  0.00000E+00  9.000E+00
      -1     1     1     2     0   515  7.445897078E+00  7.356932515E+00 -5.177715692E+01  5.282564451E+01  3.300000131E-01  0.00000E+00  9.000E+00
       1     1     1     2   511     0  4.001449517E+00 -4.326737090E+00 -7.694082119E+01  7.716690429E+01  3.300000131E-01  0.00000E+00  9.000E+00
</event>
<event>
      5  10001  2.40292E+09  1.00986E+01 -1.00000E+00  1.95208E-01
      -3    -1     0     0     0   514  0.000000000E+00  0.000000000E+00  5.728855756E+00  5.728855756E+00  0.000000000E+00  0.00000E+00  9.000E+00
       2    -1     0     0   515     0  0.000000000E+00  0.000000000E+00 -1.931080162E+03  1.931080162E+03  0.000000000E+00  0.00000E+00  9.000E+00
      -3     1     1     2     0   513  9.442467364E-01  7.770392005E+00 -4.240495025E+00  8.916411378E+00  5.000000000E-01  0.00000E+00  9.000E+00
      21     1     1     2   515   514 -2.677233798E+00 -1.771904132E+01 -2.039268857E+01  2.714762887E+01  0.000000000E+00  0.00000E+00  9.000E+00
       2     1     1     2   513     0  1.732987061E+00  9.948649313E+00 -1.900718122E+03  1.900744977E+03  3.300000131E-01  0.00000E+00  9.000E+00
</event>
<event>
      5  10001  2.40292E+09  6.93447E+00 -1.00000E+00  2.16061E-01
      21    -1     0     0   511   513  0.000000000E+00  0.000000000E+00  1.126049382E+01  1.126049382E+01  0.000000000E+00  0.00000E+00  9.000E+00
      21    -1     0     0   512   511  0.000000000E+00  0.000000000E+00 -2.351929618E+01  2.351929618E+01  0.000000000E+00  0.00000E+00  9.000E+00
      21     1     1     2   512   516  8.924687015E+00  6.190248098E+00 -1.690826980E+01  2.009623839E+01  0.000000000E+00  0.00000E+00  9.000E+00
       4     1     1     2   516     0 -2.381698627E+00 -3.816562455E+00  5.777715908E+00  7.474666443E+00  1.500000000E+00  0.00000E+00  9.000E+00
      -4     1     1     2     0   513 -6.542988388E+00 -2.373685643E+00 -1.128248463E+00  7.208885154E+00  1.500000000E+00  0.00000E+00  9.000E+00
</event>
<event>
      5  10001  2.40292E+09  6.00802E+00 -1.00000E+00  2.25303E-01
      21    -1     0     0   511   515  0.000000000E+00  0.000000000E+00  8.104440366E+01  8.104440366E+01  0.000000000E+00  0.00000E+00  9.000E+00
      21    -1     0     0   512   513  0.000000000E+00  0.000000000E+00 -5.405635993E+01  5.405635993E+01  0.000000000E+00  0.00000E+00  9.000E+00
      21     1     1     2   514   513  3.946140256E+00 -8.478305145E+00 -5.156691892E+01  5.240802236E+01  0.000000000E+00  0.00000E+00  9.000E+00
      21     1     1     2   512   515 -7.910396548E+00  1.299283540E+01  2.874488145E+01  3.252162903E+01  6.743495762E-07  0.00000E+00  9.000E+00
      21     1     1     2   511   514  3.964256293E+00 -4.514530260E+00  4.981008119E+01  5.017111220E+01  0.000000000E+00  0.00000E+00  9.000E+00
</event>
<event>
      5  10001  2.40292E+09  5.58164E+00 -1.00000E+00  2.30378E-01
       4    -1     0     0   513     0  0.000000000E+00  0.000000000E+00  1.294803026E+01  1.294803026E+01  0.000000000E+00  0.00000E+00  9.000E+00
      21    -1     0     0   512   513  0.000000000E+00  0.000000000E+00 -1.490917087E+02  1.490917087E+02  0.000000000E+00  0.00000E+00  9.000E+00
      21     1     1     2   516   511  1.208272625E+00  1.906164031E+01 -1.273179669E+02  1.287426531E+02  0.000000000E+00  0.00000E+00  9.000E+00
       4     1     1     2   511     0 -6.788111940E+00 -1.902815352E+01  2.752487024E+00  2.044444362E+01  1.500000000E+00  0.00000E+00  9.000E+00
      21     1     1     2   512   516  5.579839315E+00 -3.348679457E-02 -1.157819857E+01  1.285264215E+01  1.685873940E-07  0.00000E+00  9.000E+00
</event>
<event>
      5  10001  2.40292E+09  7.21390E+00 -1.00000E+00  2.13652E-01
      -2    -1     0     0     0   514  0.000000000E+00  0.000000000E+00  3.356366724E+01  3.356366724E+01  0.000000000E+00  0.00000E+00  9.000E+00
      21    -1     0     0   514   511  0.000000000E+00  0.000000000E+00 -1.153151722E+02  1.153151722E+02  0.000000000E+00  0.00000E+00  9.000E+00
      -2     1     1     2     0   512 -1.253558768E+01 -1.185731369E+01  2.891481099E+01  3.367361046E+01  3.300000131E-01  0.00000E+00  9.000E+00
      21     1     1     2   512   513  1.152923274E+01  4.714006099E+00 -1.605908832E+01  2.032337026E+01  3.371747881E-07  0.00000E+00  9.000E+00
      21     1     1     2   513   511  1.006354933E+00  7.143307592E+00 -9.460722764E+01  9.488185873E+01  0.000000000E+00  0.00000E+00  9.000E+00
</event>
<event>
      5  10001  2.40292E+09  9.41851E+00 -1.00000E+00  1.98753E-01
      21    -1     0     0   515   511  0.000000000E+00  0.000000000E+00  5.393122846E+01  5.393122846E+01  0.000000000E+00  0.00000E+00  9.000E+00
      21    -1     0     0   514   516  0.000000000E+00  0.000000000E+00 -2.571179723E+01  2.571179723E+01  0.000000000E+00  0.00000E+00  9.000E+00
      21     1     1     2   515   516  1.557523342E+00  2.108720447E+01  4.089413025E+01  4.603722364E+01  8.259061849E-07  0.00000E+00  9.000E+00
      -5     1     1     2     0   511 -3.893308474E+00 -1.456510377E+01 -1.774151693E+01  2.377186411E+01  4.800000191E+00  0.00000E+00  9.000E+00
       5     1     1     2   514     0  2.335785131E+00 -6.522100702E+00  5.066817905E+00  9.833937932E+00  4.800000191E+00  0.00000E+00  9.000E+00
</event>
<event>
      5  10001  2.40292E+09  1.01460E+01 -1.00000E+00  1.94974E-01
      -2    -1     0     0     0   516  0.000000000E+00  0.000000000E+00  1.529736325E+01  1.529736325E+01  0.000000000E+00  0.00000E+00  9.000E+00
      21    -1     0     0   514   513  0.000000000E+00  0.000000000E+00 -2.650901151E+02  2.650901151E+02  0.000000000E+00  0.00000E+00  9.000E+00
      21     1     1     2   512   513  6.699295589E+00  9.871243316E+00 -4.516027747E+01  4.670944944E+01  1.066240300E-06  0.00000E+00  9.000E+00
      21     1     1     2   514   516 -1.197795308E+01 -1.853582344E+01 -2.167498459E+02  2.178704748E+02  3.814697266E-06  0.00000E+00  9.000E+00
      -2     1     1     2     0   512  5.278657491E+00  8.664580120E+00  1.211737151E+01  1.580755408E+01  3.300000131E-01  0.00000E+00  9.000E+00
</event>
<event>
      5  10001  2.40292E+09  4.37476E+00 -1.00000E+00  2.54529E-01
      21    -1     0     0   511   514  0.000000000E+00  0.000000000E+00  4.639041617E-01  4.639041617E-01  0.000000000E+00  0.00000E+00  9.000E+00
       2    -1     0     0   515     0  0.000000000E+00  0.000000000E+00 -3.842337808E+02  3.842337808E+02  0.000000000E+00  0.00000E+00  9.000E+00
      21     1     1     2   515   514  2.017645399E+00  1.004073213E+01 -7.013432078E+01  7.087813588E+01  2.132480600E-06  0.00000E+00  9.000E+00
      21     1     1     2   511   513 -1.199140656E+00 -4.303329773E+00 -9.249300400E+01  9.260082275E+01  1.348699152E-06  0.00000E+00  9.000E+00
       2     1     1     2   513     0 -8.185047423E-01 -5.737402360E+00 -2.211425519E+02  2.212187264E+02  3.300000131E-01  0.00000E+00  9.000E+00
</event>
<event>
      5  10001  2.40292E+09  5.29765E+00 -1.00000E+00  2.34126E-01
      21    -1     0     0   512   515  0.000000000E+00  0.000000000E+00  5.996030959E-01  5.996030959E-01  0.000000000E+00  0.00000E+00  9.000E+00
      21    -1     0     0   514   516  0.000000000E+00  0.000000000E+00 -2.170731680E+02  2.170731680E+02  0.000000000E+00  0.00000E+00  9.000E+00
      21     1     1     2   512   516 -8.470197965E+00  5.382893855E+00 -6.028578665E+01  6.111543071E+01  9.536743164E-07  0.00000E+00  9.000E+00
      21     1     1     2   514   511  2.008927553E+00 -1.536841902E+00 -6.885925468E+01  6.890569372E+01  9.536743164E-07  0.00000E+00  9.000E+00
      21     1     1     2   511   515  6.461270412E+00 -3.846051953E+00 -8.732852357E+01  8.765164664E+01  1.651812370E-06  0.00000E+00  9.000E+00
</event>
<event>
      5  10001  2.40292E+09  2.39677E+01 -1.00000E+00  1.60096E-01
      21    -1     0     0   513   514  0.000000000E+00  0.000000000E+00  4.871194326E+00  4.871194326E+00  0.000000000E+00  0.00000E+00  9.000E+00
      21    -1     0     0   517   515  0.000000000E+00  0.000000000E+00 -4.794348728E+02  4.794348728E+02  0.000000000E+00  0.00000E+00  9.000E+00
      21     1     1     2   513   515  3.287564485E+01 -2.171059137E+00 -4.082860239E+02  4.096132308E+02  5.394796609E-06  0.00000E+00  9.000E+00
      21     1     1     2   517   512 -1.996846533E+00  1.574894975E+00 -1.560035359E+00  2.983521506E+00  9.884312124E-08  0.00000E+00  9.000E+00
      21     1     1     2   512   514 -3.087879832E+01  5.961641616E-01 -6.471761923E+01  7.170931485E+01  1.651812370E-06  0.00000E+00  9.000E+00
</event>
<event>
      5  10001  2.40292E+09  6.84690E+00 -1.00000E+00  2.16848E-01
       2    -1     0     0   515     0  0.000000000E+00  0.000000000E+00  8.168144734E+02  8.168144734E+02  0.000000000E+00  0.00000E+00  9.000E+00
      21    -1     0     0   511   512  0.000000000E+00  0.000000000E+00 -2.029862823E-01  2.029862823E-01  0.000000000E+00  0.00000E+00  9.000E+00
      21     1     1     2   515   512  4.559195120E+00 -8.457042849E+00  1.493116768E+02  1.496204687E+02  2.697398305E-06  0.00000E+00  9.000E+00
      21     1     1     2   511   513  1.558907586E-01  5.578365473E+00  2.622030579E+02  2.622624373E+02  3.814697266E-06  0.00000E+00  9.000E+00
       2     1     1     2   513     0 -4.715085879E+00  2.878677376E+00  4.050967524E+02  4.051345536E+02  3.300000131E-01  0.00000E+00  9.000E+00
</event>
<event>
      5  10001  2.40292E+09  9.99672E+00 -1.00000E+00  1.95715E-01
      21    -1     0     0   514   511  0.000000000E+00  0.000000000E+00  3.276675441E+01  3.276675441E+01  0.000000000E+00  0.00000E+00  9.000E+00
      21    -1     0     0   517   512  0.000000000E+00  0.000000000E+00 -2.791526207E+01  2.791526207E+01  0.000000000E+00  0.00000E+00  9.000E+00
      21     1     1     2   514   516  1.150676757E+01 -2.746786250E+00  1.721202239E+01  2.088550333E+01  4.129530925E-07  0.00000E+00  9.000E+00
      21     1     1     2   517   511 -1.043087313E+01 -7.191869514E+00  9.448791840E+00  1.580524497E+01  3.576278687E-07  0.00000E+00  9.000E+00
      21     1     1     2   516   512 -1.075894445E+00  9.938655764E+00 -2.180932189E+01  2.399126818E+01  2.384185791E-07  0.00000E+00  9.000E+00
</event>
<event>
      5  10001  2.40292E+09  3.52707E+00 -1.00000E+00  2.76928E-01
      21    -1     0     0   513   511  0.000000000E+00  0.000000000E+00  3.504996181E+00  3.504996181E+00  0.000000000E+00  0.00000E+00  9.000E+00
      21    -1     0     0   514   513  0.000000000E+00  0.000000000E+00 -1.618428558E+02  1.618428558E+02  0.000000000E+00  0.00000E+00  9.000E+00
      21     1     1     2   512   511  1.169969999E+01  5.954504871E+00 -1.090270362E+01  1.706481920E+01  3.153981341E-07  0.00000E+00  9.000E+00
      21     1     1     2   515   512 -9.972803356E+00 -2.879106243E+00 -6.977980634E+01  7.054762528E+01  9.536743164E-07  0.00000E+00  9.000E+00
      21     1     1     2   514   515 -1.726896637E+00 -3.075398629E+00 -7.765534968E+01  7.773540753E+01  0.000000000E+00  0.00000E+00  9.000E+00
</event>
<event>
      5  10001 -2.40292E+09  4.71807E+00 -1.00000E+00  2.47550E-01
      21    -1     0     0   516   514  0.000000000E+00  0.000000000E+00  3.617406723E+02  3.617406723E+02  0.000000000E+00  0.00000E+00  9.000E+00
      21    -1     0     0   512   517  0.000000000E+00  0.000000000E+00 -1.078270756E+02  1.078270756E+02  0.000000000E+00  0.00000E+00  9.000E+00
      21     1     1     2   516   517  7.941671465E+00 -1.903073772E-02  3.607530315E+02  3.608404360E+02  8.529922400E-06  0.00000E+00  9.000E+00
      21     1     1     2   511   514 -1.205413190E+01 -2.293504567E+00 -9.744664825E+01  9.821614691E+01  3.015782986E-06  0.00000E+00  9.000E+00
      21     1     1     2   512   511  4.112460430E+00  2.312535305E+00 -9.392786549E+00  1.051116499E+01  1.192092896E-07  0.00000E+00  9.000E+00
</event>
<event>
      5  10001  2.40292E+09  6.50839E+00 -1.00000E+00  2.20048E-01
      21    -1     0     0   513   514  0.000000000E+00  0.000000000E+00  3.290689313E+01  3.290689313E+01  0.000000000E+00  0.00000E+00  9.000E+00
      21    -1     0     0   512   515  0.000000000E+00  0.000000000E+00 -1.079806567E+01  1.079806567E+01  0.000000000E+00  0.00000E+00  9.000E+00
      21     1     1     2   513   515  1.065347637E+00 -8.504972701E+00 -2.772330958E-01  8.575918867E+00  1.903182235E-07  0.00000E+00  9.000E+00
      21     1     1     2   512   511 -1.662687036E+00  1.498589198E+01  3.962726825E+00  1.558989065E+01  2.269677253E-07  0.00000E+00  9.000E+00
      21     1     1     2   511   514  5.973393995E-01 -6.480919277E+00  1.842333373E+01  1.953914929E+01  3.371747881E-07  0.00000E+00  9.000E+00
</event>
<event>
      5  10001  2.40292E+09  4.95842E+00 -1.00000E+00  2.43174E-01
      21    -1     0     0   513   511  0.000000000E+00  0.000000000E+00  4.397691923E+00  4.397691923E+00  0.000000000E+00  0.00000E+00  9.000E+00
      21    -1     0     0   514   516  0.000000000E+00  0.000000000E+00 -1.969788315E+02  1.969788315E+02  0.000000000E+00  0.00000E+00  9.000E+00
      21     1     1     2   512   511 -2.380469352E+00 -1.805555494E+01 -4.964382957E+01  5.287891369E+01  9.536743164E-07  0.00000E+00  9.000E+00
      21     1     1     2   514   512  5.502616679E+00  1.420352754E+01 -1.427240863E+02  1.435346083E+02  2.697398305E-06  0.00000E+00  9.000E+00
      21     1     1     2   513   516 -3.122147327E+00  3.852027399E+00 -2.132237742E-01  4.963001450E+00  1.590354309E-07  0.00000E+00  9.000E+00
</event>
<event>
      5  10001  2.40292E+09  1.70278E+01 -1.00000E+00  1.72303E-01
      21    -1     0     0   515   512  0.000000000E+00  0.000000000E+00  1.810429066E+02  1.810429066E+02  0.000000000E+00  0.00000E+00  9.000E+00
      21    -1     0     0   517   515  0.000000000E+00  0.000000000E+00 -1.814160924E+00  1.814160924E+00  0.000000000E+00  0.00000E+00  9.000E+00
      21     1     1     2   514   512 -1.128877846E+01  5.183930729E-01  1.383581125E+02  1.388188479E+02  0.000000000E+00  0.00000E+00  9.000E+00
      21     1     1     2   511   514  5.373718135E+00 -3.786966834E+00  3.307088452E+01  3.371796802E+01  4.768371582E-07  0.00000E+00  9.000E+00
      21     1     1     2   517   511  5.915060324E+00  3.268573761E+00  7.799748642E+00  1.032025154E+01  2.795705652E-07  0.00000E+00  9.000E+00
</event>
<event>
      5  10001  2.40292E+09  7.77713E+00 -1.00000E+00  2.09221E-01
      21    -1     0     0   513   511  0.000000000E+00  0.000000000E+00  5.720457460E+01  5.720457460E+01  0.000000000E+00  0.00000E+00  9.000E+00
      21    -1     0     0   514   516  0.000000000E+00  0.000000000E+00 -1.509369968E+01  1.509369968E+01  0.000000000E+00  0.00000E+00  9.000E+00
      21     1     1     2   513   516 -1.593910919E+01  2.018769819E+01  1.597635776E+01  3.027940500E+01  2.384185791E-07  0.00000E+00  9.000E+00
      21     1     1     2   512   511  8.517164450E+00 -2.251117608E+01  2.391860435E+01  3.393220849E+01  3.371747881E-07  0.00000E+00  9.000E+00
      21     1     1     2   514   512  7.421944739E+00  2.323477892E+00  2.215912815E+00  8.086660796E+00  1.519626234E-07  0.00000E+00  9.000E+00
</event>
<event>
      5  10001  2.40292E+09  8.12655E+00 -1.00000E+00  2.06718E-01
      21    -1     0     0   515   512  0.000000000E+00  0.000000000E+00  2.511668527E+02  2.511668527E+02  0.000000000E+00  0.00000E+00  9.000E+00
      21    -1     0     0   514   517  0.000000000E+00  0.000000000E+00 -1.034872842E+00  1.034872842E+00  0.000000000E+00  0.00000E+00  9.000E+00
      21     1     1     2   515   517 -1.534109119E+01  3.215012837E+00  1.464653200E+02  1.473016475E+02  1.907348633E-06  0.00000E+00  9.000E+00
      21     1     1     2   514   511  2.028283471E+00  3.330521687E-01  8.717712550E+00  8.956749951E+00  2.064765462E-07  0.00000E+00  9.000E+00
      21     1     1     2   511   512  1.331280772E+01 -3.548065006E+00  9.494894723E+01  9.594332804E+01  0.000000000E+00  0.00000E+00  9.000E+00
</event>
<event>
      5  10001  2.40292E+09  4.52488E+00 -1.00000E+00  2.51362E-01
      21    -1     0     0   513   511  0.000000000E+00  0.000000000E+00  2.153052268E+00  2.153052268E+00  0.000000000E+00  0.00000E+00  9.000E+00
      21    -1     0     0   512   513  0.000000000E+00  0.000000000E+00 -2.236496582E+02  2.236496582E+02  0.000000000E+00  0.00000E+00  9.000E+00
      21     1     1     2   514   511  5.609146008E+00 -1.026540588E+01 -1.563664290E+01  1.952807409E+01  4.129530925E-07  0.00000E+00  9.000E+00
      21     1     1     2   512   515 -1.796474261E+00  4.866365473E+00 -1.370048264E+02  1.371029952E+02  2.697398305E-06  0.00000E+00  9.000E+00
      21     1     1     2   515   514 -3.812671746E+00  5.399040405E+00 -6.885513659E+01  6.917164114E+01  9.536743164E-07  0.00000E+00  9.000E+00
</event>
<event>
      5  10001  2.40292E+09  5.40192E+00 -1.00000E+00  2.32712E-01
      21    -1     0     0   516   514  0.000000000E+00  0.000000000E+00  4.291520357E+00  4.291520357E+00  0.000000000E+00  0.00000E+00  9.000E+00
      21    -1     0     0   517   516  0.000000000E+00  0.000000000E+00 -7.036031394E+01  7.036031394E+01  0.000000000E+00  0.00000E+00  9.000E+00
      21     1     1     2   512   514 -6.391897608E+00  9.762602277E+00 -6.940941758E+00  1.357723944E+01  3.475518164E-07  0.00000E+00  9.000E+00
      21     1     1     2   511   512  2.796386610E+00 -7.629417985E+00 -5.322217987E+01  5.383890997E+01  6.743495762E-07  0.00000E+00  9.000E+00
      21     1     1     2   517   511  3.595510998E+00 -2.133184292E+00 -5.905671956E+00  7.235684889E+00  0.000000000E+00  0.00000E+00  9.000E+00
</event>
<event>
      5  10001  2.40292E+09  4.34839E+00 -1.00000E+00  2.55106E-01
      -2    -1     0     0     0   513  0.000000000E+00  0.000000000E+00  9.754958292E+00  9.754958292E+00  0.000000000E+00  0.00000E+00  9.000E+00
      21    -1     0     0   514   511  0.000000000E+00  0.000000000E+00 -7.015679026E+01  7.015679026E+01  0.000000000E+00  0.00000E+00  9.000E+00
      -2     1     1     2     0   511 -3.448278709E+00 -1.090957728E+01  4.490218125E+00  1.229554640E+01  3.300000131E-01  0.00000E+00  9.000E+00
      21     1     1     2   512   513 -7.972071576E-01  9.970044177E+00 -1.858487377E+01  2.110532760E+01  3.371747881E-07  0.00000E+00  9.000E+00
      21     1     1     2   514   512  4.245485866E+00  9.395330989E-01 -4.630717633E+01  4.651087456E+01  6.743495762E-07  0.00000E+00  9.000E+00
</event>
<event>
      5  10001  2.40292E+09  6.80885E+00 -1.00000E+00  2.17195E-01
      21    -1     0     0   515   513  0.000000000E+00  0.000000000E+00  4.491231375E+01  4.491231375E+01  0.000000000E+00  0.00000E+00  9.000E+00
      21    -1     0     0   514   515  0.000000000E+00  0.000000000E+00 -9.770332972E+00  9.770332972E+00  0.000000000E+00  0.00000E+00  9.000E+00
      21     1     1     2   512   513  1.185920278E+01  3.667722258E+00  3.908135150E+01  4.100542540E+01  0.000000000E+00  0.00000E+00  9.000E+00
      21     1     1     2   511   512 -2.289205059E+00  4.066782525E-01 -2.062489889E+00  3.108007649E+00  9.884312124E-08  0.00000E+00  9.000E+00
      21     1     1     2   514   511 -9.569997725E+00 -4.074400511E+00 -1.876880833E+00  1.056921367E+01  3.089970552E-07  0.00000E+00  9.000E+00
</event>
<event>
      5  10001  2.40292E+09  1.78311E+01 -1.00000E+00  1.70546E-01
      21    -1     0     0   511   512  0.000000000E+00  0.000000000E+00  3.170809594E+01  3.170809594E+01  0.000000000E+00  0.00000E+00  9.000E+00
       2    -1     0     0   512     0  0.000000000E+00  0.000000000E+00 -1.460359064E+01  1.460359064E+01  0.000000000E+00  0.00000E+00  9.000E+00
      21     1     1     2   513   514 -6.276949232E+00 -7.184843544E+00  4.577925272E+00  1.058203516E+01  1.884864366E-07  0.00000E+00  9.000E+00
       2     1     1     2   514     0  2.511340967E+00  1.372831260E+01 -6.396831246E+00  1.535583766E+01  3.300000131E-01  0.00000E+00  9.000E+00
      21     1     1     2   511   513  3.765608264E+00 -6.543469051E+00  1.892341128E+01  2.037381376E+01  0.000000000E+00  0.00000E+00  9.000E+00
</event>
<event>
      5  10001  2.40292E+09  4.24699E+01 -1.00000E+00  1.43214E-01
       3    -1     0     0   514     0  0.000000000E+00  0.000000000E+00  1.473438785E+01  1.473438785E+01  0.000000000E+00  0.00000E+00  9.000E+00
      21    -1     0     0   511   515  0.000000000E+00  0.000000000E+00 -5.981725943E+01  5.981725943E+01  0.000000000E+00  0.00000E+00  9.000E+00
      21     1     1     2   514   515 -1.143703387E+01  7.508687131E-01 -1.924469958E+01  2.239928591E+01  3.371747881E-07  0.00000E+00  9.000E+00
      21     1     1     2   511   512  1.912288792E+01 -3.251879395E+00 -3.494387674E+01  3.996666215E+01  0.000000000E+00  0.00000E+00  9.000E+00
       3     1     1     2   512     0 -7.685854051E+00  2.501010681E+00  9.105704733E+00  1.218569922E+01  5.000000000E-01  0.00000E+00  9.000E+00
</event>
<event>
      5  10001  2.40292E+09  7.11373E+00 -1.00000E+00  2.14498E-01
       1    -1     0     0   514     0  0.000000000E+00  0.000000000E+00  6.292912503E+02  6.292912503E+02  0.000000000E+00  0.00000E+00  9.000E+00
      21    -1     0     0   513   514  0.000000000E+00  0.000000000E+00 -4.186450274E+01  4.186450274E+01  0.000000000E+00  0.00000E+00  9.000E+00
      21     1     1     2   513   512  5.675237479E+00 -8.702124289E+00 -4.083100519E+01  4.213201007E+01  2.780414531E-06  0.00000E+00  9.000E+00
       1     1     1     2   511     0 -8.965816188E+00  3.137873751E+00  5.983433012E+02  5.984187890E+02  3.300000131E-01  0.00000E+00  9.000E+00
      21     1     1     2   512   511  3.290578709E+00  5.564250539E+00  2.991445152E+01  3.060495388E+01  0.000000000E+00  0.00000E+00  9.000E+00
</event>
<event>
      5  10001  2.40292E+09  2.93928E+00 -1.00000E+00  2.99447E-01
       1    -1     0     0   514     0  0.000000000E+00  0.000000000E+00  4.868524426E+02  4.868524426E+02  0.000000000E+00  0.00000E+00  9.000E+00
      -1    -1     0     0     0   514  0.000000000E+00  0.000000000E+00 -6.390978353E-01  6.390978353E-01  0.000000000E+00  0.00000E+00  9.000E+00
      -1     1     1     2     0   513  8.125868343E+00 -8.603947193E+00  6.428411383E+01  6.536523414E+01  3.300000131E-01  0.00000E+00  9.000E+00
       1     1     1     2   515     0 -7.973810869E+00  5.291291100E+00  3.188544366E+02  3.189981819E+02  3.300000131E-01  0.00000E+00  9.000E+00
      21     1     1     2   513   515 -1.520574731E-01  3.312656093E+00  1.030747943E+02  1.031281244E+02  0.000000000E+00  0.00000E+00  9.000E+00
</event>
<event>
      5  10001  2.40292E+09  7.12897E+00 -1.00000E+00  2.14368E-01
       5    -1     0     0   513     0  0.000000000E+00  0.000000000E+00  2.691239770E+01  2.691239770E+01  0.000000000E+00  0.00000E+00  9.000E+00
      21    -1     0     0   512   513  0.000000000E+00  0.000000000E+00 -9.601981254E+00  9.601981254E+00  0.000000000E+00  0.00000E+00  9.000E+00
      21     1     1     2   514   511  9.073408201E-01 -5.302617173E+00 -3.961312469E+00  6.680794319E+00  1.332800375E-07  0.00000E+00  9.000E+00
       5     1     1     2   511     0  4.365641764E+00  9.394990320E+00  2.001340735E+01  2.304129221E+01  4.800000191E+00  0.00000E+00  9.000E+00
      21     1     1     2   512   514 -5.272982584E+00 -4.092373147E+00  1.258321573E+00  6.792292432E+00  1.307571588E-07  0.00000E+00  9.000E+00
</event>
<event>
      5  10001  2.40292E+09  8.94835E+00 -1.00000E+00  2.01444E-01
      21    -1     0     0   515   511  0.000000000E+00  0.000000000E+00  1.500152798E+01  1.500152798E+01  0.000000000E+00  0.00000E+00  9.000E+00
      21    -1     0     0   512   514  0.000000000E+00  0.000000000E+00 -1.790157135E+01  1.790157135E+01  0.000000000E+00  0.00000E+00  9.000E+00
      21     1     1     2   515   514 -7.682162894E+00 -7.536433104E+00 -1.347476574E+01  1.724478942E+01  2.384185791E-07  0.00000E+00  9.000E+00
      21     1     1     2   512   513  1.250367629E+00  2.510373983E+00  7.856081804E-01  2.912486387E+00  3.942476677E-08  0.00000E+00  9.000E+00
      21     1     1     2   513   511  6.431795265E+00  5.026059121E+00  9.789114181E+00  1.274582351E+01  1.685873940E-07  0.00000E+00  9.000E+00
</event>
<event>
      5  10001  2.40292E+09  1.28675E+01 -1.00000E+00  1.83845E-01
       2    -1     0     0   516     0  0.000000000E+00  0.000000000E+00  2.336323960E+01  2.336323960E+01  0.000000000E+00  0.00000E+00  9.000E+00
      21    -1     0     0   511   516  0.000000000E+00  0.000000000E+00 -1.186241920E+02  1.186241920E+02  0.000000000E+00  0.00000E+00  9.000E+00
      21     1     1     2   512   513 -1.284659904E+01  1.093115450E+01 -2.049058303E+01  2.654033230E+01  7.152557373E-07  0.00000E+00  9.000E+00
      21     1     1     2   511   512  8.505885732E+00 -2.304426410E+01 -9.127167001E+01  9.451934165E+01  1.907348633E-06  0.00000E+00  9.000E+00
       2     1     1     2   513     0  4.340713305E+00  1.211310960E+01  1.650130066E+01  2.092775764E+01  3.300000131E-01  0.00000E+00  9.000E+00
</event>
<event>
      5  10001  2.40292E+09  3.47673E+00 -1.00000E+00  2.78573E-01
      -2    -1     0     0     0   514  0.000000000E+00  0.000000000E+00  3.346894888E+01  3.346894888E+01  0.000000000E+00  0.00000E+00  9.000E+00
      21    -1     0     0   512   515  0.000000000E+00  0.000000000E+00 -2.077986706E+02  2.077986706E+02  0.000000000E+00  0.00000E+00  9.000E+00
      -2     1     1     2     0   511  8.229163095E+00 -5.745265949E+00  2.911042374E+01  3.079371488E+01  3.300000131E-01  0.00000E+00  9.000E+00
      21     1     1     2   512   514 -6.266153404E+00  8.227163118E+00 -2.060883237E+02  2.063476389E+02  2.697398305E-06  0.00000E+00  9.000E+00
      21     1     1     2   511   515 -1.963009691E+00 -2.481897169E+00  2.648178279E+00  4.126265722E+00  2.021291847E-07  0.00000E+00  9.000E+00
</event>
<event>
      5  10001  2.40292E+09  1.61018E+01 -1.00000E+00  1.74486E-01
      21    -1     0     0   513   514  0.000000000E+00  0.000000000E+00  2.997799054E+00  2.997799054E+00  0.000000000E+00  0.00000E+00  9.000E+00
      21    -1     0     0   516   513  0.000000000E+00  0.000000000E+00 -1.529680273E+02  1.529680273E+02  0.000000000E+00  0.00000E+00  9.000E+00
      21     1     1     2   512   514  2.959078055E+00 -6.712117634E+00 -4.745301335E+00  8.736506787E+00  2.731427965E-07  0.00000E+00  9.000E+00
      21     1     1     2   517   512  1.658248629E+00  8.985938680E-01 -1.323786318E+02  1.323920671E+02  3.303624740E-06  0.00000E+00  9.000E+00
      21     1     1     2   516   517 -4.617326683E+00  5.813523766E+00 -1.284629510E+01  1.483725251E+01  3.371747881E-07  0.00000E+00  9.000E+00
</event>
<event>
      5  10001  2.40292E+09  1.99819E+01 -1.00000E+00  1.66360E-01
      21    -1     0     0   511   516  0.000000000E+00  0.000000000E+00  1.103280434E+02  1.103280434E+02  0.000000000E+00  0.00000E+00  9.000E+00
      21    -1     0     0   514   515  0.000000000E+00  0.000000000E+00 -1.006535875E+01  1.006535875E+01  0.000000000E+00  0.00000E+00  9.000E+00
      21     1     1     2   511   515  6.539130869E+00  8.939294746E+00  8.809012787E+01  8.878368010E+01  1.348699152E-06  0.00000E+00  9.000E+00
      21     1     1     2   512   516 -3.279015566E+00 -1.864542816E+01  8.047067553E+00  2.057083447E+01  2.920019320E-07  0.00000E+00  9.000E+00
      21     1     1     2   514   512 -3.260115303E+00  9.706133418E+00  4.125489236E+00  1.103888759E+01  1.460009660E-07  0.00000E+00  9.000E+00
</event>
<event>
      5  10001  2.40292E+09  3.36655E+00 -1.00000E+00  2.82334E-01
      21    -1     0     0   515   514  0.000000000E+00  0.000000000E+00  1.030522758E+01  1.030522758E+01  0.000000000E+00  0.00000E+00  9.000E+00
      -3    -1     0     0     0   513  0.000000000E+00  0.000000000E+00 -5.625857833E+01  5.625857833E+01  0.000000000E+00  0.00000E+00  9.000E+00
      -3     1     1     2     0   511 -9.755965808E+00  9.122360327E-01 -2.654624652E+01  2.830131177E+01  5.000000000E-01  0.00000E+00  9.000E+00
      21     1     1     2   511   514  1.310165528E+01 -5.437673157E-01 -2.696755757E+01  2.998663394E+01  5.840038640E-07  0.00000E+00  9.000E+00
      21     1     1     2   515   513 -3.345689472E+00 -3.684687170E-01  7.560453347E+00  8.275860200E+00  1.192092896E-07  0.00000E+00  9.000E+00
</event>
<event>
      5  10001  2.40292E+09  6.08969E+00 -1.00000E+00  2.24398E-01
      21    -1     0     0   512   511  0.000000000E+00  0.000000000E+00  2.729708427E+02  2.729708427E+02  0.000000000E+00  0.00000E+00  9.000E+00
      21    -1     0     0   517   516  0.000000000E+00  0.000000000E+00 -6.198321171E+00  6.198321171E+00  0.000000000E+00  0.00000E+00  9.000E+00
      21     1     1     2   512   516 -8.318239068E+00  5.755486921E+00  2.683775050E+02  2.685680620E+02  3.814697266E-06  0.00000E+00  9.000E+00
       3     1     1     2   517     0  5.763359885E-01 -1.178246914E-01 -5.609778104E-01  9.543280009E-01  5.000000000E-01  0.00000E+00  9.000E+00
      -3     1     1     2     0   511  7.741903079E+00 -5.637662229E+00 -1.044005650E+00  9.646773890E+00  5.000000000E-01  0.00000E+00  9.000E+00
</event>
<event>
      5  10001  2.40292E+09  6.20037E+00 -1.00000E+00  2.23202E-01
      21    -1     0     0   513   515  0.000000000E+00  0.000000000E+00  7.469295324E+01  7.469295324E+01  0.000000000E+00  0.00000E+00  9.000E+00
      21    -1     0     0   511   512  0.000000000E+00  0.000000000E+00 -1.667051720E+01  1.667051720E+01  0.000000000E+00  0.00000E+00  9.000E+00
      21     1     1     2   511   514  3.376621053E+00  1.224914769E+01  2.107472133E+00  1.287962063E+01  3.462716949E-07  0.00000E+00  9.000E+00
      21     1     1     2   514   515  1.449492995E+00 -8.356440957E+00  6.605559963E+01  6.659784815E+01  1.348699152E-06  0.00000E+00  9.000E+00
      21     1     1     2   513   512 -4.826114047E+00 -3.892706731E+00 -1.014063572E+01  1.188600166E+01  1.685873940E-07  0.00000E+00  9.000E+00
</event>
<event>
      5  10001  2.40292E+09  9.67982E+00 -1.00000E+00  1.97346E-01
      21    -1     0     0   516   512  0.000000000E+00  0.000000000E+00  7.900990123E+02  7.900990123E+02  0.000000000E+00  0.00000E+00  9.000E+00
      21    -1     0     0   514   517  0.000000000E+00  0.000000000E+00 -1.039665726E+00  1.039665726E+00  0.000000000E+00  0.00000E+00  9.000E+00
      21     1     1     2   516   517  9.323459657E+00 -5.852336562E+00  3.147444579E+02  3.149368992E+02  5.394796609E-06  0.00000E+00  9.000E+00
      21     1     1     2   511   512 -2.610547463E+00  1.282626170E+01  4.475312965E+02  4.477226701E+02  5.394796609E-06  0.00000E+00  9.000E+00
      21     1     1     2   514   511 -6.712912194E+00 -6.973925139E+00  2.678359223E+01  2.847910874E+01  8.920806376E-07  0.00000E+00  9.000E+00
</event>
<event>
      5  10001  2.40292E+09  1.08211E+01 -1.00000E+00  1.91821E-01
       1    -1     0     0   514     0  0.000000000E+00  0.000000000E+00  6.447496869E+01  6.447496869E+01  0.000000000E+00  0.00000E+00  9.000E+00
      21    -1     0     0   513   512  0.000000000E+00  0.000000000E+00 -2.105858273E+02  2.105858273E+02  0.000000000E+00  0.00000E+00  9.000E+00
      21     1     1     2   514   511 -1.092439747E+01 -2.749375526E+01 -7.770687179E+01  8.314810257E+01  1.348699152E-06  0.00000E+00  9.000E+00
       1     1     1     2   513     0  9.854486167E+00  3.826181547E+01  5.517348076E+01  6.786235554E+01  3.300000131E-01  0.00000E+00  9.000E+00
      21     1     1     2   511   512  1.069911305E+00 -1.076806021E+01 -1.235774676E+02  1.240503379E+02  1.348699152E-06  0.00000E+00  9.000E+00
</event>
<event>
      5  10001  2.40292E+09  1.35077E+01 -1.00000E+00  1.81731E-01
      21    -1     0     0   515   513  0.000000000E+00  0.000000000E+00  6.340220429E+00  6.340220429E+00  0.000000000E+00  0.00000E+00  9.000E+00
      21    -1     0     0   516   515  0.000000000E+00  0.000000000E+00 -2.775259881E+01  2.775259881E+01  0.000000000E+00  0.00000E+00  9.000E+00
      21     1     1     2   512   513  8.253735414E+00  4.358769856E+00 -1.355223468E+01  1.645557923E+01  0.000000000E+00  0.00000E+00  9.000E+00
      21     1     1     2   516   514  1.875824119E-01 -4.919871391E+00  1.376070539E+00  5.112131825E+00  1.452385537E-07  0.00000E+00  9.000E+00
      21     1     1     2   514   512 -8.441317826E+00  5.611015347E-01 -9.236214238E+00  1.252510818E+01  1.192092896E-07  0.00000E+00  9.000E+00
</event>
<event>
      5  10001  2.40292E+09  2.06406E+01 -1.00000E+00  1.65206E-01
      21    -1     0     0   514   512  0.000000000E+00  0.000000000E+00  5.055336819E+00  5.055336819E+00  0.000000000E+00  0.00000E+00  9.000E+00
       2    -1     0     0   512     0  0.000000000E+00  0.000000000E+00 -1.232175976E+02  1.232175976E+02  0.000000000E+00  0.00000E+00  9.000E+00
      21     1     1     2   514   511 -1.804528310E+01  5.137704754E+00 -2.333923240E+01  2.994575131E+01  0.000000000E+00  0.00000E+00  9.000E+00
      21     1     1     2   511   513  1.058914232E+01  5.763465773E+00 -3.366925993E+01  3.576264164E+01  0.000000000E+00  0.00000E+00  9.000E+00
       2     1     1     2   513     0  7.456140779E+00 -1.090117053E+01 -6.115376843E+01  6.256454146E+01  3.300000131E-01  0.00000E+00  9.000E+00
</event>
<event>
      5  10001  2.40292E+09  5.72261E+00 -1.00000E+00  2.28632E-01
      21    -1     0     0   514   511  0.000000000E+00  0.000000000E+00  5.348781777E+01  5.348781777E+01  0.000000000E+00  0.00000E+00  9.000E+00
      21    -1     0     0   512   516  0.000000000E+00  0.000000000E+00 -2.631826204E+01  2.631826204E+01  0.000000000E+00  0.00000E+00  9.000E+00
      21     1     1     2   515   516 -7.237792033E+00 -9.756707409E+00  1.961413404E+01  2.307148081E+01  2.384185791E-07  0.00000E+00  9.000E+00
      21     1     1     2   512   511  1.166277487E+01  6.127968732E+00 -2.253566941E+01  2.610418959E+01  2.384185791E-07  0.00000E+00  9.000E+00
      21     1     1     2   514   515 -4.424982833E+00  3.628738677E+00  3.009109109E+01  3.063040941E+01  0.000000000E+00  0.00000E+00  9.000E+00
</event>
<event>
      5  10001  2.40292E+09  9.83369E+00 -1.00000E+00  1.96544E-01
      21    -1     0     0   512   511  0.000000000E+00  0.000000000E+00  7.783513494E+00  7.783513494E+00  0.000000000E+00  0.00000E+00  9.000E+00
       2    -1     0     0   511     0  0.000000000E+00  0.000000000E+00 -2.127951349E+02  2.127951349E+02  0.000000000E+00  0.00000E+00  9.000E+00
      21     1     1     2   512   513 -1.555724948E+01  4.203975351E+00 -1.709859910E+00  1.620571014E+01  9.212244461E-07  0.00000E+00  9.000E+00
       2     1     1     2   516     0  6.234209629E+00  1.487509841E+00 -1.391487811E+02  1.392966986E+02  3.300000131E-01  0.00000E+00  9.000E+00
      21     1     1     2   513   516  9.323039852E+00 -5.691485192E+00 -6.415298035E+01  6.507623963E+01  9.536743164E-07  0.00000E+00  9.000E+00
</event>
<event>
      5  10001  2.40292E+09  7.01131E+00 -1.00000E+00  2.15383E-01
      21    -1     0     0   514   516  0.000000000E+00  0.000000000E+00  1.536677512E+01  1.536677512E+01  0.000000000E+00  0.00000E+00  9.000E+00
      21    -1     0     0   511   514  0.000000000E+00  0.000000000E+00 -1.109213616E+01  1.109213616E+01  0.000000000E+00  0.00000E+00  9.000E+00
      21     1     1     2   515   516 -1.142635833E+01 -1.329791353E+00  4.418223830E+00  1.232277207E+01  1.032382731E-07  0.00000E+00  9.000E+00
      21     1     1     2   511   512  7.897720439E+00 -2.471233318E+00  2.017134516E+00  8.517617854E+00  2.230201594E-07  0.00000E+00  9.000E+00
      21     1     1     2   512   515  3.528637894E+00  3.801024672E+00 -2.160719379E+00  5.618521351E+00  1.712013080E-07  0.00000E+00  9.000E+00
</event>
<event>
      5  10001  2.40292E+09  9.59762E+00 -1.00000E+00  1.97782E-01
      21    -1     0     0   512   511  0.000000000E+00  0.000000000E+00  1.350056005E+01  1.350056005E+01  0.000000000E+00  0.00000E+00  9.000E+00
      -2    -1     0     0     0   514  0.000000000E+00  0.000000000E+00 -3.307542222E+01  3.307542222E+01  0.000000000E+00  0.00000E+00  9.000E+00
      -2     1     1     2     0   511  6.808165254E+00  1.555659100E+01 -2.897203647E+00  1.722966415E+01  3.300000131E-01  0.00000E+00  9.000E+00
      21     1     1     2   512   513 -7.043782133E+00 -5.962565439E+00  9.481600594E-01  9.277179574E+00  1.601441596E-07  0.00000E+00  9.000E+00
      21     1     1     2   513   514  2.356168789E-01 -9.594025558E+00 -1.762581858E+01  2.006913855E+01  2.384185791E-07  0.00000E+00  9.000E+00
</event>
<event>
      5  10001  2.40292E+09  7.92646E+00 -1.00000E+00  2.08130E-01
      21    -1     0     0   515   512  0.000000000E+00  0.000000000E+00  1.375496806E+02  1.375496806E+02  0.000000000E+00  0.00000E+00  9.000E+00
       2    -1     0     0   511     0  0.000000000E+00  0.000000000E+00 -9.067635692E+02  9.067635692E+02  0.000000000E+00  0.00000E+00  9.000E+00
      21     1     1     2   515   513  3.767763278E+00  1.122916385E+01 -4.237828934E+00  1.257971999E+01  1.202478469E-06  0.00000E+00  9.000E+00
       2     1     1     2   513     0 -1.148809147E+01 -9.433268889E+00 -8.981754474E+02  8.982985060E+02  3.300000131E-01  0.00000E+00  9.000E+00
      21     1     1     2   511   512  7.720328193E+00 -1.795894962E+00  1.331993877E+02  1.334350239E+02  1.907348633E-06  0.00000E+00  9.000E+00
</event>
<event>
      5  10001  2.40292E+09  5.21584E+00 -1.00000E+00  2.35267E-01
      21    -1     0     0   514   511  0.000000000E+00  0.000000000E+00  6.761794243E+01  6.761794243E+01  0.000000000E+00  0.00000E+00  9.000E+00
      21    -1     0     0   513   514  0.000000000E+00  0.000000000E+00 -1.298026671E+02  1.298026671E+02  0.000000000E+00  0.00000E+00  9.000E+00
      -5     1     1     2     0   512 -1.096227528E+01 -1.190838466E+01 -7.835500617E+01  8.015315401E+01  4.800000191E+00  0.00000E+00  9.000E+00
      21     1     1     2   512   511  1.589338475E+01  1.356300283E+01  6.482069845E+01  6.810490197E+01  9.536743164E-07  0.00000E+00  9.000E+00
       5     1     1     2   513     0 -4.931109469E+00 -1.654618173E+00 -4.865041694E+01  4.916255355E+01  4.800000191E+00  0.00000E+00  9.000E+00
</event>
<event>
      5  10001  2.40292E+09  4.70273E+00 -1.00000E+00  2.47842E-01
      21    -1     0     0   515   512  0.000000000E+00  0.000000000E+00  9.563274830E+00  9.563274830E+00  0.000000000E+00  0.00000E+00  9.000E+00
      21    -1     0     0   513   516  0.000000000E+00  0.000000000E+00 -1.586244973E+02  1.586244973E+02  0.000000000E+00  0.00000E+00  9.000E+00
      21     1     1     2   515   516  1.024047481E+01 -5.935042850E+00  5.055483951E+00  1.287050799E+01  4.539354507E-07  0.00000E+00  9.000E+00
      21     1     1     2   511   512 -1.312476941E+01  4.403162178E+00 -1.444899995E+02  1.451516702E+02  1.907348633E-06  0.00000E+00  9.000E+00
      21     1     1     2   513   511  2.884294597E+00  1.531880672E+00 -9.626706883E+00  1.016559389E+01  0.000000000E+00  0.00000E+00  9.000E+00
</event>
<event>
      5  10001  2.40292E+09  1.59176E+01 -1.00000E+00  1.74942E-01
      21    -1     0     0   511   512  0.000000000E+00  0.000000000E+00  2.462311464E+01  2.462311464E+01  0.000000000E+00  0.00000E+00  9.000E+00
      21    -1     0     0   515   511  0.000000000E+00  0.000000000E+00 -1.082169876E+02  1.082169876E+02  0.000000000E+00  0.00000E+00  9.000E+00
      -4     1     1     2     0   512  8.694474024E+00 -1.732928575E+01  1.472905809E+01  2.439453167E+01  1.500000000E+00  0.00000E+00  9.000E+00
       4     1     1     2   514     0  7.179750510E+00  1.831585124E+01 -1.847671122E+01  2.703068777E+01  1.500000000E+00  0.00000E+00  9.000E+00
      21     1     1     2   515   514 -1.587422453E+01 -9.865654907E-01 -7.984621981E+01  8.141488275E+01  1.348699152E-06  0.00000E+00  9.000E+00
</event>
<event>
      5  10001  2.40292E+09  4.19509E+00 -1.00000E+00  2.58586E-01
      21    -1     0     0   514   515  0.000000000E+00  0.000000000E+00  1.787927299E+00  1.787927299E+00  0.000000000E+00  0.00000E+00  9.000E+00
      21    -1     0     0   513   514  0.000000000E+00  0.000000000E+00 -3.303650679E+02  3.303650679E+02  0.000000000E+00  0.00000E+00  9.000E+00
      -1     1     1     2     0   515  5.559320637E-01 -1.140963486E+01 -1.862908669E+01  2.185499026E+01  3.300000131E-01  0.00000E+00  9.000E+00
      21     1     1     2   513   511 -3.507913708E+00  8.943072836E+00 -2.681465665E+02  2.683185889E+02  3.814697266E-06  0.00000E+00  9.000E+00
       1     1     1     2   511     0  2.951981645E+00  2.466562024E+00 -4.180148743E+01  4.197941609E+01  3.300000131E-01  0.00000E+00  9.000E+00
</event>
<event>
      5  10001  2.40292E+09  3.57730E+00 -1.00000E+00  2.75330E-01
       2    -1     0     0   513     0  0.000000000E+00  0.000000000E+00  3.592119904E+01  3.592119904E+01  0.000000000E+00  0.00000E+00  9.000E+00
      21    -1     0     0   511   512  0.000000000E+00  0.000000000E+00 -1.114421135E+01  1.114421135E+01  0.000000000E+00  0.00000E+00  9.000E+00
      -3     1     1     2     0   512  4.386319305E+00  7.362397898E+00 -1.716749948E+00  8.754537694E+00  5.000000000E-01  0.00000E+00  9.000E+00
       2     1     1     2   511     0 -5.514934493E+00 -1.128268750E+01  3.024249631E+01  3.274799265E+01  3.300000131E-01  0.00000E+00  9.000E+00
       3     1     1     2   513     0  1.128615187E+00  3.920289604E+00 -3.748758676E+00  5.562880048E+00  5.000000000E-01  0.00000E+00  9.000E+00
</event>
<event>
      5  10001  2.40292E+09  1.88160E+00 -1.00000E+00  3.75676E-01
       2    -1     0     0   513     0  0.000000000E+00  0.000000000E+00  7.135802938E+02  7.135802938E+02  0.000000000E+00  0.00000E+00  9.000E+00
       2    -1     0     0   514     0  0.000000000E+00  0.000000000E+00 -4.299592244E-01  4.299592244E-01  0.000000000E+00  0.00000E+00  9.000E+00
       2     1     1     2   513     0  1.209664031E+00 -1.235263200E+01  1.055351357E+02  1.062629972E+02  3.300000131E-01  0.00000E+00  9.000E+00
       2     1     1     2   511     0 -5.716944992E-01  8.777526963E+00  3.723403157E+02  3.724443467E+02  3.300000131E-01  0.00000E+00  9.000E+00
      21     1     1     2   514   511 -6.379695320E-01  3.575105037E+00  2.352748831E+02  2.353029090E+02  2.697398305E-06  0.00000E+00  9.000E+00
</event>
<event>
      5  10001  2.40292E+09  2.84106E+01 -1.00000E+00  1.54664E-01
       1    -1     0     0   514     0  0.000000000E+00  0.000000000E+00  1.983696234E+02  1.983696234E+02  0.000000000E+00  0.00000E+00  9.000E+00
      21    -1     0     0   512   511  0.000000000E+00  0.000000000E+00 -2.168269440E+00  2.168269440E+00  0.000000000E+00  0.00000E+00  9.000E+00
      21     1     1     2   513   511 -3.735243868E-01 -4.442880978E+00  3.507303427E+01  3.535528878E+01  0.000000000E+00  0.00000E+00  9.000E+00
       1     1     1     2   512     0 -1.121329618E+00  9.702684112E+00  1.590233077E+02  1.593233214E+02  3.300000131E-01  0.00000E+00  9.000E+00
      21     1     1     2   514   513  1.494854005E+00 -5.259803133E+00  2.105011994E+00  5.859282635E+00  1.954268969E-07  0.00000E+00  9.000E+00
</event>
<event>
      5  10001  2.40292E+09  2.66220E+00 -1.00000E+00  3.13397E-01
      -1    -1     0     0     0   513  0.000000000E+00  0.000000000E+00  1.738071332E+00  1.738071332E+00  0.000000000E+00  0.00000E+00  9.000E+00
      21    -1     0     0   513   511  0.000000000E+00  0.000000000E+00 -1.413666422E+02  1.413666422E+02  0.000000000E+00  0.00000E+00  9.000E+00
      -1     1     1     2     0   515 -2.063435540E+00  1.211680787E+01 -2.692684423E+01  2.960132834E+01  3.300000131E-01  0.00000E+00  9.000E+00
      21     1     1     2   515   514  2.725213099E+00 -9.538491885E+00 -6.769385769E+01  6.841686914E+01  0.000000000E+00  0.00000E+00  9.000E+00
      21     1     1     2   514   511 -6.617775585E-01 -2.578315983E+00 -4.500786890E+01  4.508651600E+01  4.768371582E-07  0.00000E+00  9.000E+00
</event>
<event>
      5  10001  2.40292E+09  6.36895E+00 -1.00000E+00  2.21445E-01
      -5    -1     0     0     0   514  0.000000000E+00  0.000000000E+00  2.040934611E+02  2.040934611E+02  0.000000000E+00  0.00000E+00  9.000E+00
      21    -1     0     0   513   512  0.000000000E+00  0.000000000E+00 -5.263389059E+02  5.263389059E+02  0.000000000E+00  0.00000E+00  9.000E+00
      21     1     1     2   511   514 -8.112521835E+00  3.897977694E+01 -2.579816260E+00  3.989851467E+01  1.606839963E-06  0.00000E+00  9.000E+00
      21     1     1     2   513   511  7.788192134E+00 -3.261947113E+01 -5.044569792E+02  5.055704992E+02  1.206313194E-05  0.00000E+00  9.000E+00
      -5     1     1     2     0   512  3.243297016E-01 -6.360305812E+00  1.847913507E+02  1.849633531E+02  4.800000191E+00  0.00000E+00  9.000E+00
</event>
<event>
      5  10001  2.40292E+09  5.24463E+00 -1.00000E+00  2.34862E-01
      21    -1     0     0   515   512  0.000000000E+00  0.000000000E+00  2.215736733E+01  2.215736733E+01  0.000000000E+00  0.00000E+00  9.000E+00
      21    -1     0     0   511   516  0.000000000E+00  0.000000000E+00 -1.420910734E+01  1.420910734E+01  0.000000000E+00  0.00000E+00  9.000E+00
      21     1     1     2   515   516  6.700935192E+00 -9.288689129E+00  8.462038616E+00  1.424037836E+01  2.920019320E-07  0.00000E+00  9.000E+00
      21     1     1     2   514   512 -6.658859949E+00  1.453315299E+01  2.338293397E+00  1.615613096E+01  4.906081448E-07  0.00000E+00  9.000E+00
      21     1     1     2   511   514 -4.207524346E-02 -5.244463858E+00 -2.852072030E+00  5.969965355E+00  0.000000000E+00  0.00000E+00  9.000E+00
</event>
<event>
      5  10001  2.40292E+09  1.61414E+01 -1.00000E+00  1.74389E-01
      21    -1     0     0   511   512  0.000000000E+00  0.000000000E+00  3.099250314E+01  3.099250314E+01  0.000000000E+00  0.00000E+00  9.000E+00
       3    -1     0     0   513     0  0.000000000E+00  0.000000000E+00 -1.390673964E+02  1.390673964E+02  0.000000000E+00  0.00000E+00  9.000E+00
      21     1     1     2   513   515 -2.593636816E-01 -1.728982751E+01  2.596444074E+01  3.119547383E+01  9.536743164E-07  0.00000E+00  9.000E+00
       3     1     1     2   511     0  6.581372261E+00  9.595036428E+00 -1.245996259E+02  1.251427024E+02  5.000000000E-01  0.00000E+00  9.000E+00
      21     1     1     2   515   512 -6.322008579E+00  7.694791080E+00 -9.439708124E+00  1.372172335E+01  1.685873940E-07  0.00000E+00  9.000E+00
</event>
<event>
      5  10001  2.40292E+09  3.01202E+00 -1.00000E+00  2.96203E-01
      21    -1     0     0   514   515  0.000000000E+00  0.000000000E+00  1.304889317E+00  1.304889317E+00  0.000000000E+00  0.00000E+00  9.000E+00
      21    -1     0     0   513   511  0.000000000E+00  0.000000000E+00 -3.281914458E+02  3.281914458E+02  0.000000000E+00  0.00000E+00  9.000E+00
      21     1     1     2   514   512 -8.730377527E+00 -7.676328432E+00 -5.458385513E+01  5.580808858E+01  6.743495762E-07  0.00000E+00  9.000E+00
      21     1     1     2   513   515  5.909470161E+00  8.732149330E+00 -4.000907421E+01  4.137509261E+01  6.743495762E-07  0.00000E+00  9.000E+00
      21     1     1     2   512   511  2.820907366E+00 -1.055820899E+00 -2.322936271E+02  2.323131539E+02  0.000000000E+00  0.00000E+00  9.000E+00
</event>
<event>
      5  10001  2.40292E+09  8.56518E+00 -1.00000E+00  2.03805E-01
      21    -1     0     0   516   513  0.000000000E+00  0.000000000E+00  2.169412994E+02  2.169412994E+02  0.000000000E+00  0.00000E+00  9.000E+00
      21    -1     0     0   514   516  0.000000000E+00  0.000000000E+00 -5.275487138E+01  5.275487138E+01  0.000000000E+00  0.00000E+00  9.000E+00
      21     1     1     2   511   513  1.277847430E+01 -9.195809392E+00  2.089780288E+02  2.095702002E+02  2.697398305E-06  0.00000E+00  9.000E+00
      21     1     1     2   517   511 -4.269602774E+00  8.215263806E+00  4.359938309E+00  1.023372509E+01  4.042583694E-07  0.00000E+00  9.000E+00
      21     1     1     2   514   517 -8.508871521E+00  9.805455855E-01 -4.915153906E+01  4.989224545E+01  1.168007728E-06  0.00000E+00  9.000E+00
</event>
<event>
      5  10001  2.40292E+09  7.16301E+00 -1.00000E+00  2.14080E-01
       2    -1     0     0   513     0  0.000000000E+00  0.000000000E+00  5.001923381E+01  5.001923381E+01  0.000000000E+00  0.00000E+00  9.000E+00
       2    -1     0     0   512     0  0.000000000E+00  0.000000000E+00 -2.816834819E+01  2.816834819E+01  0.000000000E+00  0.00000E+00  9.000E+00
       2     1     1     2   512     0  6.212255133E+00 -5.510778396E+00  4.227213168E+01  4.308135106E+01  3.300000131E-01  0.00000E+00  9.000E+00
       2     1     1     2   511     0 -1.249734126E+01  2.075381691E+00 -2.396907355E+01  2.711302519E+01  3.300000131E-01  0.00000E+00  9.000E+00
      21     1     1     2   513   511  6.285086129E+00  3.435396705E+00  3.547827502E+00  7.993205750E+00  1.460009660E-07  0.00000E+00  9.000E+00
</event>
<event>
      5  10001  2.40292E+09  7.10131E+00 -1.00000E+00  2.14605E-01
      21    -1     0     0   514   511  0.000000000E+00  0.000000000E+00  6.510962362E+01  6.510962362E+01  0.000000000E+00  0.00000E+00  9.000E+00
      21    -1     0     0   515   514  0.000000000E+00  0.000000000E+00 -1.721701366E+01  1.721701366E+01  0.000000000E+00  0.00000E+00  9.000E+00
      21     1     1     2   515   512 -4.864963716E+00  9.279205247E+00 -1.487624824E+01  1.819544679E+01  4.129530925E-07  0.00000E+00  9.000E+00
      21     1     1     2   516   511  3.914285920E+00 -1.535674447E+00  3.611671433E+01  3.636065159E+01  0.000000000E+00  0.00000E+00  9.000E+00
      21     1     1     2   512   516  9.506777964E-01 -7.743530800E+00  2.665214388E+01  2.777053890E+01  3.371747881E-07  0.00000E+00  9.000E+00
</event>
<event>
      5  10001  2.40292E+09  4.90023E+00 -1.00000E+00  2.44199E-01
      -1    -1     0     0     0   513  0.000000000E+00  0.000000000E+00  1.186004261E+01  1.186004261E+01  0.000000000E+00  0.00000E+00  9.000E+00
      21    -1     0     0   511   514  0.000000000E+00  0.000000000E+00 -8.808338063E+00  8.808338063E+00  0.000000000E+00  0.00000E+00  9.000E+00
      21     1     1     2   515   514  2.063028863E+00  5.710643701E+00 -9.614515335E-01  6.147514020E+00  9.064022497E-08  0.00000E+00  9.000E+00
      21     1     1     2   511   513 -2.513564857E+00 -8.960709092E+00 -2.586206524E-02  9.306609725E+00  2.394941317E-07  0.00000E+00  9.000E+00
      -1     1     1     2     0   515  4.505359938E-01  3.250065391E+00  4.039018149E+00  5.214256931E+00  3.300000131E-01  0.00000E+00  9.000E+00
</event>
<event>
      5  10001  2.40292E+09  4.88732E+00 -1.00000E+00  2.44429E-01
      21    -1     0     0   515   511  0.000000000E+00  0.000000000E+00  7.893462063E+00  7.893462063E+00  0.000000000E+00  0.00000E+00  9.000E+00
      -2    -1     0     0     0   513  0.000000000E+00  0.000000000E+00 -1.978519862E+02  1.978519862E+02  0.000000000E+00  0.00000E+00  9.000E+00
      -2     1     1     2     0   511 -8.993303886E+00 -4.253874703E+00 -1.499083755E+02  1.502384934E+02  3.300000131E-01  0.00000E+00  9.000E+00
      21     1     1     2   515   512  1.262026040E+01  9.782083129E-01  2.308846138E+00  1.286695902E+01  6.664001875E-07  0.00000E+00  9.000E+00
      21     1     1     2   512   513 -3.626956512E+00  3.275666390E+00 -4.235899475E+01  4.263999578E+01  0.000000000E+00  0.00000E+00  9.000E+00
</event>
<event>
      5  10001  2.40292E+09  5.23775E+00 -1.00000E+00  2.34959E-01
      21    -1     0     0   512   514  0.000000000E+00  0.000000000E+00  1.758088435E+01  1.758088435E+01  0.000000000E+00  0.00000E+00  9.000E+00
       1    -1     0     0   515     0  0.000000000E+00  0.000000000E+00 -6.179413548E+02  6.179413548E+02  0.000000000E+00  0.00000E+00  9.000E+00
      21     1     1     2   511   514 -8.928197515E+00 -1.006975112E+01  1.479075900E+01  1.999697853E+01  1.130918620E-06  0.00000E+00  9.000E+00
       1     1     1     2   512     0  8.302812249E+00  4.869483019E+00 -5.683923961E+02  5.684739866E+02  3.300000131E-01  0.00000E+00  9.000E+00
      21     1     1     2   515   511  6.253852658E-01  5.200268105E+00 -4.675883330E+01  4.705127402E+01  6.743495762E-07  0.00000E+00  9.000E+00
</event>
<event>
      5  10001  2.40292E+09  5.30642E+00 -1.00000E+00  2.34005E-01
      21    -1     0     0   513   511  0.000000000E+00  0.000000000E+00  2.457825145E+01  2.457825145E+01  0.000000000E+00  0.00000E+00  9.000E+00
      21    -1     0     0   512   513  0.000000000E+00  0.000000000E+00 -1.224957746E+01  1.224957746E+01  0.000000000E+00  0.00000E+00  9.000E+00
      21     1     1     2   516   511  3.732443305E+00  1.237502596E+01  1.694442107E+01  2.131163546E+01  4.129530925E-07  0.00000E+00  9.000E+00
      21     1     1     2   515   516  6.996805287E-01 -9.457080506E+00 -2.530456926E+00  9.814740791E+00  2.384185791E-07  0.00000E+00  9.000E+00
      21     1     1     2   512   515 -4.432123833E+00 -2.917945449E+00 -2.085290157E+00  5.701452654E+00  4.214684851E-08  0.00000E+00  9.000E+00
</event>
<event>
      5  10001  2.40292E+09  3.16809E+01 -1.00000E+00  1.51379E-01
      21    -1     0     0   514   512  0.000000000E+00  0.000000000E+00  3.359925382E+01  3.359925382E+01  0.000000000E+00  0.00000E+00  9.000E+00
      21    -1     0     0   511   517  0.000000000E+00  0.000000000E+00 -1.164524109E+01  1.164524109E+01  0.000000000E+00  0.00000E+00  9.000E+00
      21     1     1     2   514   517  8.753476432E+00  7.677277181E-01  9.647813806E+00  1.304963857E+01  1.192092896E-07  0.00000E+00  9.000E+00
      21     1     1     2   513   512  3.806534861E+00 -1.147434085E+01  8.796809824E-01  1.212122288E+01  2.520015020E-07  0.00000E+00  9.000E+00
      21     1     1     2   511   513 -1.256001129E+01  1.070661313E+01  1.142651794E+01  2.007363346E+01  2.920019320E-07  0.00000E+00  9.000E+00
</event>
<event>
      5  10001  2.40292E+09  8.51107E+00 -1.00000E+00  2.04151E-01
       3    -1     0     0   511     0  0.000000000E+00  0.000000000E+00  4.381484395E+00  4.381484395E+00  0.000000000E+00  0.00000E+00  9.000E+00
      21    -1     0     0   515   513  0.000000000E+00  0.000000000E+00 -5.269417283E+01  5.269417283E+01  0.000000000E+00  0.00000E+00  9.000E+00
      21     1     1     2   511   513  9.322952916E+00 -3.323337064E+00 -3.707358038E+01  3.837202604E+01  4.768371582E-07  0.00000E+00  9.000E+00
       3     1     1     2   512     0 -4.292044838E+00 -2.290407710E-01  1.478926229E+00  4.572890920E+00  5.000000000E-01  0.00000E+00  9.000E+00
      21     1     1     2   515   512 -5.030908077E+00  3.552377835E+00 -1.271803429E+01  1.413074027E+01  0.000000000E+00  0.00000E+00  9.000E+00
</event>
<event>
      5  10001  2.40292E+09  4.04264E+00 -1.00000E+00  2.62283E-01
      21    -1     0     0   515   512  0.000000000E+00  0.000000000E+00  2.792277516E+00  2.792277516E+00  0.000000000E+00  0.00000E+00  9.000E+00
      -1    -1     0     0     0   514  0.000000000E+00  0.000000000E+00 -7.812384178E+01  7.812384178E+01  0.000000000E+00  0.00000E+00  9.000E+00
      -1     1     1     2     0   512 -1.360620267E+01 -1.888058344E+00 -4.736535622E+01  4.931814458E+01  3.300000131E-01  0.00000E+00  9.000E+00
      21     1     1     2   515   511  8.034789947E+00  1.625367232E+00 -1.086766331E+01  1.361270635E+01  2.920019320E-07  0.00000E+00  9.000E+00
      21     1     1     2   511   514  5.571412722E+00  2.626911121E-01 -1.709854474E+01  1.798526837E+01  3.371747881E-07  0.00000E+00  9.000E+00
</event>
<event>
      5  10001  2.40292E+09  2.15362E+01 -1.00000E+00  1.63720E-01
       2    -1     0     0   514     0  0.000000000E+00  0.000000000E+00  8.970479486E+01  8.970479486E+01  0.000000000E+00  0.00000E+00  9.000E+00
      21    -1     0     0   511   513  0.000000000E+00  0.000000000E+00 -3.384655059E+01  3.384655059E+01  0.000000000E+00  0.00000E+00  9.000E+00
      21     1     1     2   514   513  1.193133779E+01 -6.162285791E+00 -3.068236499E+01  3.349235896E+01  3.371747881E-07  0.00000E+00  9.000E+00
      21     1     1     2   511   512 -1.081748484E+01 -6.220373177E+00  4.198540658E+01  4.380051811E+01  6.743495762E-07  0.00000E+00  9.000E+00
       2     1     1     2   512     0 -1.113852952E+00  1.238265897E+01  4.455520267E+01  4.625846837E+01  3.300000131E-01  0.00000E+00  9.000E+00
</event>
<event>
      5  10001  2.40292E+09  5.87940E+00 -1.00000E+00  2.26771E-01
      21    -1     0     0   515   511  0.000000000E+00  0.000000000E+00  2.883461470E+01  2.883461470E+01  0.000000000E+00  0.00000E+00  9.000E+00
      21    -1     0     0   517   516  0.000000000E+00  0.000000000E+00 -1.032245760E+01  1.032245760E+01  0.000000000E+00  0.00000E+00  9.000E+00
      21     1     1     2   515   516  4.313041523E+00  1.276428911E+01 -2.023622310E+00  1.362440644E+01  1.429269172E-07  0.00000E+00  9.000E+00
      21     1     1     2   513   511  7.018304231E-01 -8.130252691E+00  1.313154734E+01  1.546063098E+01  1.685873940E-07  0.00000E+00  9.000E+00
      21     1     1     2   517   513 -5.014871946E+00 -4.634036419E+00  7.404232067E+00  1.007203488E+01  1.884864366E-07  0.00000E+00  9.000E+00
</event>
<event>
      5  10001  2.40292E+09  6.40948E+00 -1.00000E+00  2.21034E-01
      21    -1     0     0   512   513  0.000000000E+00  0.000000000E+00  4.701403243E+00  4.701403243E+00  0.000000000E+00  0.00000E+00  9.000E+00
      21    -1     0     0   514   512  0.000000000E+00  0.000000000E+00 -3.375266194E+02  3.375266194E+02  0.000000000E+00  0.00000E+00  9.000E+00
      21     1     1     2   514   517  1.307532498E+01 -1.181510539E-04 -3.245679714E+02  3.248312364E+02  3.814697266E-06  0.00000E+00  9.000E+00
      21     1     1     2   511   513 -8.055367992E+00  3.887511297E+00 -4.403272115E+00  9.969478567E+00  2.858538343E-07  0.00000E+00  9.000E+00
      21     1     1     2   517   511 -5.019956992E+00 -3.887393146E+00 -3.853972700E+00  7.427307672E+00  3.885747436E-07  0.00000E+00  9.000E+00
</event>
<event>
      5  10001  2.40292E+09  8.37094E+00 -1.00000E+00  2.05065E-01
      21    -1     0     0   515   511  0.000000000E+00  0.000000000E+00  7.889202582E+00  7.889202582E+00  0.000000000E+00  0.00000E+00  9.000E+00
      21    -1     0     0   514   516  0.000000000E+00  0.000000000E+00 -3.393099761E+01  3.393099761E+01  0.000000000E+00  0.00000E+00  9.000E+00
      21     1     1     2   515   516 -9.030106327E+00  5.088403514E+00 -2.812334836E+01  2.997261072E+01  4.768371582E-07  0.00000E+00  9.000E+00
      21     1     1     2   514   512  4.291774989E-01 -1.869329746E+00  1.844446976E+00  2.660934361E+00  9.424321831E-08  0.00000E+00  9.000E+00
      21     1     1     2   512   511  8.600928828E+00 -3.219073768E+00  2.371063571E-01  9.186655107E+00  1.438946122E-07  0.00000E+00  9.000E+00
</event>
<event>
      5  10001  2.40292E+09  4.70464E+00 -1.00000E+00  2.47806E-01
      21    -1     0     0   513   514  0.000000000E+00  0.000000000E+00  2.698894803E+01  2.698894803E+01  0.000000000E+00  0.00000E+00  9.000E+00
      21    -1     0     0   511   513  0.000000000E+00  0.000000000E+00 -2.006060477E+01  2.006060477E+01  0.000000000E+00  0.00000E+00  9.000E+00
      21     1     1     2   511   517  2.137550766E+00 -1.697994198E+01 -1.215170456E+01  2.098931815E+01  3.769728732E-07  0.00000E+00  9.000E+00
      21     1     1     2   517   515  1.271194968E+00  8.757693529E+00  9.599718261E+00  1.305632886E+01  1.685873940E-07  0.00000E+00  9.000E+00
      21     1     1     2   515   514 -3.408745734E+00  8.222248447E+00  9.480329564E+00  1.300390578E+01  2.665600750E-07  0.00000E+00  9.000E+00
</event>
<event>
      5  10001  2.40292E+09  5.84062E+00 -1.00000E+00  2.27223E-01
      21    -1     0     0   511   514  0.000000000E+00  0.000000000E+00  4.906798506E+01  4.906798506E+01  0.000000000E+00  0.00000E+00  9.000E+00
       2    -1     0     0   515     0  0.000000000E+00  0.000000000E+00 -8.566314415E+01  8.566314415E+01  0.000000000E+00  0.00000E+00  9.000E+00
      21     1     1     2   515   514 -8.877801533E+00  9.482033852E+00  1.259790354E+01  1.809506838E+01  8.596304120E-07  0.00000E+00  9.000E+00
       2     1     1     2   512     0  8.770624901E+00 -3.642434149E+00 -8.238649041E+01  8.293270700E+01  3.300000131E-01  0.00000E+00  9.000E+00
      21     1     1     2   511   512  1.071766314E-01 -5.839599703E+00  3.319342778E+01  3.370335383E+01  4.768371582E-07  0.00000E+00  9.000E+00
</event>
<event>
      5  10001  2.40292E+09  1.20784E+01 -1.00000E+00  1.86678E-01
      -2    -1     0     0     0   514  0.000000000E+00  0.000000000E+00  3.281888178E+01  3.281888178E+01  0.000000000E+00  0.00000E+00  9.000E+00
       1    -1     0     0   514     0  0.000000000E+00  0.000000000E+00 -5.814242354E+01  5.814242354E+01  0.000000000E+00  0.00000E+00  9.000E+00
      21     1     1     2   512   513 -1.380358007E+01  4.755757964E-01 -3.174757154E+00  1.417194687E+01  3.500980176E-07  0.00000E+00  9.000E+00
       1     1     1     2   513     0  9.604284293E+00 -1.180005098E+01 -4.686716696E+01  4.927599536E+01  3.300000131E-01  0.00000E+00  9.000E+00
      -2     1     1     2     0   512  4.199295776E+00  1.132447518E+01  2.471838234E+01  2.751336310E+01  3.300000131E-01  0.00000E+00  9.000E+00
</event>
<event>
      5  10001  2.40292E+09  4.34824E+00 -1.00000E+00  2.55109E-01
      21    -1     0     0   511   513  0.000000000E+00  0.000000000E+00  1.023496249E+01  1.023496249E+01  0.000000000E+00  0.00000E+00  9.000E+00
      21    -1     0     0   514   511  0.000000000E+00  0.000000000E+00 -3.084219002E+02  3.084219002E+02  0.000000000E+00  0.00000E+00  9.000E+00
      21     1     1     2   514   512 -8.450338696E+00  6.955846032E+00 -3.037917129E+02  3.039888104E+02  3.814697266E-06  0.00000E+00  9.000E+00
      21     1     1     2   515   513  3.886069625E+00 -3.525118500E+00  7.040490755E+00  8.780461698E+00  4.380028980E-07  0.00000E+00  9.000E+00
      21     1     1     2   512   515  4.564269072E+00 -3.430727532E+00 -1.435715542E+00  5.887590566E+00  2.149076030E-07  0.00000E+00  9.000E+00
</event>
<event>
      5  10001 -2.40292E+09  8.38038E+00 -1.00000E+00  2.05003E-01
      21    -1     0     0   516   513  0.000000000E+00  0.000000000E+00  8.623854861E+00  8.623854861E+00  0.000000000E+00  0.00000E+00  9.000E+00
      21    -1     0     0   517   516  0.000000000E+00  0.000000000E+00 -8.401865933E+02  8.401865933E+02  0.000000000E+00  0.00000E+00  9.000E+00
      21     1     1     2   515   513  5.189964936E+00 -9.313179042E+00  5.183919454E+00  1.185512804E+01  5.685920724E-07  0.00000E+00  9.000E+00
      21     1     1     2   517   511  2.348335225E+00  7.591442349E+00 -6.500967665E+02  6.501453303E+02  1.078959322E-05  0.00000E+00  9.000E+00
      21     1     1     2   511   515 -7.538300161E+00  1.721736692E+00 -1.866498914E+02  1.868099898E+02  2.697398305E-06  0.00000E+00  9.000E+00
</event>
<event>
      5  10001  2.40292E+09  4.21259E+00 -1.00000E+00  2.58178E-01
      21    -1     0     0   511   512  0.000000000E+00  0.000000000E+00  2.227424556E+00  2.227424556E+00  0.000000000E+00  0.00000E+00  9.000E+00
      21    -1     0     0   512   514  0.000000000E+00  0.000000000E+00 -2.342543121E+02  2.342543121E+02  0.000000000E+00  0.00000E+00  9.000E+00
      21     1     1     2   513   514 -8.648166976E+00  9.802936852E+00 -1.961383680E+02  1.965735175E+02  2.697398305E-06  0.00000E+00  9.000E+00
       3     1     1     2   511     0  5.963836470E+00 -9.970049125E+00 -1.571163917E+01  1.954673452E+01  5.000000000E-01  0.00000E+00  9.000E+00
      -3     1     1     2     0   513  2.684330505E+00  1.671122730E-01 -2.017688031E+01  2.036148462E+01  5.000000000E-01  0.00000E+00  9.000E+00
</event>
<event>
      5  10001  2.40292E+09  6.74495E+00 -1.00000E+00  2.17784E-01
      21    -1     0     0   515   512  0.000000000E+00  0.000000000E+00  3.414061817E+00  3.414061817E+00  0.000000000E+00  0.00000E+00  9.000E+00
       2    -1     0     0   511     0  0.000000000E+00  0.000000000E+00 -1.580358672E+02  1.580358672E+02  0.000000000E+00  0.00000E+00  9.000E+00
      21     1     1     2   511   514 -3.962889348E+00  2.812292596E-01 -5.297486994E+00  6.621702979E+00  5.960464478E-08  0.00000E+00  9.000E+00
       2     1     1     2   515     0  1.208068505E+01 -3.801975051E+00 -1.438849808E+02  1.444416649E+02  3.300000131E-01  0.00000E+00  9.000E+00
      21     1     1     2   514   512 -8.117795705E+00  3.520745792E+00 -5.439337550E+00  1.038656108E+01  5.230286352E-07  0.00000E+00  9.000E+00
</event>
<event>
      5  10001  2.40292E+09  5.11970E+00 -1.00000E+00  2.36648E-01
      21    -1     0     0   513   514  0.000000000E+00  0.000000000E+00  3.184656929E+00  3.184656929E+00  0.000000000E+00  0.00000E+00  9.000E+00
      21    -1     0     0   511   512  0.000000000E+00  0.000000000E+00 -1.027100059E+03  1.027100059E+03  0.000000000E+00  0.00000E+00  9.000E+00
      21     1     1     2   513   512 -1.852098349E+01 -2.746129869E+00 -2.583359897E+01  3.190521735E+01  2.132480600E-06  0.00000E+00  9.000E+00
      21     1     1     2   515   514  1.432293761E+01  5.506334211E+00 -9.240533667E+02  9.241807674E+02  1.078959322E-05  0.00000E+00  9.000E+00
      21     1     1     2   511   515  4.198045885E+00 -2.760204342E+00 -7.402843668E+01  7.419873149E+01  9.536743164E-07  0.00000E+00  9.000E+00
</event>
<event>
      5  10001  2.40292E+09  4.96729E+00 -1.00000E+00  2.43020E-01
      21    -1     0     0   516   513  0.000000000E+00  0.000000000E+00  2.389154336E+02  2.389154336E+02  0.000000000E+00  0.00000E+00  9.000E+00
      21    -1     0     0   511   517  0.000000000E+00  0.000000000E+00 -2.769442805E+00  2.769442805E+00  0.000000000E+00  0.00000E+00  9.000E+00
      21     1     1     2   516   517  7.933830466E+00  8.306773945E+00  9.722682995E+01  9.790303683E+01  2.336015456E-06  0.00000E+00  9.000E+00
      21     1     1     2   511   512 -3.053230428E+00 -9.230723264E+00  7.526690856E+00  1.229550907E+01  4.693274423E-07  0.00000E+00  9.000E+00
      21     1     1     2   512   513 -4.880600039E+00  9.239493190E-01  1.313924700E+02  1.314863305E+02  1.907348633E-06  0.00000E+00  9.000E+00
</event>
<event>
      5  10001  2.40292E+09  6.41701E+00 -1.00000E+00  2.20958E-01
      21    -1     0     0   514   511  0.000000000E+00  0.000000000E+00  3.804676406E+01  3.804676406E+01  0.000000000E+00  0.00000E+00  9.000E+00
      21    -1     0     0   515   516  0.000000000E+00  0.000000000E+00 -2.069752790E+01  2.069752790E+01  0.000000000E+00  0.00000E+00  9.000E+00
      21     1     1     2   514   513 -6.152445938E+00  7.645973469E+00  3.172162141E+01  3.320504128E+01  7.539457465E-07  0.00000E+00  9.000E+00
      21     1     1     2   515   511  1.157210254E+01 -4.210075863E+00 -1.462307936E+01  1.911734150E+01  2.384185791E-07  0.00000E+00  9.000E+00
      21     1     1     2   513   516 -5.419656598E+00 -3.435897605E+00  2.506941101E-01  6.421909181E+00  1.130550422E-07  0.00000E+00  9.000E+00
</event>
<event>
      5  10001  2.40292E+09  3.87164E+00 -1.00000E+00  2.66742E-01
       1    -1     0     0   514     0  0.000000000E+00  0.000000000E+00  4.916818715E+01  4.916818715E+01  0.000000000E+00  0.00000E+00  9.000E+00
      21    -1     0     0   513   514  0.000000000E+00  0.000000000E+00 -8.586610295E+00  8.586610295E+00  0.000000000E+00  0.00000E+00  9.000E+00
      21     1     1     2   513   511  6.591550662E+00 -8.947707952E+00 -7.872976416E-01  1.114135788E+01  5.179091453E-07  0.00000E+00  9.000E+00
       1     1     1     2   512     0 -9.187604481E+00  7.731333888E+00  4.199478710E+01  4.367901835E+01  3.300000131E-01  0.00000E+00  9.000E+00
      21     1     1     2   511   512  2.596053819E+00  1.216374064E+00 -6.259126114E-01  2.934421219E+00  9.685754776E-08  0.00000E+00  9.000E+00
</event>
<event>
      5  10001  2.40292E+09  4.39889E+00 -1.00000E+00  2.54007E-01
       1    -1     0     0   512     0  0.000000000E+00  0.000000000E+00  6.178954556E+00  6.178954556E+00  0.000000000E+00  0.00000E+00  9.000E+00
      21    -1     0     0   511   512  0.000000000E+00  0.000000000E+00 -1.423875549E+02  1.423875549E+02  0.000000000E+00  0.00000E+00  9.000E+00
      21     1     1     2   511   513 -1.305971647E+01  4.216248161E+00 -1.267357453E+02  1.274765943E+02  1.348699152E-06  0.00000E+00  9.000E+00
       1     1     1     2   515     0  1.031681808E+01 -4.140872099E+00  1.096883414E-01  1.112225195E+01  3.300000131E-01  0.00000E+00  9.000E+00
      21     1     1     2   513   515  2.742898396E+00 -7.537606189E-02 -9.582543389E+00  9.967663265E+00  1.192092896E-07  0.00000E+00  9.000E+00
</event>
<event>
      5  10001 -2.40292E+09  9.32118E+00 -1.00000E+00  1.99293E-01
      21    -1     0     0   514   513  0.000000000E+00  0.000000000E+00  8.824908748E+02  8.824908748E+02  0.000000000E+00  0.00000E+00  9.000E+00
      21    -1     0     0   511   516  0.000000000E+00  0.000000000E+00 -4.218712523E+01  4.218712523E+01  0.000000000E+00  0.00000E+00  9.000E+00
      21     1     1     2   514   516  3.911606353E+00 -1.429937587E+01 -4.077956310E+01  4.339061628E+01  2.023048729E-06  0.00000E+00  9.000E+00
      21     1     1     2   512   513 -7.869358838E+00  1.062609426E+01  5.431076540E+02  5.432685934E+02  1.078959322E-05  0.00000E+00  9.000E+00
      21     1     1     2   511   512  3.957752486E+00  3.673281613E+00  3.379756586E+02  3.380187903E+02  3.814697266E-06  0.00000E+00  9.000E+00
</event>
<event>
      5  10001  2.40292E+09  8.24900E+00 -1.00000E+00  2.05880E-01
      21    -1     0     0   515   511  0.000000000E+00  0.000000000E+00  4.830181655E+01  4.830181655E+01  0.000000000E+00  0.00000E+00  9.000E+00
      -4    -1     0     0     0   515  0.000000000E+00  0.000000000E+00 -7.218752829E+00  7.218752829E+00  0.000000000E+00  0.00000E+00  9.000E+00
      -4     1     1     2     0   513  5.653954783E+00  8.562339288E+00 -1.980436475E+00  1.055712970E+01  1.500000000E+00  0.00000E+00  9.000E+00
      21     1     1     2   513   514 -5.141887937E+00 -1.091616140E+00  2.162823993E+01  2.225783906E+01  4.129530925E-07  0.00000E+00  9.000E+00
      21     1     1     2   514   511 -5.120668468E-01 -7.470723148E+00  2.143526027E+01  2.270560062E+01  2.384185791E-07  0.00000E+00  9.000E+00
</event>
<event>
      5  10001  2.40292E+09  2.20858E+01 -1.00000E+00  1.62851E-01
      -2    -1     0     0     0   511  0.000000000E+00  0.000000000E+00  4.944409558E+01  4.944409558E+01  0.000000000E+00  0.00000E+00  9.000E+00
      21    -1     0     0   512   514  0.000000000E+00  0.000000000E+00 -3.808469621E+00  3.808469621E+00  0.000000000E+00  0.00000E+00  9.000E+00
      -2     1     1     2     0   513 -3.417857680E+00 -7.020686115E-01  4.049143327E+01  4.064283110E+01  3.300000131E-01  0.00000E+00  9.000E+00
      21     1     1     2   512   511  3.437085611E+00 -3.091475158E+00  6.998281613E+00  8.387295254E+00  1.192092896E-07  0.00000E+00  9.000E+00
      21     1     1     2   513   514 -1.922793138E-02  3.793543770E+00 -1.854088927E+00  4.222438844E+00  2.308477966E-07  0.00000E+00  9.000E+00
</event>
<event>
      5  10001  2.40292E+09  4.52581E+00 -1.00000E+00  2.51343E-01
      21    -1     0     0   515   512  0.000000000E+00  0.000000000E+00  7.296634163E+01  7.296634163E+01  0.000000000E+00  0.00000E+00  9.000E+00
      21    -1     0     0   513   516  0.000000000E+00  0.000000000E+00 -2.469183892E+00  2.469183892E+00  0.000000000E+00  0.00000E+00  9.000E+00
      21     1     1     2   515   516 -1.476120495E+00  8.942690265E+00  9.308076210E+00  1.299195611E+01  2.920019320E-07  0.00000E+00  9.000E+00
      21     1     1     2   513   511  1.099540450E+00 -1.031785316E+01  4.450166175E+01  4.569534967E+01  0.000000000E+00  0.00000E+00  9.000E+00
      21     1     1     2   511   512  3.765800451E-01  1.375162898E+00  1.668741979E+01  1.674821975E+01  2.384185791E-07  0.00000E+00  9.000E+00
</event>
<event>
      5  10001  2.40292E+09  4.17611E+00 -1.00000E+00  2.59033E-01
       4    -1     0     0   513     0  0.000000000E+00  0.000000000E+00  3.297154251E+02  3.297154251E+02  0.000000000E+00  0.00000E+00  9.000E+00
       4    -1     0     0   511     0  0.000000000E+00  0.000000000E+00 -1.172140851E+01  1.172140851E+01  0.000000000E+00  0.00000E+00  9.000E+00
      21     1     1     2   513   514  6.113408692E+00 -1.385947332E+01  5.514307274E+01  5.718581325E+01  3.162979880E-06  0.00000E+00  9.000E+00
       4     1     1     2   511     0 -9.935847650E+00  1.218103077E+01  2.728529167E+02  2.733094633E+02  1.500000000E+00  0.00000E+00  9.000E+00
       4     1     1     2   514     0  3.822438958E+00  1.678442553E+00 -1.000197287E+01  1.094155703E+01  1.500000000E+00  0.00000E+00  9.000E+00
</event>
<event>
      5  10001  2.40292E+09  9.21975E+00 -1.00000E+00  1.99865E-01
      21    -1     0     0   513   511  0.000000000E+00  0.000000000E+00  3.304976598E+01  3.304976598E+01  0.000000000E+00  0.00000E+00  9.000E+00
      -2    -1     0     0     0   512  0.000000000E+00  0.000000000E+00 -2.079262035E+02  2.079262035E+02  0.000000000E+00  0.00000E+00  9.000E+00
      -2     1     1     2     0   511  2.041826662E+01 -2.879290682E+01 -9.491900287E+01  1.012702479E+02  3.300000131E-01  0.00000E+00  9.000E+00
      21     1     1     2   515   512 -1.307788673E+01  2.321424534E+01 -1.074521616E+02  1.107063654E+02  1.348699152E-06  0.00000E+00  9.000E+00
      21     1     1     2   513   515 -7.340379893E+00  5.578661484E+00  2.749472704E+01  2.899935613E+01  0.000000000E+00  0.00000E+00  9.000E+00
</event>
<event>
      5  10001  2.40292E+09  6.89743E+00 -1.00000E+00  2.16392E-01
      21    -1     0     0   514   512  0.000000000E+00  0.000000000E+00  2.916042281E+00  2.916042281E+00  0.000000000E+00  0.00000E+00  9.000E+00
      21    -1     0     0   516   514  0.000000000E+00  0.000000000E+00 -1.931825363E+02  1.931825363E+02  0.000000000E+00  0.00000E+00  9.000E+00
      21     1     1     2   515   512 -1.259608241E+01  1.448183864E+00 -1.366273419E+01  1.863944297E+01  3.371747881E-07  0.00000E+00  9.000E+00
      21     1     1     2   511   515  7.506881304E+00 -4.847176691E+00 -1.445782884E+02  1.448541675E+02  1.907348633E-06  0.00000E+00  9.000E+00
      21     1     1     2   516   511  5.089201108E+00  3.398992828E+00 -3.202547143E+01  3.260496803E+01  6.743495762E-07  0.00000E+00  9.000E+00
</event>
<event>
      5  10001  2.40292E+09  6.36126E+00 -1.00000E+00  2.21524E-01
      21    -1     0     0   513   511  0.000000000E+00  0.000000000E+00  4.460788277E+01  4.460788277E+01  0.000000000E+00  0.00000E+00  9.000E+00
      21    -1     0     0   512   517  0.000000000E+00  0.000000000E+00 -2.701619376E+00  2.701619376E+00  0.000000000E+00  0.00000E+00  9.000E+00
      21     1     1     2   513   517 -1.452254427E+00  9.947993817E+00  1.683125231E+01  1.960516968E+01  2.384185791E-07  0.00000E+00  9.000E+00
      21     1     1     2   514   511  3.013226459E+00 -4.626241532E+00  7.765765195E+00  9.528313254E+00  1.460009660E-07  0.00000E+00  9.000E+00
      21     1     1     2   512   514 -1.560972032E+00 -5.321752285E+00  1.730924589E+01  1.817601922E+01  3.371747881E-07  0.00000E+00  9.000E+00
</event>
<event>
      5  10001  2.40292E+09  4.43236E+00 -1.00000E+00  2.53291E-01
      21    -1     0     0   515   514  0.000000000E+00  0.000000000E+00  3.454633328E+01  3.454633328E+01  0.000000000E+00  0.00000E+00  9.000E+00
      21    -1     0     0   512   515  0.000000000E+00  0.000000000E+00 -2.159543451E+01  2.159543451E+01  0.000000000E+00  0.00000E+00  9.000E+00
      21     1     1     2   512   516 -7.927355074E+00 -1.450764974E+01 -1.559331894E+01  2.272589833E+01  2.384185791E-07  0.00000E+00  9.000E+00
      21     1     1     2   516   511  2.583189760E+00  7.879675954E+00  1.833042637E+01  2.011881442E+01  3.371747881E-07  0.00000E+00  9.000E+00
      21     1     1     2   511   514  5.344165314E+00  6.627973789E+00  1.021379134E+01  1.329705505E+01  2.064765462E-07  0.00000E+00  9.000E+00
</event>
<event>
      5  10001  2.40292E+09  1.05356E+01 -1.00000E+00  1.93117E-01
      21    -1     0     0   513   511  0.000000000E+00  0.000000000E+00  5.924687404E+01  5.924687404E+01  0.000000000E+00  0.00000E+00  9.000E+00
      21    -1     0     0   514   513  0.000000000E+00  0.000000000E+00 -3.173935461E+00  3.173935461E+00  0.000000000E+00  0.00000E+00  9.000E+00
      21     1     1     2   517   511 -1.256533290E+01  3.652591511E-01  3.218165825E+01  3.454967630E+01  4.768371582E-07  0.00000E+00  9.000E+00
      21     1     1     2   514   512  3.068697742E+00  2.974101216E+00  6.588765428E+00  7.853280445E+00  1.460009660E-07  0.00000E+00  9.000E+00
      21     1     1     2   512   517  9.496635154E+00 -3.339360367E+00  1.730251490E+01  2.001785275E+01  2.384185791E-07  0.00000E+00  9.000E+00
</event>
<event>
      5  10001  2.40292E+09  7.76825E+00 -1.00000E+00  2.09287E-01
      21    -1     0     0   515   516  0.000000000E+00  0.000000000E+00  1.750614743E+01  1.750614743E+01  0.000000000E+00  0.00000E+00  9.000E+00
      -2    -1     0     0     0   515  0.000000000E+00  0.000000000E+00 -3.590174361E+01  3.590174361E+01  0.000000000E+00  0.00000E+00  9.000E+00
      -2     1     1     2     0   511  8.665072354E+00  1.205486772E+00 -2.989508071E+01  3.115062484E+01  3.300000131E-01  0.00000E+00  9.000E+00
      21     1     1     2   512   516 -9.823218336E+00 -6.316410912E+00  1.229402192E+01  1.695687590E+01  2.920019320E-07  0.00000E+00  9.000E+00
      21     1     1     2   511   512  1.158145982E+00  5.110924139E+00 -7.945373978E-01  5.300390302E+00  7.375698489E-08  0.00000E+00  9.000E+00
</event>
<event>
      5  10001  2.40292E+09  2.52012E+00 -1.00000E+00  3.21739E-01
      21    -1     0     0   513   515  0.000000000E+00  0.000000000E+00  1.216833854E+01  1.216833854E+01  0.000000000E+00  0.00000E+00  9.000E+00
      21    -1     0     0   511   514  0.000000000E+00  0.000000000E+00 -6.264527308E+01  6.264527308E+01  0.000000000E+00  0.00000E+00  9.000E+00
      21     1     1     2   513   514  1.006916986E+01  3.709243445E+00 -2.632136424E+01  2.842465275E+01  4.768371582E-07  0.00000E+00  9.000E+00
      21     1     1     2   511   512 -1.251085556E+01 -3.085395146E+00 -3.393023175E+01  3.629465245E+01  4.768371582E-07  0.00000E+00  9.000E+00
      21     1     1     2   512   515  2.441685696E+00 -6.238482995E-01  9.774661449E+00  1.009430642E+01  3.153981341E-07  0.00000E+00  9.000E+00
</event>
<event>
      5  10001  2.40292E+09  4.43233E+00 -1.00000E+00  2.53292E-01
      21    -1     0     0   516   512  0.000000000E+00  0.000000000E+00  3.064719693E+02  3.064719693E+02  0.000000000E+00  0.00000E+00  9.000E+00
      21    -1     0     0   515   516  0.000000000E+00  0.000000000E+00 -9.514487702E-01  9.514487702E-01  0.000000000E+00  0.00000E+00  9.000E+00
      21     1     1     2   511   512 -6.157335250E+00  7.632855059E+00  2.448928120E+02  2.450890912E+02  3.814697266E-06  0.00000E+00  9.000E+00
      21     1     1     2   513   511  8.607343902E+00 -8.142041760E+00  4.643670922E+01  4.792439021E+01  9.536743164E-07  0.00000E+00  9.000E+00
      21     1     1     2   515   513 -2.450008653E+00  5.091867013E-01  1.419099930E+01  1.440993666E+01  3.769728732E-07  0.00000E+00  9.000E+00
</event>
<event>
      5  10001  2.40292E+09  7.24605E+00 -1.00000E+00  2.13385E-01
      21    -1     0     0   514   511  0.000000000E+00  0.000000000E+00  5.189924023E+00  5.189924023E+00  0.000000000E+00  0.00000E+00  9.000E+00
      21    -1     0     0   512   514  0.000000000E+00  0.000000000E+00 -3.112111494E+02  3.112111494E+02  0.000000000E+00  0.00000E+00  9.000E+00
      21     1     1     2   513   511 -1.135306239E+01 -2.294600040E+00 -2.203582587E+00  1.179037706E+01  1.058716754E-06  0.00000E+00  9.000E+00
      21     1     1     2   515   513  6.913090976E+00  8.021019381E+00 -2.585526552E+02  2.587694014E+02  0.000000000E+00  0.00000E+00  9.000E+00
      21     1     1     2   512   515  4.439971411E+00 -5.726419341E+00 -4.526498759E+01  4.584129499E+01  6.743495762E-07  0.00000E+00  9.000E+00
</event>
<event>
      5  10001  2.40292E+09  2.28688E+01 -1.00000E+00  1.61666E-01
      21    -1     0     0   512   515  0.000000000E+00  0.000000000E+00  1.785637540E+01  1.785637540E+01  0.000000000E+00  0.00000E+00  9.000E+00
       1    -1     0     0   511     0  0.000000000E+00  0.000000000E+00 -2.304480704E+01  2.304480704E+01  0.000000000E+00  0.00000E+00  9.000E+00
      21     1     1     2   511   513 -4.526129536E+00  6.871036232E-01  6.531450293E+00  7.976076911E+00  2.230201594E-07  0.00000E+00  9.000E+00
       1     1     1     2   512     0 -8.239789679E+00  5.184022291E+00 -1.556109443E+01  1.835823469E+01  3.300000131E-01  0.00000E+00  9.000E+00
      21     1     1     2   513   515  1.276591922E+01 -5.871125914E+00  3.841212493E+00  1.456687085E+01  4.460403188E-07  0.00000E+00  9.000E+00
</event>
<event>
      5  10001  2.40292E+09  1.80528E+01 -1.00000E+00  1.70081E-01
      21    -1     0     0   514   513  0.000000000E+00  0.000000000E+00  1.407982682E+02  1.407982682E+02  0.000000000E+00  0.00000E+00  9.000E+00
      21    -1     0     0   511   515  0.000000000E+00  0.000000000E+00 -4.904336891E+00  4.904336891E+00  0.000000000E+00  0.00000E+00  9.000E+00
      21     1     1     2   514   515 -5.777762613E+00  7.745408482E+00  1.022684809E+02  1.027239800E+02  1.348699152E-06  0.00000E+00  9.000E+00
      21     1     1     2   512   513  1.551752556E+01 -6.467137804E+00  1.911601963E+01  2.545662345E+01  5.840038640E-07  0.00000E+00  9.000E+00
      21     1     1     2   511   512 -9.739762948E+00 -1.278270678E+00  1.450943081E+01  1.752200162E+01  3.769728732E-07  0.00000E+00  9.000E+00
</event>
<event>
      5  10001  2.40292E+09  8.21201E+00 -1.00000E+00  2.06131E-01
      21    -1     0     0   513   512  0.000000000E+00  0.000000000E+00  2.188302257E+02  2.188302257E+02  0.000000000E+00  0.00000E+00  9.000E+00
      21    -1     0     0   511   516  0.000000000E+00  0.000000000E+00 -2.435854350E+02  2.435854350E+02  0.000000000E+00  0.00000E+00  9.000E+00
      21     1     1     2   511   517 -1.568457126E+01 -1.049787435E+01 -2.341077374E+02  2.348672899E+02  3.814697266E-06  0.00000E+00  9.000E+00
      21     1     1     2   517   512  1.732505991E+01  2.451392849E+00 -5.296071933E-01  1.750564228E+01  1.037451546E-06  0.00000E+00  9.000E+00
      21     1     1     2   513   516 -1.640488646E+00  8.046481500E+00  2.098821353E+02  2.100427285E+02  0.000000000E+00  0.00000E+00  9.000E+00
</event>
<event>
      5  10001  2.40292E+09  4.46709E+00 -1.00000E+00  2.52559E-01
      21    -1     0     0   514   516  0.000000000E+00  0.000000000E+00  2.611304382E+01  2.611304382E+01  0.000000000E+00  0.00000E+00  9.000E+00
      21    -1     0     0   511   512  0.000000000E+00  0.000000000E+00 -7.467753721E+01  7.467753721E+01  0.000000000E+00  0.00000E+00  9.000E+00
      21     1     1     2   514   515  4.069831538E+00  8.421651408E+00  2.413077286E+01  2.588014567E+01  9.536743164E-07  0.00000E+00  9.000E+00
      21     1     1     2   511   516 -7.497702894E+00 -1.128602187E+01 -5.177901273E+01  5.352248124E+01  0.000000000E+00  0.00000E+00  9.000E+00
      21     1     1     2   515   512  3.427871355E+00  2.864370465E+00 -2.091625352E+01  2.138795412E+01  3.371747881E-07  0.00000E+00  9.000E+00
</event>
<event>
      5  10001  2.40292E+09  1.36332E+01 -1.00000E+00  1.81334E-01
      21    -1     0     0   513   512  0.000000000E+00  0.000000000E+00  1.921293778E+01  1.921293778E+01  0.000000000E+00  0.00000E+00  9.000E+00
      21    -1     0     0   517   513  0.000000000E+00  0.000000000E+00 -5.724169840E+01  5.724169840E+01  0.000000000E+00  0.00000E+00  9.000E+00
      21     1     1     2   511   512 -8.806214722E+00 -6.235477969E+00  1.492861327E+01  1.841993750E+01  2.920019320E-07  0.00000E+00  9.000E+00
      21     1     1     2   514   511  1.030875283E+01  1.312334316E+01 -3.748596303E+01  4.103279109E+01  8.259061849E-07  0.00000E+00  9.000E+00
      21     1     1     2   517   514 -1.502538105E+00 -6.887865193E+00 -1.547141086E+01  1.700190759E+01  1.685873940E-07  0.00000E+00  9.000E+00
</event>
<event>
      5  10001  2.40292E+09  4.07757E+00 -1.00000E+00  2.61413E-01
      21    -1     0     0   511   514  0.000000000E+00  0.000000000E+00  2.870954577E+01  2.870954577E+01  0.000000000E+00  0.00000E+00  9.000E+00
      21    -1     0     0   512   515  0.000000000E+00  0.000000000E+00 -1.797361874E+02  1.797361874E+02  0.000000000E+00  0.00000E+00  9.000E+00
      -2     1     1     2     0   514  1.818904185E+01  1.875697660E+01 -2.368991681E+01  3.527019241E+01  3.300000131E-01  0.00000E+00  9.000E+00
      21     1     1     2   511   515 -1.879801085E+01 -1.472522196E+01  1.666287670E+01  2.911784390E+01  0.000000000E+00  0.00000E+00  9.000E+00
       2     1     1     2   512     0  6.089690024E-01 -4.031754639E+00 -1.439996015E+02  1.440576968E+02  3.300000131E-01  0.00000E+00  9.000E+00
</event>
<event>
      5  10001  2.40292E+09  8.33758E+00 -1.00000E+00  2.05286E-01
      21    -1     0     0   512   515  0.000000000E+00  0.000000000E+00  1.547820850E+02  1.547820850E+02  0.000000000E+00  0.00000E+00  9.000E+00
      -5    -1     0     0     0   513  0.000000000E+00  0.000000000E+00 -2.695508960E+00  2.695508960E+00  0.000000000E+00  0.00000E+00  9.000E+00
      -5     1     1     2     0   515  1.016144810E+01 -7.462280409E+00  1.300388705E+02  1.307367145E+02  4.800000191E+00  0.00000E+00  9.000E+00
      21     1     1     2   511   513 -5.674010642E+00  7.363698324E+00  1.944367368E+01  2.155167965E+01  5.331201500E-07  0.00000E+00  9.000E+00
      21     1     1     2   512   511 -4.487437454E+00  9.858208441E-02  2.604031835E+00  5.189199854E+00  3.168030325E-07  0.00000E+00  9.000E+00
</event>
<event>
      5  10001  2.40292E+09  5.37117E+00 -1.00000E+00  2.33124E-01
      21    -1     0     0   511   515  0.000000000E+00  0.000000000E+00  8.759474661E+00  8.759474661E+00  0.000000000E+00  0.00000E+00  9.000E+00
       2    -1     0     0   515     0  0.000000000E+00  0.000000000E+00 -1.361710465E+02  1.361710465E+02  0.000000000E+00  0.00000E+00  9.000E+00
      21     1     1     2   511   514 -2.147309697E+01 -1.969574306E+01 -2.508399545E+01  3.844766594E+01  7.539457465E-07  0.00000E+00  9.000E+00
      21     1     1     2   514   513  7.786500107E+00  9.322176559E+00 -3.748496892E+01  3.940374925E+01  8.259061849E-07  0.00000E+00  9.000E+00
       2     1     1     2   513     0  1.368659686E+01  1.037356650E+01 -6.484260751E+01  6.707910602E+01  3.300000131E-01  0.00000E+00  9.000E+00
</event>
<event>
      5  10001  2.40292E+09  1.46723E+01 -1.00000E+00  1.78244E-01
      21    -1     0     0   512   514  0.000000000E+00  0.000000000E+00  8.908998009E+00  8.908998009E+00  0.000000000E+00  0.00000E+00  9.000E+00
      21    -1     0     0   515   516  0.000000000E+00  0.000000000E+00 -1.027592038E+02  1.027592038E+02  0.000000000E+00  0.00000E+00  9.000E+00
      21     1     1     2   512   516  9.145767456E-01  1.841457313E+01 -3.435946965E+00  1.875469770E+01  4.339283639E-07  0.00000E+00  9.000E+00
      21     1     1     2   511   514 -4.424700070E+00 -3.653388872E+00 -3.465145700E+01  3.512333546E+01  0.000000000E+00  0.00000E+00  9.000E+00
      21     1     1     2   515   511  3.510123325E+00 -1.476118426E+01 -5.576280179E+01  5.779016863E+01  6.743495762E-07  0.00000E+00  9.000E+00
</event>
<event>
      5  10001  2.40292E+09  3.32117E+00 -1.00000E+00  2.83951E-01
       2    -1     0     0   515     0  0.000000000E+00  0.000000000E+00  4.616290618E+01  4.616290618E+01  0.000000000E+00  0.00000E+00  9.000E+00
      21    -1     0     0   513   511  0.000000000E+00  0.000000000E+00 -4.959660433E+01  4.959660433E+01  0.000000000E+00  0.00000E+00  9.000E+00
      21     1     1     2   515   511  1.088960558E+01 -7.022172589E+00 -4.735178130E+01  4.909262276E+01  0.000000000E+00  0.00000E+00  9.000E+00
       2     1     1     2   512     0 -1.096234088E+01  3.707143214E+00  3.938039554E+01  4.104680598E+01  3.300000131E-01  0.00000E+00  9.000E+00
      21     1     1     2   513   512  7.273530079E-02  3.315029376E+00  4.537687611E+00  5.620081765E+00  1.032382731E-07  0.00000E+00  9.000E+00
</event>
<event>
      5  10001  2.40292E+09  1.05439E+01 -1.00000E+00  1.93079E-01
      21    -1     0     0   514   511  0.000000000E+00  0.000000000E+00  6.835691173E+00  6.835691173E+00  0.000000000E+00  0.00000E+00  9.000E+00
       1    -1     0     0   513     0  0.000000000E+00  0.000000000E+00 -2.532749295E+02  2.532749295E+02  0.000000000E+00  0.00000E+00  9.000E+00
      21     1     1     2   514   516  1.062044960E+01  1.443955055E+01 -2.109572146E+01  2.768255829E+01  6.307962682E-07  0.00000E+00  9.000E+00
      21     1     1     2   513   511 -9.961068188E-01 -1.013361157E+01 -4.170178523E+00  1.100330410E+01  5.960464478E-08  0.00000E+00  9.000E+00
       1     1     1     2   516     0 -9.624342780E+00 -4.305938975E+00 -2.211733383E+02  2.214247582E+02  3.300000131E-01  0.00000E+00  9.000E+00
</event>
<event>
      5  10001  2.40292E+09  9.02052E+00 -1.00000E+00  2.01017E-01
      21    -1     0     0   512   511  0.000000000E+00  0.000000000E+00  6.419890935E+02  6.419890935E+02  0.000000000E+00  0.00000E+00  9.000E+00
      21    -1     0     0   516   515  0.000000000E+00  0.000000000E+00 -5.917662595E+00  5.917662595E+00  0.000000000E+00  0.00000E+00  9.000E+00
      21     1     1     2   512   515  1.142223500E+00  1.402754004E+01  3.473317849E+00  1.449622333E+01  1.397852826E-07  0.00000E+00  9.000E+00
      21     1     1     2   516   513  7.545619323E+00 -1.160037760E+01  1.305532905E+02  1.312846784E+02  1.907348633E-06  0.00000E+00  9.000E+00
      21     1     1     2   513   511 -8.687842822E+00 -2.427162437E+00  5.020448226E+02  5.021258544E+02  9.344061824E-06  0.00000E+00  9.000E+00
</event>
<event>
      5  10001  2.40292E+09  6.34852E+00 -1.00000E+00  2.21654E-01
      21    -1     0     0   514   513  0.000000000E+00  0.000000000E+00  1.026644055E+01  1.026644055E+01  0.000000000E+00  0.00000E+00  9.000E+00
      21    -1     0     0   511   514  0.000000000E+00  0.000000000E+00 -3.549407890E+01  3.549407890E+01  0.000000000E+00  0.00000E+00  9.000E+00
      21     1     1     2   516   513 -1.239425449E+00 -1.037126024E+01  6.130303184E+00  1.211114493E+01  1.192092896E-07  0.00000E+00  9.000E+00
      21     1     1     2   512   516  2.103618024E+00  7.403430937E+00 -1.362058547E+01  1.564469070E+01  2.920019320E-07  0.00000E+00  9.000E+00
      21     1     1     2   511   512 -8.641925751E-01  2.967829302E+00 -1.773735606E+01  1.800468382E+01  0.000000000E+00  0.00000E+00  9.000E+00
</event>
<event>
      5  10001  2.40292E+09  8.79983E+00 -1.00000E+00  2.02340E-01
      21    -1     0     0   515   512  0.000000000E+00  0.000000000E+00  1.480692520E+01  1.480692520E+01  0.000000000E+00  0.00000E+00  9.000E+00
      21    -1     0     0   511   515  0.000000000E+00  0.000000000E+00 -1.251866904E+01  1.251866904E+01  0.000000000E+00  0.00000E+00  9.000E+00
      21     1     1     2   511   517 -7.354711420E+00 -8.482727457E+00 -4.538899466E+00  1.210991550E+01  1.460009660E-07  0.00000E+00  9.000E+00
      21     1     1     2   517   513  3.736221412E+00  9.773515568E-01  5.586901565E+00  6.791762334E+00  1.032382731E-07  0.00000E+00  9.000E+00
      21     1     1     2   513   512  3.618490008E+00  7.505375900E+00  1.240254064E+00  8.423916398E+00  1.718485742E-07  0.00000E+00  9.000E+00
</event>
<event>
      5  10001  2.40292E+09  3.48277E+00 -1.00000E+00  2.78373E-01
      21    -1     0     0   514   516  0.000000000E+00  0.000000000E+00  5.543141613E-01  5.543141613E-01  0.000000000E+00  0.00000E+00  9.000E+00
      21    -1     0     0   512   514  0.000000000E+00  0.000000000E+00 -8.115032262E+02  8.115032262E+02  0.000000000E+00  0.00000E+00  9.000E+00
      21     1     1     2   512   511 -9.953005202E+00  1.921180144E+00 -4.974189517E+01  5.076425298E+01  2.939421655E-06  0.00000E+00  9.000E+00
      21     1     1     2   515   516  6.045559096E+00  6.524196393E-01 -5.544227166E+02  5.544560606E+02  1.078959322E-05  0.00000E+00  9.000E+00
      21     1     1     2   511   515  3.907446105E+00 -2.573599783E+00 -2.067843002E+02  2.068372268E+02  2.697398305E-06  0.00000E+00  9.000E+00
</event>
<event>
      5  10001  2.40292E+09  1.18014E+01 -1.00000E+00  1.87740E-01
       2    -1     0     0   511     0  0.000000000E+00  0.000000000E+00  1.951606076E+02  1.951606076E+02  0.000000000E+00  0.00000E+00  9.000E+00
      21    -1     0     0   513   514  0.000000000E+00  0.000000000E+00 -6.462000207E-01  6.462000207E-01  0.000000000E+00  0.00000E+00  9.000E+00
      21     1     1     2   511   514 -7.988110548E+00 -3.708560804E-01  8.474053550E+01  8.511701240E+01  0.000000000E+00  0.00000E+00  9.000E+00
       2     1     1     2   512     0  4.854876838E+00  2.804526443E+00  9.976983561E+01  9.992779491E+01  3.300000131E-01  0.00000E+00  9.000E+00
      21     1     1     2   513   512  3.133233709E+00 -2.433670362E+00  1.000403650E+01  1.076200033E+01  1.685873940E-07  0.00000E+00  9.000E+00
</event>
<event>
      5  10001  2.40292E+09  9.72425E+00 -1.00000E+00  1.97112E-01
       1    -1     0     0   513     0  0.000000000E+00  0.000000000E+00  4.331259791E+02  4.331259791E+02  0.000000000E+00  0.00000E+00  9.000E+00
      -2    -1     0     0     0   515  0.000000000E+00  0.000000000E+00 -6.567447265E+01  6.567447265E+01  0.000000000E+00  0.00000E+00  9.000E+00
      -2     1     1     2     0   512 -1.605407585E+01 -4.993450607E-01 -2.287623026E+01  2.795377448E+01  3.300000131E-01  0.00000E+00  9.000E+00
      21     1     1     2   513   515  1.379825017E+01  9.958287239E+00 -3.840372448E+01  4.200482408E+01  6.743495762E-07  0.00000E+00  9.000E+00
       1     1     1     2   512     0  2.255825682E+00 -9.458942179E+00  4.287314612E+02  4.288418532E+02  3.300000131E-01  0.00000E+00  9.000E+00
</event>
<event>
      5  10001  2.40292E+09  6.12832E+00 -1.00000E+00  2.23976E-01
      21    -1     0     0   511   512  0.000000000E+00  0.000000000E+00  4.490817995E+01  4.490817995E+01  0.000000000E+00  0.00000E+00  9.000E+00
      21    -1     0     0   514   511  0.000000000E+00  0.000000000E+00 -3.299829496E+01  3.299829496E+01  0.000000000E+00  0.00000E+00  9.000E+00
      21     1     1     2   514   516 -9.893822344E+00  4.315746988E+00 -2.963519458E+01  3.153978678E+01  8.920806376E-07  0.00000E+00  9.000E+00
      21     1     1     2   513   512  1.353354068E+01 -5.875722724E+00  3.890163270E+01  4.160550285E+01  4.768371582E-07  0.00000E+00  9.000E+00
      21     1     1     2   516   513 -3.639718337E+00  1.559975735E+00  2.643446867E+00  4.761185273E+00  8.940696716E-08  0.00000E+00  9.000E+00
</event>
<event>
      5  10001  2.40292E+09  4.70393E+00 -1.00000E+00  2.47819E-01
      -2    -1     0     0     0   515  0.000000000E+00  0.000000000E+00  9.957973083E+00  9.957973083E+00  0.000000000E+00  0.00000E+00  9.000E+00
      21    -1     0     0   512   511  0.000000000E+00  0.000000000E+00 -4.744908143E+01  4.744908143E+01  0.000000000E+00  0.00000E+00  9.000E+00
      -2     1     1     2     0   511  8.566564117E+00 -1.135885333E+01  2.666846810E+00  1.447862361E+01  3.300000131E-01  0.00000E+00  9.000E+00
      21     1     1     2   512   514 -5.622200806E+00  4.149249136E+00 -2.391774421E+01  2.491754198E+01  3.371747881E-07  0.00000E+00  9.000E+00
      21     1     1     2   514   515 -2.944363310E+00  7.209604197E+00 -1.624021095E+01  1.801088892E+01  0.000000000E+00  0.00000E+00  9.000E+00
</event>
<event>
      5  10001  2.40292E+09  8.93535E+00 -1.00000E+00  2.01522E-01
      21    -1     0     0   513   511  0.000000000E+00  0.000000000E+00  1.668780979E+02  1.668780979E+02  0.000000000E+00  0.00000E+00  9.000E+00
      21    -1     0     0   516   512  0.000000000E+00  0.000000000E+00 -1.122956832E+01  1.122956832E+01  0.000000000E+00  0.00000E+00  9.000E+00
      21     1     1     2   513   515  7.928890961E+00 -1.356611328E+01  1.209107207E+02  1.219274749E+02  2.336015456E-06  0.00000E+00  9.000E+00
      21     1     1     2   516   511 -1.508449542E+01  1.891753949E+01  3.929743236E+01  4.614871063E+01  6.743495762E-07  0.00000E+00  9.000E+00
      21     1     1     2   515   512  7.155604458E+00 -5.351426215E+00 -4.559623552E+00  1.003148068E+01  3.526258339E-07  0.00000E+00  9.000E+00
</event>
<event>
      5  10001  2.40292E+09  3.93305E+00 -1.00000E+00  2.65100E-01
       1    -1     0     0   515     0  0.000000000E+00  0.000000000E+00  4.181988479E+02  4.181988479E+02  0.000000000E+00  0.00000E+00  9.000E+00
      21    -1     0     0   514   511  0.000000000E+00  0.000000000E+00 -7.977300860E+00  7.977300860E+00  0.000000000E+00  0.00000E+00  9.000E+00
      21     1     1     2   515   512  6.967343841E+00 -6.173482122E+00  6.485767757E+01  6.552231759E+01  1.651812370E-06  0.00000E+00  9.000E+00
       1     1     1     2   514     0 -1.000801249E+01  8.668057913E+00  3.523702398E+02  3.526190442E+02  3.300000131E-01  0.00000E+00  9.000E+00
      21     1     1     2   512   511  3.040668646E+00 -2.494575790E+00 -7.006370404E+00  8.034786894E+00  7.444617746E-07  0.00000E+00  9.000E+00
</event>
<event>
      5  10001  2.40292E+09  5.93533E+00 -1.00000E+00  2.26126E-01
      21    -1     0     0   513   511  0.000000000E+00  0.000000000E+00  5.767399099E+00  5.767399099E+00  0.000000000E+00  0.00000E+00  9.000E+00
      21    -1     0     0   512   516  0.000000000E+00  0.000000000E+00 -3.463124775E+01  3.463124775E+01  0.000000000E+00  0.00000E+00  9.000E+00
      21     1     1     2   513   516  3.657374303E+00 -1.124021826E+01 -2.397912867E+01  2.673420104E+01  4.768371582E-07  0.00000E+00  9.000E+00
      21     1     1     2   514   511 -2.409793666E+00  2.968767772E+00  2.792504132E-01  3.833884244E+00  1.428297871E-07  0.00000E+00  9.000E+00
      21     1     1     2   512   514 -1.247580637E+00  8.271450485E+00 -5.163970396E+00  9.830561572E+00  1.788139343E-07  0.00000E+00  9.000E+00
</event>
<event>
      5  10001  2.40292E+09  1.32069E+01 -1.00000E+00  1.82705E-01
      21    -1     0     0   515   514  0.000000000E+00  0.000000000E+00  3.593794670E+01  3.593794670E+01  0.000000000E+00  0.00000E+00  9.000E+00
      21    -1     0     0   511   517  0.000000000E+00  0.000000000E+00 -8.838652971E+01  8.838652971E+01  0.000000000E+00  0.00000E+00  9.000E+00
      21     1     1     2   515   517 -1.522226906E+01 -3.183363944E+00  2.957753434E+01  3.341678948E+01  6.743495762E-07  0.00000E+00  9.000E+00
      21     1     1     2   512   514  2.468801595E+01 -6.026584159E+00 -6.094653958E+01  6.603255663E+01  9.536743164E-07  0.00000E+00  9.000E+00
      21     1     1     2   511   512 -9.465746886E+00  9.209948104E+00 -2.107957778E+01  2.487513030E+01  2.384185791E-07  0.00000E+00  9.000E+00
</event>
<event>
      5  10001  2.40292E+09  6.23246E+00 -1.00000E+00  2.22862E-01
      21    -1     0     0   512   513  0.000000000E+00  0.000000000E+00  1.042512678E+01  1.042512678E+01  0.000000000E+00  0.00000E+00  9.000E+00
       2    -1     0     0   513     0  0.000000000E+00  0.000000000E+00 -6.056668496E+01  6.056668496E+01  0.000000000E+00  0.00000E+00  9.000E+00
      21     1     1     2   512   514  2.525881276E+00 -1.619369455E+01 -1.626044140E+00  1.646996779E+01  2.402740046E-07  0.00000E+00  9.000E+00
       2     1     1     2   511     0  4.764510450E-01  1.497312919E+01 -4.900447796E+01  5.124421297E+01  3.300000131E-01  0.00000E+00  9.000E+00
      21     1     1     2   514   511 -3.002332321E+00  1.220565362E+00  4.889639112E-01  3.277630985E+00  2.580956828E-08  0.00000E+00  9.000E+00
</event>
<event>
      5  10001  2.40292E+09  5.06563E+00 -1.00000E+00  2.37444E-01
      21    -1     0     0   515   511  0.000000000E+00  0.000000000E+00  1.898265783E+01  1.898265783E+01  0.000000000E+00  0.00000E+00  9.000E+00
      21    -1     0     0   513   516  0.000000000E+00  0.000000000E+00 -1.680787991E+01  1.680787991E+01  0.000000000E+00  0.00000E+00  9.000E+00
      21     1     1     2   515   516 -1.359876353E+01  4.942181376E+00 -8.618303530E+00  1.684121973E+01  1.192092896E-07  0.00000E+00  9.000E+00
      21     1     1     2   512   511  7.575387847E+00 -5.462000972E+00  5.080737609E+00  1.063173788E+01  1.460009660E-07  0.00000E+00  9.000E+00
      21     1     1     2   513   512  6.023375681E+00  5.198195958E-01  5.712343848E+00  8.317580131E+00  1.685873940E-07  0.00000E+00  9.000E+00
</event>
<event>
      5  10001  2.40292E+09  2.35373E+00 -1.00000E+00  3.32818E-01
      21    -1     0     0   514   512  0.000000000E+00  0.000000000E+00  6.351606319E+00  6.351606319E+00  0.000000000E+00  0.00000E+00  9.000E+00
      21    -1     0     0   513   517  0.000000000E+00  0.000000000E+00 -9.206145651E+01  9.206145651E+01  0.000000000E+00  0.00000E+00  9.000E+00
      21     1     1     2   514   517 -5.562496880E+00  9.397039628E+00 -8.639463749E+01  8.708202519E+01  9.536743164E-07  0.00000E+00  9.000E+00
      21     1     1     2   513   511  3.922664969E+00 -6.923293550E+00 -8.271348411E-01  8.000215378E+00  1.493836765E-07  0.00000E+00  9.000E+00
      21     1     1     2   511   512  1.639831911E+00 -2.473746077E+00  1.511922138E+00  3.330822257E+00  1.349357536E-07  0.00000E+00  9.000E+00
</event>
<event>
      5  10001  2.40292E+09  6.76638E+00 -1.00000E+00  2.17586E-01
      21    -1     0     0   513   512  0.000000000E+00  0.000000000E+00  2.593197552E+00  2.593197552E+00  0.000000000E+00  0.00000E+00  9.000E+00
       2    -1     0     0   512     0  0.000000000E+00  0.000000000E+00 -7.697664149E+01  7.697664149E+01  0.000000000E+00  0.00000E+00  9.000E+00
      21     1     1     2   514   511  3.021050416E+00 -3.453595793E+00 -1.273209608E+00  4.761841264E+00  4.470348358E-08  0.00000E+00  9.000E+00
       2     1     1     2   511     0 -2.197803628E+00  8.925909710E+00 -5.782091898E+01  5.854801258E+01  3.300000131E-01  0.00000E+00  9.000E+00
      21     1     1     2   513   514 -8.232467873E-01 -5.472313917E+00 -1.528931535E+01  1.625998520E+01  2.384185791E-07  0.00000E+00  9.000E+00
</event>
<event>
      5  10001  2.40292E+09  3.99462E+01 -1.00000E+00  1.44845E-01
      21    -1     0     0   515   512  0.000000000E+00  0.000000000E+00  4.116515055E+00  4.116515055E+00  0.000000000E+00  0.00000E+00  9.000E+00
      21    -1     0     0   514   515  0.000000000E+00  0.000000000E+00 -1.523562734E+02  1.523562734E+02  0.000000000E+00  0.00000E+00  9.000E+00
      -1     1     1     2     0   512 -2.167150787E-01  9.488153235E+00 -3.461497608E+00  1.010756563E+01  3.300000131E-01  0.00000E+00  9.000E+00
       1     1     1     2   511     0 -5.088467904E+00 -6.057622797E-01 -1.049408360E+01  1.168307084E+01  3.300000131E-01  0.00000E+00  9.000E+00
      21     1     1     2   514   511  5.305182983E+00 -8.882390955E+00 -1.342841771E+02  1.346821520E+02  0.000000000E+00  0.00000E+00  9.000E+00
</event>
<event>
      5  10001  2.40292E+09  4.79746E+00 -1.00000E+00  2.46062E-01
       4    -1     0     0   514     0  0.000000000E+00  0.000000000E+00  4.727047169E+02  4.727047169E+02  0.000000000E+00  0.00000E+00  9.000E+00
      21    -1     0     0   513   511  0.000000000E+00  0.000000000E+00 -2.289324801E-01  2.289324801E-01  0.000000000E+00  0.00000E+00  9.000E+00
      21     1     1     2   514   511 -2.436015832E-01 -9.431971394E+00  2.190716837E+02  2.192747683E+02  2.697398305E-06  0.00000E+00  9.000E+00
       4     1     1     2   512     0  3.026888714E+00  6.190814920E+00  1.470932975E+02  1.472622709E+02  1.500000000E+00  0.00000E+00  9.000E+00
      21     1     1     2   513   512 -2.783287131E+00  3.241156473E+00  1.063108031E+02  1.063966101E+02  1.907348633E-06  0.00000E+00  9.000E+00
</event>
<event>
      5  10001  2.40292E+09  1.24370E+01 -1.00000E+00  1.85357E-01
      21    -1     0     0   515   511  0.000000000E+00  0.000000000E+00  3.114346958E+01  3.114346958E+01  0.000000000E+00  0.00000E+00  9.000E+00
      21    -1     0     0   513   516  0.000000000E+00  0.000000000E+00 -2.308075428E+01  2.308075428E+01  0.000000000E+00  0.00000E+00  9.000E+00
      21     1     1     2   515   516  8.180499099E+00  8.743817687E+00  2.423221958E+01  2.702915794E+01  0.000000000E+00  0.00000E+00  9.000E+00
      21     1     1     2   513   514 -8.895304682E+00 -1.365713296E+01 -9.449308648E+00  1.883966985E+01  2.920019320E-07  0.00000E+00  9.000E+00
      21     1     1     2   514   511  7.148055836E-01  4.913315273E+00 -6.720195636E+00  8.355396064E+00  2.920019320E-07  0.00000E+00  9.000E+00
</event>
<event>
      5  10001  2.40292E+09  9.41824E+00 -1.00000E+00  1.98755E-01
      21    -1     0     0   512   513  0.000000000E+00  0.000000000E+00  7.759909170E+00  7.759909170E+00  0.000000000E+00  0.00000E+00  9.000E+00
      21    -1     0     0   517   511  0.000000000E+00  0.000000000E+00 -2.162086323E+01  2.162086323E+01  0.000000000E+00  0.00000E+00  9.000E+00
      21     1     1     2   512   511 -9.237986518E+00 -1.523036923E+00 -3.328820356E+00  9.936854701E+00  0.000000000E+00  0.00000E+00  9.000E+00
      21     1     1     2   515   513  9.595007903E+00 -3.104131663E+00 -1.082393808E+01  1.479383134E+01  3.576278687E-07  0.00000E+00  9.000E+00
      21     1     1     2   517   515 -3.570213842E-01  4.627168586E+00  2.918043773E-01  4.650086363E+00  7.385100276E-08  0.00000E+00  9.000E+00
</event>
<event>
      5  10001  2.40292E+09  1.26620E+01 -1.00000E+00  1.84557E-01
      -4    -1     0     0     0   514  0.000000000E+00  0.000000000E+00  5.656022273E+00  5.656022273E+00  0.000000000E+00  0.00000E+00  9.000E+00
      21    -1     0     0   511   513  0.000000000E+00  0.000000000E+00 -1.464037355E+02  1.464037355E+02  0.000000000E+00  0.00000E+00  9.000E+00
      -4     1     1     2     0   513  2.076445324E+00 -1.779198952E+01 -3.532557273E+01  3.963600137E+01  1.500000000E+00  0.00000E+00  9.000E+00
      21     1     1     2   512   514  9.654000472E+00  1.306105382E+01 -1.863397647E+01  2.471873644E+01  4.129530925E-07  0.00000E+00  9.000E+00
      21     1     1     2   511   512 -1.173044580E+01  4.730935693E+00 -8.678816401E+01  8.770501994E+01  1.651812370E-06  0.00000E+00  9.000E+00
</event>
<event>
      5  10001  2.40292E+09  1.41612E+01 -1.00000E+00  1.79722E-01
      21    -1     0     0   513   514  0.000000000E+00  0.000000000E+00  3.609571065E+01  3.609571065E+01  0.000000000E+00  0.00000E+00  9.000E+00
      21    -1     0     0   511   515  0.000000000E+00  0.000000000E+00 -7.869192240E+01  7.869192240E+01  0.000000000E+00  0.00000E+00  9.000E+00
      21     1     1     2   512   514  1.782627596E+01  6.735148778E+00 -4.816840088E+01  5.180089948E+01  0.000000000E+00  0.00000E+00  9.000E+00
      21     1     1     2   511   512 -1.024263853E+01  5.224238078E+00 -2.597546316E+01  2.840649563E+01  5.840038640E-07  0.00000E+00  9.000E+00
      21     1     1     2   513   515 -7.583637433E+00 -1.195938686E+01  3.154765230E+01  3.458023794E+01  3.371747881E-07  0.00000E+00  9.000E+00
</event>
<event>
      5  10001  2.40292E+09  2.52517E+00 -1.00000E+00  3.21426E-01
       2    -1     0     0   511     0  0.000000000E+00  0.000000000E+00  8.850775625E+02  8.850775625E+02  0.000000000E+00  0.00000E+00  9.000E+00
      21    -1     0     0   512   515  0.000000000E+00  0.000000000E+00 -1.319805354E+00  1.319805354E+00  0.000000000E+00  0.00000E+00  9.000E+00
      21     1     1     2   511   515 -6.792674775E+00  8.528611550E+00  2.533788723E+01  2.758416529E+01  1.752011592E-06  0.00000E+00  9.000E+00
       2     1     1     2   513     0  9.193941629E+00 -7.747523113E+00  8.482251022E+02  8.483103710E+02  3.300000131E-01  0.00000E+00  9.000E+00
      21     1     1     2   512   513 -2.401266854E+00 -7.810884370E-01  1.019476775E+01  1.050283158E+01  1.192092896E-07  0.00000E+00  9.000E+00
</event>
<event>
      5  10001  2.40292E+09  5.79686E+00 -1.00000E+00  2.27740E-01
       4    -1     0     0   512     0  0.000000000E+00  0.000000000E+00  2.345996869E+01  2.345996869E+01  0.000000000E+00  0.00000E+00  9.000E+00
      21    -1     0     0   514   513  0.000000000E+00  0.000000000E+00 -1.450699677E+02  1.450699677E+02  0.000000000E+00  0.00000E+00  9.000E+00
      21     1     1     2   512   513  1.295385897E+00  1.092757286E+01 -1.390798890E+02  1.395145348E+02  1.907348633E-06  0.00000E+00  9.000E+00
       4     1     1     2   511     0 -2.998428281E+00 -6.760230653E+00  2.161594259E+01  2.289520178E+01  1.500000000E+00  0.00000E+00  9.000E+00
      21     1     1     2   514   511  1.703042384E+00 -4.167342205E+00 -4.146052575E+00  6.120199863E+00  1.576990671E-07  0.00000E+00  9.000E+00
</event>
<event>
      5  10001  2.40292E+09  6.49785E+00 -1.00000E+00  2.20152E-01
      21    -1     0     0   512   516  0.000000000E+00  0.000000000E+00  1.359585917E+03  1.359585917E+03  0.000000000E+00  0.00000E+00  9.000E+00
      21    -1     0     0   514   515  0.000000000E+00  0.000000000E+00 -8.562903659E-01  8.562903659E-01  0.000000000E+00  0.00000E+00  9.000E+00
      21     1     1     2   511   516  1.933850183E+01 -9.248247747E+00  9.225347075E+02  9.227837202E+02  1.078959322E-05  0.00000E+00  9.000E+00
      21     1     1     2   514   511 -1.541639437E+01  1.442889486E+01  1.600179407E+02  1.614050792E+02  6.031565972E-06  0.00000E+00  9.000E+00
      21     1     1     2   512   515 -3.922107467E+00 -5.180647115E+00  2.761769781E+02  2.762534077E+02  5.394796609E-06  0.00000E+00  9.000E+00
</event>
<event>
      5  10001  2.40292E+09  1.00520E+01 -1.00000E+00  1.95439E-01
      -2    -1     0     0     0   513  0.000000000E+00  0.000000000E+00  1.074272887E+01  1.074272887E+01  0.000000000E+00  0.00000E+00  9.000E+00
      21    -1     0     0   511   512  0.000000000E+00  0.000000000E+00 -2.640310629E+01  2.640310629E+01  0.000000000E+00  0.00000E+00  9.000E+00
      -2     1     1     2     0   512  3.308237600E+00 -1.381890809E+01 -1.250349771E+01  1.893021425E+01  3.300000131E-01  0.00000E+00  9.000E+00
      21     1     1     2   511   514 -2.512215054E+00  5.842914156E+00  3.963616415E+00  7.494072684E+00  2.421152116E-07  0.00000E+00  9.000E+00
      21     1     1     2   514   513 -7.960225468E-01  7.975993930E+00 -7.120496132E+00  1.072154822E+01  3.039252468E-07  0.00000E+00  9.000E+00
</event>
<event>
      5  10001  2.40292E+09  8.33027E+00 -1.00000E+00  2.05335E-01
      21    -1     0     0   511   513  0.000000000E+00  0.000000000E+00  7.707045592E+01  7.707045592E+01  0.000000000E+00  0.00000E+00  9.000E+00
       1    -1     0     0   513     0  0.000000000E+00  0.000000000E+00 -1.831582929E+01  1.831582929E+01  0.000000000E+00  0.00000E+00  9.000E+00
      -2     1     1     2     0   514  1.023626912E+00 -1.841961410E+01  3.675521467E+01  4.112644771E+01  3.300000131E-01  0.00000E+00  9.000E+00
       1     1     1     2   514     0  4.073267235E+00  1.183156872E+01 -1.313840649E+01  1.814673936E+01  3.300000131E-01  0.00000E+00  9.000E+00
       2     1     1     2   511     0 -5.096894147E+00  6.588045385E+00  3.513781845E+01  3.611309814E+01  3.300000131E-01  0.00000E+00  9.000E+00
</event>
<event>
      5  10001  2.40292E+09  9.61094E+00 -1.00000E+00  1.97711E-01
       1    -1     0     0   514     0  0.000000000E+00  0.000000000E+00  8.011781086E+02  8.011781086E+02  0.000000000E+00  0.00000E+00  9.000E+00
      21    -1     0     0   512   514  0.000000000E+00  0.000000000E+00 -4.536109339E-01  4.536109339E-01  0.000000000E+00  0.00000E+00  9.000E+00
      21     1     1     2   512   511  1.723245216E+00 -9.883307540E+00  7.395176245E+01  7.462916663E+01  2.523185073E-06  0.00000E+00  9.000E+00
       1     1     1     2   513     0  4.970087212E-01  4.659832763E+00  6.512137098E+02  6.512306549E+02  3.300000131E-01  0.00000E+00  9.000E+00
      21     1     1     2   511   513 -2.220253937E+00  5.223474777E+00  7.555902542E+01  7.577189808E+01  1.651812370E-06  0.00000E+00  9.000E+00
</event>
<event>
      5  10001  2.40292E+09  1.52181E+01 -1.00000E+00  1.76748E-01
       2    -1     0     0   511     0  0.000000000E+00  0.000000000E+00  2.077866868E+02  2.077866868E+02  0.000000000E+00  0.00000E+00  9.000E+00
      21    -1     0     0   515   513  0.000000000E+00  0.000000000E+00 -8.497411640E+01  8.497411640E+01  0.000000000E+00  0.00000E+00  9.000E+00
      21     1     1     2   511   512 -1.713628984E+01 -1.498170339E+01 -8.004467820E+01  8.321811325E+01  3.932099939E-06  0.00000E+00  9.000E+00
       2     1     1     2   515     0  9.560862112E+00  8.633245560E+00  1.981967052E+02  1.986151703E+02  3.300000131E-01  0.00000E+00  9.000E+00
      21     1     1     2   512   513  7.575427732E+00  6.348457826E+00  4.660543457E+00  1.092751973E+01  2.064765462E-07  0.00000E+00  9.000E+00
</event>
<event>
      5  10001  2.40292E+09  2.71520E+01 -1.00000E+00  1.56074E-01
      21    -1     0     0   514   512  0.000000000E+00  0.000000000E+00  1.368527815E+02  1.368527815E+02  0.000000000E+00  0.00000E+00  9.000E+00
      21    -1     0     0   516   514  0.000000000E+00  0.000000000E+00 -3.295407516E+00  3.295407516E+00  0.000000000E+00  0.00000E+00  9.000E+00
      21     1     1     2   516   513  6.605424848E+00  9.502889912E+00  1.025170439E+01  1.546072433E+01  3.769728732E-07  0.00000E+00  9.000E+00
      21     1     1     2   511   512 -7.051271535E-01 -4.756661271E+00  9.668537969E+00  1.079831733E+01  2.064765462E-07  0.00000E+00  9.000E+00
      21     1     1     2   513   511 -5.900297695E+00 -4.746228641E+00  1.136371316E+02  1.138891473E+02  0.000000000E+00  0.00000E+00  9.000E+00
</event>
<event>
      5  10001  2.40292E+09  1.07189E+01 -1.00000E+00  1.92279E-01
      21    -1     0     0   515   511  0.000000000E+00  0.000000000E+00  9.434770489E+01  9.434770489E+01  0.000000000E+00  0.00000E+00  9.000E+00
      21    -1     0     0   513   512  0.000000000E+00  0.000000000E+00 -6.421214876E+01  6.421214876E+01  0.000000000E+00  0.00000E+00  9.000E+00
      21     1     1     2   515   517  1.768000476E+01 -2.238389320E+01 -3.410364247E+01  4.445986586E+01  9.536743164E-07  0.00000E+00  9.000E+00
      21     1     1     2   513   511 -1.674681697E+01  1.170567727E+01  8.677329617E+01  8.914641713E+01  0.000000000E+00  0.00000E+00  9.000E+00
      21     1     1     2   517   512 -9.331877921E-01  1.067821593E+01 -2.253409758E+01  2.495357065E+01  0.000000000E+00  0.00000E+00  9.000E+00
</event>
<event>
      5  10001  2.40292E+09  8.02476E+00 -1.00000E+00  2.07429E-01
      21    -1     0     0   514   511  0.000000000E+00  0.000000000E+00  7.787349376E+01  7.787349376E+01  0.000000000E+00  0.00000E+00  9.000E+00
      21    -1     0     0   516   514  0.000000000E+00  0.000000000E+00 -3.845688798E+01  3.845688798E+01  0.000000000E+00  0.00000E+00  9.000E+00
      21     1     1     2   512   511  1.456740840E+00 -1.212393742E+01  7.529435058E+01  7.627811732E+01  1.651812370E-06  0.00000E+00  9.000E+00
      21     1     1     2   516   513  4.508457398E+00  1.032928996E+01 -2.646581828E+01  2.876560370E+01  1.118282261E-06  0.00000E+00  9.000E+00
      21     1     1     2   513   512 -5.965198238E+00  1.794647463E+00 -9.411926519E+00  1.128666073E+01  3.371747881E-07  0.00000E+00  9.000E+00
</event>
<event>
      5  10001  2.40292E+09  9.99273E+00 -1.00000E+00  1.95735E-01
      21    -1     0     0   515   516  0.000000000E+00  0.000000000E+00  8.865254167E+01  8.865254167E+01  0.000000000E+00  0.00000E+00  9.000E+00
      21    -1     0     0   511   512  0.000000000E+00  0.000000000E+00 -5.688699061E+00  5.688699061E+00  0.000000000E+00  0.00000E+00  9.000E+00
      21     1     1     2   515   512  1.016174075E+01 -6.073214267E+00  7.626223267E+01  7.717559873E+01  9.536743164E-07  0.00000E+00  9.000E+00
      21     1     1     2   511   514 -9.947407788E+00  1.968096425E+00  7.932779704E+00  1.287452209E+01  1.884864366E-07  0.00000E+00  9.000E+00
      21     1     1     2   514   516 -2.143329628E-01  4.105117843E+00 -1.231169766E+00  4.291119914E+00  2.086162567E-07  0.00000E+00  9.000E+00
</event>
<event>
      5  10001  2.40292E+09  3.32730E+00 -1.00000E+00  2.83730E-01
      21    -1     0     0   513   511  0.000000000E+00  0.000000000E+00  3.929565690E+01  3.929565690E+01  0.000000000E+00  0.00000E+00  9.000E+00
      21    -1     0     0   516   513  0.000000000E+00  0.000000000E+00 -3.574716251E+00  3.574716251E+00  0.000000000E+00  0.00000E+00  9.000E+00
      21     1     1     2   516   517 -1.104073301E+01  1.510016223E+00  1.150869675E+01  1.601961408E+01  2.920019320E-07  0.00000E+00  9.000E+00
      21     1     1     2   512   511  5.823184659E+00 -8.992365347E-01  9.001920954E+00  1.075884226E+01  1.685873940E-07  0.00000E+00  9.000E+00
      21     1     1     2   517   512  5.217548348E+00 -6.107796884E-01  1.521032295E+01  1.609191681E+01  1.685873940E-07  0.00000E+00  9.000E+00
</event>
<event>
      5  10001  2.40292E+09  8.43994E+00 -1.00000E+00  2.04612E-01
      21    -1     0     0   514   512  0.000000000E+00  0.000000000E+00  1.618604015E+02  1.618604015E+02  0.000000000E+00  0.00000E+00  9.000E+00
      21    -1     0     0   511   514  0.000000000E+00  0.000000000E+00 -5.762097123E+00  5.762097123E+00  0.000000000E+00  0.00000E+00  9.000E+00
      21     1     1     2   515   516 -1.132229386E+01  9.504403792E+00  4.227604473E+01  4.478606912E+01  0.000000000E+00  0.00000E+00  9.000E+00
      21     1     1     2   516   512  7.452591360E+00 -2.003876748E+00  1.141302588E+02  1.143908765E+02  1.348699152E-06  0.00000E+00  9.000E+00
      21     1     1     2   511   515  3.869702504E+00 -7.500527044E+00 -3.079991230E-01  8.445553082E+00  3.240574337E-07  0.00000E+00  9.000E+00
</event>
<event>
      5  10001  2.40292E+09  6.63362E+00 -1.00000E+00  2.18834E-01
      21    -1     0     0   512   513  0.000000000E+00  0.000000000E+00  4.612604117E+01  4.612604117E+01  0.000000000E+00  0.00000E+00  9.000E+00
      21    -1     0     0   513   514  0.000000000E+00  0.000000000E+00 -1.610934216E+01  1.610934216E+01  0.000000000E+00  0.00000E+00  9.000E+00
      -4     1     1     2     0   511  9.298588957E-01  1.315592975E+01  1.635571417E+01  2.106424722E+01  1.500000000E+00  0.00000E+00  9.000E+00
      21     1     1     2   511   514  3.676054166E+00 -1.790289465E+01 -6.888421497E+00  1.953144546E+01  1.192092896E-07  0.00000E+00  9.000E+00
       4     1     1     2   512     0 -4.605913062E+00  4.746964904E+00  2.054940633E+01  2.163969065E+01  1.500000000E+00  0.00000E+00  9.000E+00
</event>
<event>
      5  10001  2.40292E+09  5.17659E+00 -1.00000E+00  2.35826E-01
      21    -1     0     0   515   514  0.000000000E+00  0.000000000E+00  2.772025371E+00  2.772025371E+00  0.000000000E+00  0.00000E+00  9.000E+00
      21    -1     0     0   513   516  0.000000000E+00  0.000000000E+00 -1.205177582E+02  1.205177582E+02  0.000000000E+00  0.00000E+00  9.000E+00
      21     1     1     2   515   516  3.210049453E-01 -8.008016226E+00 -7.256371204E+00  1.081139635E+01  2.795705652E-07  0.00000E+00  9.000E+00
      21     1     1     2   513   511  2.652681311E-01  1.315129777E+01 -9.908300533E+01  9.995233337E+01  0.000000000E+00  0.00000E+00  9.000E+00
      21     1     1     2   511   514 -5.862730765E-01 -5.143281548E+00 -1.140635632E+01  1.252605388E+01  1.685873940E-07  0.00000E+00  9.000E+00
</event>
<event>
      5  10001  2.40292E+09  7.45954E+00 -1.00000E+00  2.11655E-01
       2    -1     0     0   512     0  0.000000000E+00  0.000000000E+00  5.460147069E+02  5.460147069E+02  0.000000000E+00  0.00000E+00  9.000E+00
      21    -1     0     0   514   512  0.000000000E+00  0.000000000E+00 -7.149246787E+00  7.149246787E+00  0.000000000E+00  0.00000E+00  9.000E+00
      21     1     1     2   513   511  5.819975523E+00  7.514979474E+00  1.254079994E+02  1.257676959E+02  1.907348633E-06  0.00000E+00  9.000E+00
      21     1     1     2   514   513 -1.194556271E+01 -3.258109153E+00 -1.409706486E+00  1.246190259E+01  4.966805372E-07  0.00000E+00  9.000E+00
       2     1     1     2   511     0  6.125587186E+00 -4.256870320E+00  4.148671672E+02  4.149343552E+02  3.300000131E-01  0.00000E+00  9.000E+00
</event>
<event>
      5  10001  2.40292E+09  4.84932E+00 -1.00000E+00  2.45113E-01
      21    -1     0     0   515   513  0.000000000E+00  0.000000000E+00  6.570637282E+01  6.570637282E+01  0.000000000E+00  0.00000E+00  9.000E+00
      21    -1     0     0   516   515  0.000000000E+00  0.000000000E+00 -1.687692967E+01  1.687692967E+01  0.000000000E+00  0.00000E+00  9.000E+00
      21     1     1     2   514   513 -7.689582508E+00 -6.125052357E+00  6.145407012E+01  6.223542946E+01  6.743495762E-07  0.00000E+00  9.000E+00
      21     1     1     2   512   514  4.237390458E+00  3.494818069E+00 -1.458549626E+01  1.558543976E+01  4.460403188E-07  0.00000E+00  9.000E+00
      21     1     1     2   516   512  3.452192049E+00  2.630234288E+00  1.960869292E+00  4.762433279E+00  7.598131170E-08  0.00000E+00  9.000E+00
</event>
<event>
      5  10001  2.40292E+09  3.91363E+00 -1.00000E+00  2.65614E-01
      21    -1     0     0   511   512  0.000000000E+00  0.000000000E+00  3.481553388E+00  3.481553388E+00  0.000000000E+00  0.00000E+00  9.000E+00
      21    -1     0     0   513   517  0.000000000E+00  0.000000000E+00 -4.995050122E+01  4.995050122E+01  0.000000000E+00  0.00000E+00  9.000E+00
      21     1     1     2   511   517  1.178574900E+01  6.839641491E-01 -2.587437211E+01  2.844037304E+01  0.000000000E+00  0.00000E+00  9.000E+00
      21     1     1     2   513   514 -1.075046210E+01 -3.363018800E+00 -1.583578303E+01  1.943333103E+01  3.769728732E-07  0.00000E+00  9.000E+00
      21     1     1     2   514   512 -1.035286900E+00  2.679054651E+00 -4.758792697E+00  5.558350540E+00  1.332800375E-07  0.00000E+00  9.000E+00
</event>
<event>
      5  10001  2.40292E+09  1.35668E+00 -1.00000E+00  4.81506E-01
      -1    -1     0     0     0   512  0.000000000E+00  0.000000000E+00  6.290787465E+01  6.290787465E+01  0.000000000E+00  0.00000E+00  9.000E+00
       2    -1     0     0   513     0  0.000000000E+00  0.000000000E+00 -2.811509308E+01  2.811509308E+01  0.000000000E+00  0.00000E+00  9.000E+00
      21     1     1     2   513   512  6.642133322E+00 -2.239168789E+01  5.602650369E+00  2.401864510E+01  3.674277069E-07  0.00000E+00  9.000E+00
       2     1     1     2   514     0 -7.592806232E+00  2.335948662E+01 -1.091099722E+01  2.687889659E+01  3.300000131E-01  0.00000E+00  9.000E+00
      -1     1     1     2     0   514  9.506729100E-01 -9.677987373E-01  4.010112842E+01  4.012542603E+01  3.300000131E-01  0.00000E+00  9.000E+00
</event>
<event>
      5  10001  2.40292E+09  3.75730E+00 -1.00000E+00  2.69930E-01
      21    -1     0     0   511   512  0.000000000E+00  0.000000000E+00  7.682206898E-01  7.682206898E-01  0.000000000E+00  0.00000E+00  9.000E+00
      21    -1     0     0   515   511  0.000000000E+00  0.000000000E+00 -8.966771136E+02  8.966771136E+02  0.000000000E+00  0.00000E+00  9.000E+00
      21     1     1     2   515   513 -1.383622984E+01 -3.473303495E+00 -8.189302795E+02  8.190545206E+02  1.078959322E-05  0.00000E+00  9.000E+00
      21     1     1     2   513   516  8.933712462E+00  1.038349988E+00 -5.558982492E+01  5.631268085E+01  9.536743164E-07  0.00000E+00  9.000E+00
      21     1     1     2   516   512  4.902517383E+00  2.434953507E+00 -2.138878846E+01  2.207813278E+01  9.233911863E-07  0.00000E+00  9.000E+00
</event>
<event>
      5  10001  2.40292E+09  1.72830E+01 -1.00000E+00  1.71732E-01
      21    -1     0     0   515   512  0.000000000E+00  0.000000000E+00  2.739034275E+01  2.739034275E+01  0.000000000E+00  0.00000E+00  9.000E+00
      -2    -1     0     0     0   514  0.000000000E+00  0.000000000E+00 -5.146671422E+00  5.146671422E+00  0.000000000E+00  0.00000E+00  9.000E+00
      21     1     1     2   511   512  1.831154603E+00 -2.448476805E+00  8.351982566E-01  3.169498694E+00  6.580174615E-08  0.00000E+00  9.000E+00
      21     1     1     2   515   514  8.479010233E+00  3.842829985E+00  1.298353795E+01  1.597601998E+01  1.685873940E-07  0.00000E+00  9.000E+00
      -2     1     1     2     0   511 -1.031016484E+01 -1.394353180E+00  8.424935120E+00  1.339149549E+01  3.300000131E-01  0.00000E+00  9.000E+00
</event>
<event>
      5  10001  2.40292E+09  1.39087E+01 -1.00000E+00  1.80482E-01
      21    -1     0     0   513   516  0.000000000E+00  0.000000000E+00  3.688253912E+02  3.688253912E+02  0.000000000E+00  0.00000E+00  9.000E+00
      21    -1     0     0   512   511  0.000000000E+00  0.000000000E+00 -3.567744350E+02  3.567744350E+02  0.000000000E+00  0.00000E+00  9.000E+00
      21     1     1     2   513   511  1.297667332E+01  4.603949920E+00 -3.560448460E+02  3.563109917E+02  3.814697266E-06  0.00000E+00  9.000E+00
      21     1     1     2   512   514 -3.348622546E-01 -8.208574588E+00  2.883336051E+02  2.884506208E+02  3.814697266E-06  0.00000E+00  9.000E+00
      21     1     1     2   514   516 -1.264181106E+01  3.604624669E+00  7.976219710E+01  8.083821369E+01  1.651812370E-06  0.00000E+00  9.000E+00
</event>
<event>
      5  10001  2.40292E+09  1.21764E+01 -1.00000E+00  1.86311E-01
      -1    -1     0     0     0   515  0.000000000E+00  0.000000000E+00  1.670796897E+01  1.670796897E+01  0.000000000E+00  0.00000E+00  9.000E+00
      21    -1     0     0   515   513  0.000000000E+00  0.000000000E+00 -2.302764259E+01  2.302764259E+01  0.000000000E+00  0.00000E+00  9.000E+00
      -1     1     1     2     0   511 -3.636936300E+00 -3.004081253E+00  6.833306756E+00  8.309921242E+00  3.300000131E-01  0.00000E+00  9.000E+00
      21     1     1     2   514   513 -3.429846974E+00  9.078462567E+00 -1.834821532E+01  2.075666973E+01  0.000000000E+00  0.00000E+00  9.000E+00
      21     1     1     2   511   514  7.066783274E+00 -6.074381315E+00  5.195234944E+00  1.066902059E+01  1.192092896E-07  0.00000E+00  9.000E+00
</event>
<event>
      5  10001  2.40292E+09  8.10459E+00 -1.00000E+00  2.06870E-01
      21    -1     0     0   512   514  0.000000000E+00  0.000000000E+00  1.204163227E+01  1.204163227E+01  0.000000000E+00  0.00000E+00  9.000E+00
      21    -1     0     0   511   516  0.000000000E+00  0.000000000E+00 -3.340828766E+01  3.340828766E+01  0.000000000E+00  0.00000E+00  9.000E+00
      21     1     1     2   512   516  6.255117514E+00  1.090920329E+01  4.962203337E+00  1.351890060E+01  2.858538343E-07  0.00000E+00  9.000E+00
      21     1     1     2   513   514 -4.580024876E+00 -5.123015802E+00 -2.477457674E+01  2.570995082E+01  4.768371582E-07  0.00000E+00  9.000E+00
      21     1     1     2   511   513 -1.675092638E+00 -5.786187483E+00 -1.554281983E+00  6.221068512E+00  1.115100797E-07  0.00000E+00  9.000E+00
</event>
<event>
      5  10001  2.40292E+09  8.51416E+00 -1.00000E+00  2.04132E-01
      21    -1     0     0   515   512  0.000000000E+00  0.000000000E+00  9.643782195E+01  9.643782195E+01  0.000000000E+00  0.00000E+00  9.000E+00
      21    -1     0     0   511   517  0.000000000E+00  0.000000000E+00 -3.674737928E+00  3.674737928E+00  0.000000000E+00  0.00000E+00  9.000E+00
      21     1     1     2   515   517 -8.994982131E+00 -9.523274507E+00  3.732786520E+01  3.955972676E+01  4.768371582E-07  0.00000E+00  9.000E+00
      21     1     1     2   511   513  1.032459507E+00  1.253809497E+01  1.678714711E+01  2.097803867E+01  4.129530925E-07  0.00000E+00  9.000E+00
      21     1     1     2   513   512  7.962522624E+00 -3.014820466E+00  3.864807170E+01  3.957479444E+01  6.743495762E-07  0.00000E+00  9.000E+00
</event>
<event>
      5  10001  2.40292E+09  8.09579E+00 -1.00000E+00  2.06931E-01
      21    -1     0     0   514   511  0.000000000E+00  0.000000000E+00  1.334313998E+02  1.334313998E+02  0.000000000E+00  0.00000E+00  9.000E+00
      21    -1     0     0   513   515  0.000000000E+00  0.000000000E+00 -1.351852193E+02  1.351852193E+02  0.000000000E+00  0.00000E+00  9.000E+00
      -1     1     1     2     0   511 -3.936359068E+00 -1.243082385E+01  9.586210259E+01  9.674539739E+01  3.300000131E-01  0.00000E+00  9.000E+00
       1     1     1     2   513     0 -4.151597297E+00  1.278550134E+01  3.578338305E+01  3.822648567E+01  3.300000131E-01  0.00000E+00  9.000E+00
      21     1     1     2   514   515  8.087956365E+00 -3.546774904E-01 -1.333993052E+02  1.336447360E+02  1.907348633E-06  0.00000E+00  9.000E+00
</event>
<event>
      5  10001  2.40292E+09  1.65979E+01 -1.00000E+00  1.73295E-01
      21    -1     0     0   512   513  0.000000000E+00  0.000000000E+00  4.462285837E+00  4.462285837E+00  0.000000000E+00  0.00000E+00  9.000E+00
      21    -1     0     0   511   516  0.000000000E+00  0.000000000E+00 -3.973592638E+01  3.973592638E+01  0.000000000E+00  0.00000E+00  9.000E+00
      21     1     1     2   512   516 -8.492955728E+00  1.456908401E+00 -4.885852198E+00  9.905777647E+00  1.576990671E-07  0.00000E+00  9.000E+00
      21     1     1     2   511   517  4.841396473E+00 -5.248145597E-01 -1.408831187E+00  5.069453170E+00  1.237783412E-07  0.00000E+00  9.000E+00
      21     1     1     2   517   513  3.651559256E+00 -9.320938410E-01 -2.897895716E+01  2.922298140E+01  0.000000000E+00  0.00000E+00  9.000E+00
</event>
<event>
      5  10001  2.40292E+09  1.30982E+01 -1.00000E+00  1.83066E-01
      21    -1     0     0   514   515  0.000000000E+00  0.000000000E+00  1.478582887E+00  1.478582887E+00  0.000000000E+00  0.00000E+00  9.000E+00
      21    -1     0     0   513   514  0.000000000E+00  0.000000000E+00 -2.141062150E+02  2.141062150E+02  0.000000000E+00  0.00000E+00  9.000E+00
      21     1     1     2   511   515 -9.897247009E+00  4.206513022E+00 -2.127703224E+01  2.384035132E+01  5.331201500E-07  0.00000E+00  9.000E+00
      21     1     1     2   513   512  1.238154847E+00  1.464436178E+00 -3.349207429E+01  3.354693192E+01  0.000000000E+00  0.00000E+00  9.000E+00
      21     1     1     2   512   511  8.659092162E+00 -5.670949200E+00 -1.578585255E+02  1.581975146E+02  0.000000000E+00  0.00000E+00  9.000E+00
</event>
<event>
      5  10001  2.40292E+09  2.16705E+01 -1.00000E+00  1.63505E-01
       1    -1     0     0   511     0  0.000000000E+00  0.000000000E+00  1.965823786E+02  1.965823786E+02  0.000000000E+00  0.00000E+00  9.000E+00
      -2    -1     0     0     0   511  0.000000000E+00  0.000000000E+00 -1.171598044E+01  1.171598044E+01  0.000000000E+00  0.00000E+00  9.000E+00
      -2     1     1     2     0   512 -5.776084739E+00  8.797108407E+00 -8.813524039E+00  1.373096418E+01  3.300000131E-01  0.00000E+00  9.000E+00
      21     1     1     2   512   513  3.657713755E-01 -9.672440587E+00  6.008155965E+01  6.085625445E+01  6.743495762E-07  0.00000E+00  9.000E+00
       1     1     1     2   513     0  5.410313364E+00  8.753321797E-01  1.335983626E+02  1.337111404E+02  3.300000131E-01  0.00000E+00  9.000E+00
</event>
<event>
      5  10001  2.40292E+09  5.17974E+00 -1.00000E+00  2.35781E-01
      21    -1     0     0   514   512  0.000000000E+00  0.000000000E+00  6.849087527E+00  6.849087527E+00  0.000000000E+00  0.00000E+00  9.000E+00
      21    -1     0     0   516   515  0.000000000E+00  0.000000000E+00 -7.978524460E+01  7.978524460E+01  0.000000000E+00  0.00000E+00  9.000E+00
      21     1     1     2   514   515  3.849928480E+00 -9.925500285E+00  1.935113189E+00  1.082045139E+01  2.771776205E-07  0.00000E+00  9.000E+00
      21     1     1     2   516   511 -3.532613587E+00  3.068548475E+00 -4.005486352E+01  4.032725431E+01  0.000000000E+00  0.00000E+00  9.000E+00
      21     1     1     2   511   512 -3.173148925E-01  6.856951809E+00 -3.481640674E+01  3.548662642E+01  4.768371582E-07  0.00000E+00  9.000E+00
</event>
<event>
      5  10001  2.40292E+09  4.36833E+00 -1.00000E+00  2.54669E-01
      21    -1     0     0   513   515  0.000000000E+00  0.000000000E+00  1.090779426E+02  1.090779426E+02  0.000000000E+00  0.00000E+00  9.000E+00
      21    -1     0     0   517   514  0.000000000E+00  0.000000000E+00 -2.011033351E+02  2.011033351E+02  0.000000000E+00  0.00000E+00  9.000E+00
      21     1     1     2   513   512 -5.025675132E+00 -7.425305982E+00 -8.139431931E+00  1.210962145E+01  7.348554138E-07  0.00000E+00  9.000E+00
      21     1     1     2   517   515  9.392820837E+00  7.323409566E+00  1.067365921E+02  1.073990573E+02  1.348699152E-06  0.00000E+00  9.000E+00
      21     1     1     2   512   514 -4.367145706E+00  1.018964166E-01 -1.906225527E+02  1.906725989E+02  3.814697266E-06  0.00000E+00  9.000E+00
</event>
<event>
      5  10001  2.40292E+09  7.26821E+00 -1.00000E+00  2.13201E-01
      21    -1     0     0   511   514  0.000000000E+00  0.000000000E+00  2.540659305E+01  2.540659305E+01  0.000000000E+00  0.00000E+00  9.000E+00
      21    -1     0     0   513   516  0.000000000E+00  0.000000000E+00 -2.599232965E+02  2.599232965E+02  0.000000000E+00  0.00000E+00  9.000E+00
      21     1     1     2   511   516 -7.262680796E+00  8.419224855E+00 -7.402399035E+01  7.485439885E+01  0.000000000E+00  0.00000E+00  9.000E+00
      21     1     1     2   512   514  1.178328233E+01 -2.727910558E+00  2.345202855E+01  2.638721057E+01  3.371747881E-07  0.00000E+00  9.000E+00
      21     1     1     2   513   512 -4.520601531E+00 -5.691314297E+00 -1.839447417E+02  1.840882801E+02  0.000000000E+00  0.00000E+00  9.000E+00
</event>
<event>
      5  10001  2.40292E+09  1.41307E+01 -1.00000E+00  1.79813E-01
      21    -1     0     0   515   514  0.000000000E+00  0.000000000E+00  5.171504860E+01  5.171504860E+01  0.000000000E+00  0.00000E+00  9.000E+00
      21    -1     0     0   513   515  0.000000000E+00  0.000000000E+00 -2.172594946E+01  2.172594946E+01  0.000000000E+00  0.00000E+00  9.000E+00
      21     1     1     2   512   514 -8.304711961E+00  1.023833382E+01  4.213452755E+01  4.414872741E+01  9.536743164E-07  0.00000E+00  9.000E+00
      21     1     1     2   511   512 -1.203653499E+00 -6.619618130E+00 -1.680534218E+01  1.810214494E+01  0.000000000E+00  0.00000E+00  9.000E+00
      21     1     1     2   513   511  9.508365460E+00 -3.618715691E+00  4.659913769E+00  1.119012571E+01  2.384185791E-07  0.00000E+00  9.000E+00
</event>
<event>
      5  10001  2.40292E+09  1.34462E+01 -1.00000E+00  1.81928E-01
      21    -1     0     0   512   511  0.000000000E+00  0.000000000E+00  4.121772586E+01  4.121772586E+01  0.000000000E+00  0.00000E+00  9.000E+00
       4    -1     0     0   514     0  0.000000000E+00  0.000000000E+00 -2.674035191E+02  2.674035191E+02  0.000000000E+00  0.00000E+00  9.000E+00
      21     1     1     2   514   511  1.055019283E+01  2.842240918E+01 -1.567747519E+02  1.596792496E+02  1.907348633E-06  0.00000E+00  9.000E+00
       4     1     1     2   513     0  2.892766725E+00 -2.863703776E+01 -1.060591293E+02  1.099055819E+02  1.500000000E+00  0.00000E+00  9.000E+00
      21     1     1     2   512   513 -1.344295956E+01  2.146285748E-01  3.664808794E+01  3.903641347E+01  1.066240300E-06  0.00000E+00  9.000E+00
</event>
<event>
      5  10001  2.40292E+09  2.54653E+01 -1.00000E+00  1.58116E-01
      21    -1     0     0   515   513  0.000000000E+00  0.000000000E+00  3.710783141E+00  3.710783141E+00  0.000000000E+00  0.00000E+00  9.000E+00
      21    -1     0     0   511   516  0.000000000E+00  0.000000000E+00 -3.257647119E+02  3.257647119E+02  0.000000000E+00  0.00000E+00  9.000E+00
      21     1     1     2   515   516 -9.011614905E+00 -1.208066229E+01 -2.356196666E+02  2.361012047E+02  0.000000000E+00  0.00000E+00  9.000E+00
      21     1     1     2   514   513 -6.375518371E+00  6.642870497E+00 -5.318308430E+00  1.063293786E+01  4.693274423E-07  0.00000E+00  9.000E+00
      21     1     1     2   511   514  1.538713328E+01  5.437791792E+00 -8.111595376E+01  8.274135245E+01  1.348699152E-06  0.00000E+00  9.000E+00
</event>
<event>
      5  10001  2.40292E+09  7.04087E+00 -1.00000E+00  2.15126E-01
      21    -1     0     0   514   513  0.000000000E+00  0.000000000E+00  1.326116980E+02  1.326116980E+02  0.000000000E+00  0.00000E+00  9.000E+00
      21    -1     0     0   512   514  0.000000000E+00  0.000000000E+00 -1.693453167E+01  1.693453167E+01  0.000000000E+00  0.00000E+00  9.000E+00
      -3     1     1     2     0   511 -3.365191323E+00 -1.355748972E+01  8.088804446E+00  1.614957577E+01  5.000000000E-01  0.00000E+00  9.000E+00
       3     1     1     2   512     0  1.081081593E+00  6.898309951E+00 -1.184339052E+01  1.375759124E+01  5.000000000E-01  0.00000E+00  9.000E+00
      21     1     1     2   511   513  2.284109730E+00  6.659179769E+00  1.194317524E+02  1.196390627E+02  1.348699152E-06  0.00000E+00  9.000E+00
</event>
<event>
      5  10001  2.40292E+09  1.12444E+01 -1.00000E+00  1.89992E-01
      21    -1     0     0   515   512  0.000000000E+00  0.000000000E+00  2.971833242E+01  2.971833242E+01  0.000000000E+00  0.00000E+00  9.000E+00
      21    -1     0     0   511   513  0.000000000E+00  0.000000000E+00 -8.865427948E+01  8.865427948E+01  0.000000000E+00  0.00000E+00  9.000E+00
      21     1     1     2   515   513  1.008460679E+01  6.238650810E+00  2.676764593E+01  2.927673013E+01  4.768371582E-07  0.00000E+00  9.000E+00
      21     1     1     2   514   512 -2.509642251E-01 -6.391552108E+00 -7.169443140E+01  7.197920822E+01  1.348699152E-06  0.00000E+00  9.000E+00
      21     1     1     2   511   514 -9.833642567E+00  1.529012985E-01 -1.400916159E+01  1.711667355E+01  2.384185791E-07  0.00000E+00  9.000E+00
</event>
<event>
      5  10001  2.40292E+09  5.67008E+00 -1.00000E+00  2.29274E-01
       2    -1     0     0   513     0  0.000000000E+00  0.000000000E+00  1.554085250E+02  1.554085250E+02  0.000000000E+00  0.00000E+00  9.000E+00
      21    -1     0     0   514   512  0.000000000E+00  0.000000000E+00 -3.679052086E+00  3.679052086E+00  0.000000000E+00  0.00000E+00  9.000E+00
      21     1     1     2   514   516 -1.987423060E+01  3.179195051E-01  8.041240918E+01  8.283261232E+01  1.651812370E-06  0.00000E+00  9.000E+00
       2     1     1     2   516     0  1.687383397E+01  4.492824130E+00  6.668366144E+01  6.893280311E+01  3.300000131E-01  0.00000E+00  9.000E+00
      21     1     1     2   513   512  3.000396639E+00 -4.810743635E+00  4.633402279E+00  7.322161634E+00  2.064765462E-07  0.00000E+00  9.000E+00
</event>
<event>
      5  10001  2.40292E+09  1.95258E+01 -1.00000E+00  1.67191E-01
      21    -1     0     0   511   514  0.000000000E+00  0.000000000E+00  4.253925690E+02  4.253925690E+02  0.000000000E+00  0.00000E+00  9.000E+00
      21    -1     0     0   515   511  0.000000000E+00  0.000000000E+00 -7.230564504E-01  7.230564504E-01  0.000000000E+00  0.00000E+00  9.000E+00
      21     1     1     2   515   512 -1.089152560E+01 -4.775572521E+00  8.699634923E+01  8.780544517E+01  1.651812370E-06  0.00000E+00  9.000E+00
      21     1     1     2   516   514  1.861726522E+00  9.104582361E+00  1.014121653E+02  1.018370596E+02  1.348699152E-06  0.00000E+00  9.000E+00
      21     1     1     2   512   516  9.029799080E+00 -4.329009840E+00  2.362609981E+02  2.364731207E+02  0.000000000E+00  0.00000E+00  9.000E+00
</event>
<event>
      5  10001  2.40292E+09  8.71659E+00 -1.00000E+00  2.02853E-01
      21    -1     0     0   513   515  0.000000000E+00  0.000000000E+00  4.999691943E+01  4.999691943E+01  0.000000000E+00  0.00000E+00  9.000E+00
      21    -1     0     0   511   517  0.000000000E+00  0.000000000E+00 -9.383462947E+00  9.383462947E+00  0.000000000E+00  0.00000E+00  9.000E+00
      21     1     1     2   513   517  1.489819089E+01  2.329319160E+00  1.566083354E+01  2.174036629E+01  0.000000000E+00  0.00000E+00  9.000E+00
      21     1     1     2   512   515 -6.314477617E+00 -3.845512385E+00  2.756588254E+01  2.854012042E+01  0.000000000E+00  0.00000E+00  9.000E+00
      21     1     1     2   511   512 -8.583713270E+00  1.516193225E+00 -2.613259599E+00  9.099895665E+00  3.009887021E-07  0.00000E+00  9.000E+00
</event>
<event>
      5  10001  2.40292E+09  1.26744E+01 -1.00000E+00  1.84514E-01
      21    -1     0     0   514   512  0.000000000E+00  0.000000000E+00  7.519340387E+02  7.519340387E+02  0.000000000E+00  0.00000E+00  9.000E+00
      21    -1     0     0   511   513  0.000000000E+00  0.000000000E+00 -1.880730818E+01  1.880730818E+01  0.000000000E+00  0.00000E+00  9.000E+00
      21     1     1     2   511   516 -1.199663326E+01  3.213511015E+01  1.095371782E+02  1.147823067E+02  2.697398305E-06  0.00000E+00  9.000E+00
      21     1     1     2   516   512  1.316070910E+01 -1.951427233E+01  6.370418211E+02  6.374765038E+02  1.078959322E-05  0.00000E+00  9.000E+00
      21     1     1     2   514   513 -1.164075842E+00 -1.262083782E+01 -1.345226873E+01  1.848253645E+01  1.238859277E-06  0.00000E+00  9.000E+00
</event>
<event>
      5  10001  2.40292E+09  1.25446E+01 -1.00000E+00  1.84972E-01
      21    -1     0     0   512   513  0.000000000E+00  0.000000000E+00  2.749417277E+01  2.749417277E+01  0.000000000E+00  0.00000E+00  9.000E+00
      21    -1     0     0   511   517  0.000000000E+00  0.000000000E+00 -1.694140357E+02  1.694140357E+02  0.000000000E+00  0.00000E+00  9.000E+00
      21     1     1     2   515   517 -8.104930028E+00  4.578220229E+00 -1.175351679E+01  1.499317005E+01  7.152557373E-07  0.00000E+00  9.000E+00
      21     1     1     2   511   513  2.009797440E+01 -8.257063140E+00 -1.537098770E+02  1.552379913E+02  0.000000000E+00  0.00000E+00  9.000E+00
      21     1     1     2   512   515 -1.199304438E+01  3.678842911E+00  2.354353084E+01  2.667704711E+01  3.371747881E-07  0.00000E+00  9.000E+00
</event>
<event>
      5  10001  2.40292E+09  1.23624E+01 -1.00000E+00  1.85627E-01
      21    -1     0     0   514   511  0.000000000E+00  0.000000000E+00  1.001702147E+02  1.001702147E+02  0.000000000E+00  0.00000E+00  9.000E+00
      21    -1     0     0   516   515  0.000000000E+00  0.000000000E+00 -1.363525731E+01  1.363525731E+01  0.000000000E+00  0.00000E+00  9.000E+00
      21     1     1     2   514   515 -5.639739419E+00 -1.138706210E+01 -9.003820103E+00  1.557371569E+01  5.840038640E-07  0.00000E+00  9.000E+00
      21     1     1     2   516   513  1.192162993E+01  5.102763867E+00  7.000805115E+01  7.119895143E+01  1.348699152E-06  0.00000E+00  9.000E+00
      21     1     1     2   513   511 -6.281890506E+00  6.284298235E+00  2.553072639E+01  2.703280493E+01  0.000000000E+00  0.00000E+00  9.000E+00
</event>
<event>
      5  10001  2.40292E+09  1.13030E+01 -1.00000E+00  1.89748E-01
      21    -1     0     0   512   511  0.000000000E+00  0.000000000E+00  1.469148944E+01  1.469148944E+01  0.000000000E+00  0.00000E+00  9.000E+00
      -3    -1     0     0     0   512  0.000000000E+00  0.000000000E+00 -2.924840502E+01  2.924840502E+01  0.000000000E+00  0.00000E+00  9.000E+00
      -3     1     1     2     0   514 -2.671013461E+00 -6.582085809E+00 -1.577551631E+01  1.730823739E+01  5.000000000E-01  0.00000E+00  9.000E+00
      21     1     1     2   513   511  1.237754975E+01  8.541364548E+00  5.266315783E+00  1.593401168E+01  2.980232239E-07  0.00000E+00  9.000E+00
      21     1     1     2   514   513 -9.706536292E+00 -1.959278739E+00 -4.047715044E+00  1.069764540E+01  2.064765462E-07  0.00000E+00  9.000E+00
</event>
<event>
      5  10001  2.40292E+09  3.69645E+00 -1.00000E+00  2.71701E-01
      21    -1     0     0   515   512  0.000000000E+00  0.000000000E+00  9.643635633E+00  9.643635633E+00  0.000000000E+00  0.00000E+00  9.000E+00
       4    -1     0     0   513     0  0.000000000E+00  0.000000000E+00 -3.725886560E+01  3.725886560E+01  0.000000000E+00  0.00000E+00  9.000E+00
      21     1     1     2   513   511  6.673709182E+00 -8.656303803E+00 -1.995375271E+01  2.275131287E+01  4.768371582E-07  0.00000E+00  9.000E+00
       4     1     1     2   515     0 -9.351166424E+00  1.119395599E+01 -1.164313742E+01  1.872329066E+01  1.500000000E+00  0.00000E+00  9.000E+00
      21     1     1     2   511   512  2.677457242E+00 -2.537652189E+00  3.981660161E+00  5.427897710E+00  1.115100797E-07  0.00000E+00  9.000E+00
</event>
<event>
      5  10001  2.40292E+09  1.22603E+01 -1.00000E+00  1.86001E-01
      21    -1     0     0   514   513  0.000000000E+00  0.000000000E+00  3.710987566E+00  3.710987566E+00  0.000000000E+00  0.00000E+00  9.000E+00
      21    -1     0     0   511   512  0.000000000E+00  0.000000000E+00 -3.178222421E+01  3.178222421E+01  0.000000000E+00  0.00000E+00  9.000E+00
      21     1     1     2   514   512  4.125648591E+00 -7.131704310E+00 -8.878148749E+00  1.211213061E+01  0.000000000E+00  0.00000E+00  9.000E+00
      21     1     1     2   511   515 -3.268394083E+00  1.725613092E+00 -2.966498617E-01  3.707848644E+00  7.126899984E-08  0.00000E+00  9.000E+00
      21     1     1     2   515   513 -8.572545080E-01  5.406091219E+00 -1.889643803E+01  1.967323252E+01  3.371747881E-07  0.00000E+00  9.000E+00
</event>
<event>
      5  10001  2.40292E+09  5.99563E+00 -1.00000E+00  2.25442E-01
      21    -1     0     0   515   511  0.000000000E+00  0.000000000E+00  9.340188878E+00  9.340188878E+00  0.000000000E+00  0.00000E+00  9.000E+00
       2    -1     0     0   513     0  0.000000000E+00  0.000000000E+00 -1.554250873E+02  1.554250873E+02  0.000000000E+00  0.00000E+00  9.000E+00
      21     1     1     2   513   511  1.106917047E+01  6.070318739E+00  4.225120064E+00  1.331266105E+01  5.462855929E-07  0.00000E+00  9.000E+00
       2     1     1     2   512     0 -6.121400115E+00 -8.283004539E+00 -1.307532086E+02  1.311586450E+02  3.300000131E-01  0.00000E+00  9.000E+00
      21     1     1     2   515   512 -4.947770359E+00  2.212685801E+00 -1.955680984E+01  2.029397007E+01  4.129530925E-07  0.00000E+00  9.000E+00
</event>
<event>
      5  10001  2.40292E+09  5.95848E+00 -1.00000E+00  2.25862E-01
      21    -1     0     0   514   513  0.000000000E+00  0.000000000E+00  4.796834351E+01  4.796834351E+01  0.000000000E+00  0.00000E+00  9.000E+00
      21    -1     0     0   516   514  0.000000000E+00  0.000000000E+00 -2.087968609E+01  2.087968609E+01  0.000000000E+00  0.00000E+00  9.000E+00
      21     1     1     2   512   513  8.486383399E+00 -9.700147639E+00  4.400518753E+01  4.585376862E+01  0.000000000E+00  0.00000E+00  9.000E+00
      -2     1     1     2     0   512 -4.160553005E+00  3.500609192E+00 -1.375353767E+01  1.479301066E+01  3.300000131E-01  0.00000E+00  9.000E+00
       2     1     1     2   516     0 -4.325830394E+00  6.199538447E+00 -3.162992443E+00  8.201250317E+00  3.300000131E-01  0.00000E+00  9.000E+00
</event>
<event>
      5  10001  2.40292E+09  5.77858E+00 -1.00000E+00  2.27958E-01
      21    -1     0     0   511   513  0.000000000E+00  0.000000000E+00  6.655575439E+00  6.655575439E+00  0.000000000E+00  0.00000E+00  9.000E+00
      21    -1     0     0   515   511  0.000000000E+00  0.000000000E+00 -6.984760012E+02  6.984760012E+02  0.000000000E+00  0.00000E+00  9.000E+00
      21     1     1     2   515   516  1.605554951E+00  1.728174836E+01 -6.794102723E+02  6.796319259E+02  7.629394531E-06  0.00000E+00  9.000E+00
      21     1     1     2   512   513  3.218327213E+00 -1.367809077E+01 -3.063996564E+00  1.438178960E+01  6.265579474E-07  0.00000E+00  9.000E+00
      21     1     1     2   516   512 -4.823882163E+00 -3.603657594E+00 -9.346156934E+00  1.111786115E+01  2.064765462E-07  0.00000E+00  9.000E+00
</event>
<event>
      5  10001  2.40292E+09  1.62899E+01 -1.00000E+00  1.74028E-01
      21    -1     0     0   515   512  0.000000000E+00  0.000000000E+00  8.817256271E+01  8.817256271E+01  0.000000000E+00  0.00000E+00  9.000E+00
      -4    -1     0     0     0   514  0.000000000E+00  0.000000000E+00 -3.828777196E+00  3.828777196E+00  0.000000000E+00  0.00000E+00  9.000E+00
      -4     1     1     2     0   512  3.313383981E+00  1.721404508E+01  4.343126566E+01  4.685964893E+01  1.500000000E+00  0.00000E+00  9.000E+00
      21     1     1     2   515   511  4.169836647E-01 -2.342791382E+00  1.371850179E+01  1.392335585E+01  1.685873940E-07  0.00000E+00  9.000E+00
      21     1     1     2   511   514 -3.730367645E+00 -1.487125369E+01  2.719401807E+01  3.121833512E+01  6.743495762E-07  0.00000E+00  9.000E+00
</event>
<event>
      5  10001  2.40292E+09  6.91997E+00 -1.00000E+00  2.16190E-01
       2    -1     0     0   512     0  0.000000000E+00  0.000000000E+00  2.043901932E+02  2.043901932E+02  0.000000000E+00  0.00000E+00  9.000E+00
      21    -1     0     0   511   513  0.000000000E+00  0.000000000E+00 -1.388048071E+02  1.388048071E+02  0.000000000E+00  0.00000E+00  9.000E+00
      21     1     1     2   514   513  6.953374030E+00 -2.917715038E+00 -1.371718555E+02  1.373789664E+02  4.672030912E-06  0.00000E+00  9.000E+00
       2     1     1     2   511     0 -1.104331302E+01  8.499673787E+00  1.946861997E+02  1.951845908E+02  3.300000131E-01  0.00000E+00  9.000E+00
      21     1     1     2   512   514  4.089938986E+00 -5.581958748E+00  8.071041946E+00  1.063144310E+01  0.000000000E+00  0.00000E+00  9.000E+00
</event>
<event>
      5  10001  2.40292E+09  3.44402E+00 -1.00000E+00  2.79665E-01
      21    -1     0     0   515   511  0.000000000E+00  0.000000000E+00  9.520511525E-01  9.520511525E-01  0.000000000E+00  0.00000E+00  9.000E+00
      21    -1     0     0   516   515  0.000000000E+00  0.000000000E+00 -1.251168549E+02  1.251168549E+02  0.000000000E+00  0.00000E+00  9.000E+00
      21     1     1     2   516   514  7.594115844E+00  7.294840128E+00 -7.398773620E+01  7.473332855E+01  1.348699152E-06  0.00000E+00  9.000E+00
      21     1     1     2   514   513 -1.975803480E+00 -3.041608823E+00 -1.299524639E+01  1.349190914E+01  1.685873940E-07  0.00000E+00  9.000E+00
      21     1     1     2   513   511 -5.618312364E+00 -4.253231305E+00 -3.718182119E+01  3.784366839E+01  4.768371582E-07  0.00000E+00  9.000E+00
</event>
<event>
      5  10001  2.40292E+09  7.90316E+00 -1.00000E+00  2.08298E-01
      21    -1     0     0   513   511  0.000000000E+00  0.000000000E+00  4.078076674E+02  4.078076674E+02  0.000000000E+00  0.00000E+00  9.000E+00
      21    -1     0     0   512   513  0.000000000E+00  0.000000000E+00 -2.739425260E-01  2.739425260E-01  0.000000000E+00  0.00000E+00  9.000E+00
      -3     1     1     2     0   514 -4.042533038E+00  1.977527114E-01  1.956602434E+02  1.957027389E+02  5.000000000E-01  0.00000E+00  9.000E+00
       3     1     1     2   512     0  7.250407440E+00  4.788419600E+00  1.220277412E+02  1.223377170E+02  5.000000000E-01  0.00000E+00  9.000E+00
      21     1     1     2   514   511 -3.207874402E+00 -4.986172312E+00  8.984574025E+01  9.004115400E+01  1.348699152E-06  0.00000E+00  9.000E+00
</event>
<event>
      5  10001  2.40292E+09  1.06798E+01 -1.00000E+00  1.92456E-01
      21    -1     0     0   515   511  0.000000000E+00  0.000000000E+00  3.700452895E+00  3.700452895E+00  0.000000000E+00  0.00000E+00  9.000E+00
      21    -1     0     0   511   513  0.000000000E+00  0.000000000E+00 -7.835918613E+01  7.835918613E+01  0.000000000E+00  0.00000E+00  9.000E+00
      -3     1     1     2     0   513 -3.644879166E+00  8.515187810E+00 -5.385480954E+01  5.464781860E+01  5.000000000E-01  0.00000E+00  9.000E+00
      21     1     1     2   515   512  8.804362306E+00 -8.836888273E+00 -1.638219343E+01  2.059086330E+01  2.384185791E-07  0.00000E+00  9.000E+00
       3     1     1     2   512     0 -5.159483140E+00  3.217004622E-01 -4.421730260E+00  6.820957114E+00  5.000000000E-01  0.00000E+00  9.000E+00
</event>
<event>
      5  10001  2.40292E+09  6.54511E+00 -1.00000E+00  2.19688E-01
      21    -1     0     0   514   513  0.000000000E+00  0.000000000E+00  4.757648132E+01  4.757648132E+01  0.000000000E+00  0.00000E+00  9.000E+00
      21    -1     0     0   511   515  0.000000000E+00  0.000000000E+00 -1.080692305E+02  1.080692305E+02  0.000000000E+00  0.00000E+00  9.000E+00
      21     1     1     2   514   516 -8.786219809E+00  4.110976896E+00  4.786014342E-01  9.712201033E+00  2.866295585E-07  0.00000E+00  9.000E+00
      21     1     1     2   511   513  1.321533773E+01 -8.929837079E+00  4.087526151E+01  4.387680646E+01  4.768371582E-07  0.00000E+00  9.000E+00
      21     1     1     2   516   515 -4.429117921E+00  4.818860183E+00 -1.018466121E+02  1.020567043E+02  1.348699152E-06  0.00000E+00  9.000E+00
</event>
<event>
      5  10001  2.40292E+09  6.09526E+00 -1.00000E+00  2.24337E-01
      21    -1     0     0   512   513  0.000000000E+00  0.000000000E+00  1.543348813E+01  1.543348813E+01  0.000000000E+00  0.00000E+00  9.000E+00
      21    -1     0     0   517   514  0.000000000E+00  0.000000000E+00 -6.205782264E+01  6.205782264E+01  0.000000000E+00  0.00000E+00  9.000E+00
      21     1     1     2   511   513 -6.904393856E+00 -3.584972329E+00  1.224829704E+01  1.451011583E+01  2.920019320E-07  0.00000E+00  9.000E+00
      21     1     1     2   517   511  1.272330380E+01  5.399507045E+00 -5.195162626E+01  5.375880028E+01  0.000000000E+00  0.00000E+00  9.000E+00
      21     1     1     2   512   514 -5.818909943E+00 -1.814534716E+00 -6.921005285E+00  9.222394663E+00  1.685873940E-07  0.00000E+00  9.000E+00
</event>
<event>
      5  10001  2.40292E+09  1.05483E+01 -1.00000E+00  1.93058E-01
      21    -1     0     0   515   511  0.000000000E+00  0.000000000E+00  8.692413670E+00  8.692413670E+00  0.000000000E+00  0.00000E+00  9.000E+00
      21    -1     0     0   516   515  0.000000000E+00  0.000000000E+00 -1.224925073E+02  1.224925073E+02  0.000000000E+00  0.00000E+00  9.000E+00
      21     1     1     2   514   511 -1.153000941E+01  1.626450321E+01 -5.994828790E+00  2.081857713E+01  2.528810911E-07  0.00000E+00  9.000E+00
      21     1     1     2   516   513  8.946823891E+00 -4.572763893E+00 -6.980121345E+01  7.052067233E+01  1.348699152E-06  0.00000E+00  9.000E+00
      21     1     1     2   513   514  2.583185517E+00 -1.169173932E+01 -3.800405141E+01  3.984567153E+01  4.768371582E-07  0.00000E+00  9.000E+00
</event>
<event>
      5  10001  2.40292E+09  4.64276E+00 -1.00000E+00  2.49002E-01
      21    -1     0     0   513   514  0.000000000E+00  0.000000000E+00  7.032247665E+01  7.032247665E+01  0.000000000E+00  0.00000E+00  9.000E+00
      -2    -1     0     0     0   512  0.000000000E+00  0.000000000E+00 -7.110895334E+01  7.110895334E+01  0.000000000E+00  0.00000E+00  9.000E+00
      -2     1     1     2     0   514  2.964110667E+00  1.325930762E+01 -6.796294050E+01  6.930847980E+01  3.300000131E-01  0.00000E+00  9.000E+00
      21     1     1     2   511   512 -4.871064118E+00 -1.553732615E+01  6.720756823E+01  6.915195584E+01  0.000000000E+00  0.00000E+00  9.000E+00
      21     1     1     2   513   511  1.906953451E+00  2.278018535E+00 -3.110442210E-02  2.970994344E+00  4.779440927E-08  0.00000E+00  9.000E+00
</event>
<event>
      5  10001  2.40292E+09  3.57480E+00 -1.00000E+00  2.75408E-01
       1    -1     0     0   512     0  0.000000000E+00  0.000000000E+00  1.148595398E+01  1.148595398E+01  0.000000000E+00  0.00000E+00  9.000E+00
      21    -1     0     0   513   514  0.000000000E+00  0.000000000E+00 -7.933330913E+01  7.933330913E+01  0.000000000E+00  0.00000E+00  9.000E+00
      21     1     1     2   512   511  8.702270338E+00 -6.095371320E+00  3.909748860E+00  1.132118354E+01  2.149076030E-07  0.00000E+00  9.000E+00
       1     1     1     2   513     0 -6.907349487E+00  9.186601208E+00 -4.823620859E+00  1.246921557E+01  3.300000131E-01  0.00000E+00  9.000E+00
      21     1     1     2   511   514 -1.794920851E+00 -3.091229888E+00 -6.693348315E+01  6.702886400E+01  9.536743164E-07  0.00000E+00  9.000E+00
</event>
<event>
      5  10001  2.40292E+09  9.92673E+00 -1.00000E+00  1.96068E-01
      21    -1     0     0   515   514  0.000000000E+00  0.000000000E+00  3.020067728E+01  3.020067728E+01  0.000000000E+00  0.00000E+00  9.000E+00
      21    -1     0     0   516   515  0.000000000E+00  0.000000000E+00 -6.558274608E+00  6.558274608E+00  0.000000000E+00  0.00000E+00  9.000E+00
      21     1     1     2   513   514 -3.392152154E+00 -9.546790023E+00  1.615260571E+01  1.906710694E+01  4.129530925E-07  0.00000E+00  9.000E+00
      21     1     1     2   516   512 -2.930909382E+00  7.964691946E+00  1.088857734E+00  8.556410390E+00  5.372690075E-08  0.00000E+00  9.000E+00
      21     1     1     2   512   513  6.323061536E+00  1.582098077E+00  6.400939233E+00  9.135434559E+00  1.685873940E-07  0.00000E+00  9.000E+00
</event>
<event>
      5  10001  2.40292E+09  9.25783E+00 -1.00000E+00  1.99649E-01
       2    -1     0     0   513     0  0.000000000E+00  0.000000000E+00  1.114301331E+02  1.114301331E+02  0.000000000E+00  0.00000E+00  9.000E+00
      21    -1     0     0   512   513  0.000000000E+00  0.000000000E+00 -1.259166110E+01  1.259166110E+01  0.000000000E+00  0.00000E+00  9.000E+00
      21     1     1     2   512   511 -1.045309369E+01 -9.303059127E+00 -6.985066219E+00  1.563986020E+01  4.214684851E-07  0.00000E+00  9.000E+00
       2     1     1     2   514     0  5.142268528E+00  3.658024565E+00  9.419761275E+01  9.440933861E+01  3.300000131E-01  0.00000E+00  9.000E+00
      21     1     1     2   511   514  5.310825165E+00  5.645034562E+00  1.162592550E+01  1.397259543E+01  0.000000000E+00  0.00000E+00  9.000E+00
</event>
<event>
      5  10001  2.40292E+09  5.03366E+00 -1.00000E+00  2.37921E-01
      21    -1     0     0   513   512  0.000000000E+00  0.000000000E+00  1.632534693E+02  1.632534693E+02  0.000000000E+00  0.00000E+00  9.000E+00
      21    -1     0     0   511   516  0.000000000E+00  0.000000000E+00 -8.901665778E+00  8.901665778E+00  0.000000000E+00  0.00000E+00  9.000E+00
      21     1     1     2   515   516  1.560511286E+01 -1.018012749E+01  3.246717946E+00  1.891284538E+01  2.346637211E-07  0.00000E+00  9.000E+00
      21     1     1     2   511   512 -1.129856826E+01  7.574097359E+00  4.483318342E+01  4.685124258E+01  1.261592536E-06  0.00000E+00  9.000E+00
      21     1     1     2   513   515 -4.306544597E+00  2.606030131E+00  1.062719021E+02  1.063910471E+02  1.348699152E-06  0.00000E+00  9.000E+00
</event>
<event>
      5  10001  2.40292E+09  2.65139E+01 -1.00000E+00  1.56825E-01
      21    -1     0     0   514   511  0.000000000E+00  0.000000000E+00  9.699197302E-01  9.699197302E-01  0.000000000E+00  0.00000E+00  9.000E+00
       2    -1     0     0   512     0  0.000000000E+00  0.000000000E+00 -2.264571000E+02  2.264571000E+02  0.000000000E+00  0.00000E+00  9.000E+00
      21     1     1     2   512   511  5.044522978E+00 -5.940381840E+00 -1.421526707E+02  1.423661376E+02  2.697398305E-06  0.00000E+00  9.000E+00
      21     1     1     2   514   516  4.546523502E+00 -7.169645132E-01 -3.663212789E+01  3.692015314E+01  4.768371582E-07  0.00000E+00  9.000E+00
       2     1     1     2   516     0 -9.591046481E+00  6.657346353E+00 -4.670238169E+01  4.814072899E+01  3.300000131E-01  0.00000E+00  9.000E+00
</event>
<event>
      5  10001  2.40292E+09  7.05043E+00 -1.00000E+00  2.15043E-01
       1    -1     0     0   515     0  0.000000000E+00  0.000000000E+00  1.425470856E+02  1.425470856E+02  0.000000000E+00  0.00000E+00  9.000E+00
      21    -1     0     0   511   515  0.000000000E+00  0.000000000E+00 -4.021798393E+01  4.021798393E+01  0.000000000E+00  0.00000E+00  9.000E+00
      21     1     1     2   514   513 -1.155464005E+01 -1.119696708E+01 -4.397814762E+00  1.668000459E+01  5.870376707E-07  0.00000E+00  9.000E+00
       1     1     1     2   513     0  1.080547082E+01  4.186489629E+00  1.357366858E+02  1.362308397E+02  3.300000131E-01  0.00000E+00  9.000E+00
      21     1     1     2   511   514  7.491692275E-01  7.010477455E+00 -2.900976938E+01  2.985422529E+01  5.840038640E-07  0.00000E+00  9.000E+00
</event>
<event>
      5  10001  2.40292E+09  6.86644E+00 -1.00000E+00  2.16671E-01
      21    -1     0     0   512   513  0.000000000E+00  0.000000000E+00  9.173854302E+01  9.173854302E+01  0.000000000E+00  0.00000E+00  9.000E+00
      21    -1     0     0   511   514  0.000000000E+00  0.000000000E+00 -1.944906503E+00  1.944906503E+00  0.000000000E+00  0.00000E+00  9.000E+00
      21     1     1     2   512   514  1.012368501E+01 -1.522418891E+00  1.741862209E+01  2.020433500E+01  3.371747881E-07  0.00000E+00  9.000E+00
      21     1     1     2   515   513 -4.798798122E+00 -2.189223976E+00  4.667589724E+01  4.697297678E+01  6.743495762E-07  0.00000E+00  9.000E+00
      21     1     1     2   511   515 -5.324886890E+00  3.711642868E+00  2.569911719E+01  2.650613774E+01  3.371747881E-07  0.00000E+00  9.000E+00
</event>
<event>
      5  10001  2.40292E+09  5.04064E+00 -1.00000E+00  2.37816E-01
      21    -1     0     0   516   514  0.000000000E+00  0.000000000E+00  5.668145383E+00  5.668145383E+00  0.000000000E+00  0.00000E+00  9.000E+00
       2    -1     0     0   511     0  0.000000000E+00  0.000000000E+00 -7.004567945E+01  7.004567945E+01  0.000000000E+00  0.00000E+00  9.000E+00
      21     1     1     2   511   517  7.241166417E+00 -1.158093359E+01 -3.482126062E+01  3.740418031E+01  0.000000000E+00  0.00000E+00  9.000E+00
      21     1     1     2   517   514 -4.243562304E+00  7.529414195E+00 -3.289839682E-01  8.649169301E+00  1.472785875E-07  0.00000E+00  9.000E+00
       2     1     1     2   516     0 -2.997604113E+00  4.051519393E+00 -2.922728948E+01  2.966047522E+01  3.300000131E-01  0.00000E+00  9.000E+00
</event>
<event>
      5  10001  2.40292E+09  6.66034E+00 -1.00000E+00  2.18579E-01
       1    -1     0     0   512     0  0.000000000E+00  0.000000000E+00  4.222142887E+02  4.222142887E+02  0.000000000E+00  0.00000E+00  9.000E+00
       1    -1     0     0   514     0  0.000000000E+00  0.000000000E+00 -3.239917887E+02  3.239917887E+02  0.000000000E+00  0.00000E+00  9.000E+00
      21     1     1     2   514   513  6.908851672E+00  3.979666603E+00 -2.654475631E+00  8.403345678E+00  4.161667837E-07  0.00000E+00  9.000E+00
       1     1     1     2   512     0 -1.356743128E+01 -3.826494414E+00 -3.182802612E+02  3.185924525E+02  3.300000131E-01  0.00000E+00  9.000E+00
       1     1     1     2   513     0  6.658579608E+00 -1.531721889E-01  4.191572368E+02  4.192102792E+02  3.300000131E-01  0.00000E+00  9.000E+00
</event>
<event>
      5  10001  2.40292E+09  6.26303E+00 -1.00000E+00  2.22540E-01
      21    -1     0     0   511   514  0.000000000E+00  0.000000000E+00  8.571247416E+00  8.571247416E+00  0.000000000E+00  0.00000E+00  9.000E+00
      21    -1     0     0   513   515  0.000000000E+00  0.000000000E+00 -1.436984474E+01  1.436984474E+01  0.000000000E+00  0.00000E+00  9.000E+00
      21     1     1     2   511   515  1.456078233E+00 -8.757092708E+00  1.368410024E+00  8.982170256E+00  8.429369702E-08  0.00000E+00  9.000E+00
      21     1     1     2   512   514 -1.663486360E+00  4.626129483E+00 -8.321038984E+00  9.664778872E+00  1.192092896E-07  0.00000E+00  9.000E+00
      21     1     1     2   513   512  2.074081276E-01  4.130963224E+00  1.154031640E+00  4.294143025E+00  7.884953353E-08  0.00000E+00  9.000E+00
</event>
<event>
      5  10001  2.40292E+09  7.20936E+01 -1.00000E+00  1.30550E-01
      21    -1     0     0   516   512  0.000000000E+00  0.000000000E+00  1.365634743E+02  1.365634743E+02  0.000000000E+00  0.00000E+00  9.000E+00
      21    -1     0     0   512   511  0.000000000E+00  0.000000000E+00 -1.317915075E+01  1.317915075E+01  0.000000000E+00  0.00000E+00  9.000E+00
      21     1     1     2   514   511  1.006979370E+01 -6.757113138E+00 -7.361684622E+00  1.418639220E+01  5.331201500E-07  0.00000E+00  9.000E+00
       4     1     1     2   516     0  1.062031628E+01 -3.655269936E+00  2.769328784E+01  2.992190348E+01  1.500000000E+00  0.00000E+00  9.000E+00
      -4     1     1     2     0   514 -2.069010999E+01  1.041238307E+01  1.030527203E+02  1.056343294E+02  1.500000000E+00  0.00000E+00  9.000E+00
</event>
<event>
      5  10001  2.40292E+09  1.12246E+01 -1.00000E+00  1.90076E-01
      21    -1     0     0   513   512  0.000000000E+00  0.000000000E+00  1.584435426E+00  1.584435426E+00  0.000000000E+00  0.00000E+00  9.000E+00
       2    -1     0     0   515     0  0.000000000E+00  0.000000000E+00 -3.183006009E+02  3.183006009E+02  0.000000000E+00  0.00000E+00  9.000E+00
       4     1     1     2   515     0  4.950078290E+00 -3.091507426E-01 -6.449531547E+00  8.273167860E+00  1.500000000E+00  0.00000E+00  9.000E+00
       2     1     1     2   513     0 -4.701971434E+00  9.720848538E+00 -2.706020975E+02  2.708176647E+02  3.300000131E-01  0.00000E+00  9.000E+00
      -4     1     1     2     0   512 -2.481068566E-01 -9.411697795E+00 -3.966453636E+01  4.079420372E+01  1.500000000E+00  0.00000E+00  9.000E+00
</event>
<event>
      5  10001  2.40292E+09  2.50712E+00 -1.00000E+00  3.22550E-01
      21    -1     0     0   511   515  0.000000000E+00  0.000000000E+00  3.748705106E+01  3.748705106E+01  0.000000000E+00  0.00000E+00  9.000E+00
      21    -1     0     0   513   512  0.000000000E+00  0.000000000E+00 -7.361956710E+01  7.361956710E+01  0.000000000E+00  0.00000E+00  9.000E+00
      21     1     1     2   511   512  2.097978476E+00 -2.105446312E+01 -5.438739734E+01  5.835821211E+01  6.743495762E-07  0.00000E+00  9.000E+00
      21     1     1     2   514   515 -2.991874885E+00  2.339681633E+01  3.145270248E+01  3.931456248E+01  3.371747881E-07  0.00000E+00  9.000E+00
      21     1     1     2   513   514  8.938964083E-01 -2.342353203E+00 -1.319782118E+01  1.343384357E+01  2.384185791E-07  0.00000E+00  9.000E+00
</event>
<event>
      5  10001  2.40292E+09  1.03878E+01 -1.00000E+00  1.93809E-01
       1    -1     0     0   512     0  0.000000000E+00  0.000000000E+00  1.517789777E+03  1.517789777E+03  0.000000000E+00  0.00000E+00  9.000E+00
      21    -1     0     0   516   511  0.000000000E+00  0.000000000E+00 -1.263773079E+01  1.263773079E+01  0.000000000E+00  0.00000E+00  9.000E+00
      21     1     1     2   512   514  1.079209925E+01 -8.109030159E+00  1.023761530E+02  1.032622994E+02  6.180515955E-06  0.00000E+00  9.000E+00
       1     1     1     2   516     0 -1.125192101E+01 -2.268614847E+00  1.412730799E+03  1.412777467E+03  3.300000131E-01  0.00000E+00  9.000E+00
      21     1     1     2   514   511  4.598217555E-01  1.037764501E+01 -9.954905715E+00  1.438774130E+01  1.267212130E-06  0.00000E+00  9.000E+00
</event>
<event>
      5  10001  2.40292E+09  1.07713E+01 -1.00000E+00  1.92043E-01
      21    -1     0     0   513   515  0.000000000E+00  0.000000000E+00  3.758121615E+01  3.758121615E+01  0.000000000E+00  0.00000E+00  9.000E+00
       2    -1     0     0   512     0  0.000000000E+00  0.000000000E+00 -2.650762536E+02  2.650762536E+02  0.000000000E+00  0.00000E+00  9.000E+00
      21     1     1     2   514   515  7.412161863E+00 -4.138438664E+00  3.610894523E+01  3.709343262E+01  9.536743164E-07  0.00000E+00  9.000E+00
       2     1     1     2   513     0 -8.847419860E+00  1.481360498E+01 -9.085064048E+01  9.247522645E+01  3.300000131E-01  0.00000E+00  9.000E+00
      21     1     1     2   512   514  1.435257998E+00 -1.067516631E+01 -1.727533422E+02  1.730888106E+02  3.303624740E-06  0.00000E+00  9.000E+00
</event>
<event>
      5  10001  2.40292E+09  2.89213E+00 -1.00000E+00  3.01634E-01
      21    -1     0     0   513   515  0.000000000E+00  0.000000000E+00  1.329091302E+01  1.329091302E+01  0.000000000E+00  0.00000E+00  9.000E+00
      21    -1     0     0   512   511  0.000000000E+00  0.000000000E+00 -3.822923414E+01  3.822923414E+01  0.000000000E+00  0.00000E+00  9.000E+00
      21     1     1     2   512   514 -8.609443491E+00  3.226887954E+00 -3.084811077E+01  3.218914819E+01  6.743495762E-07  0.00000E+00  9.000E+00
      21     1     1     2   514   515  1.082055895E+01 -5.091126792E+00 -8.397984686E-01  1.198788261E+01  2.580956828E-08  0.00000E+00  9.000E+00
      21     1     1     2   513   511 -2.211115464E+00  1.864238838E+00  6.749588119E+00  7.343116356E+00  8.429369702E-08  0.00000E+00  9.000E+00
</event>
<event>
      5  10001  2.40292E+09  4.63098E+00 -1.00000E+00  2.49233E-01
      21    -1     0     0   516   511  0.000000000E+00  0.000000000E+00  2.091350465E+01  2.091350465E+01  0.000000000E+00  0.00000E+00  9.000E+00
      21    -1     0     0   512   514  0.000000000E+00  0.000000000E+00 -2.240922260E+01  2.240922260E+01  0.000000000E+00  0.00000E+00  9.000E+00
      21     1     1     2   516   517  1.094799925E+01  2.686386616E+00  1.096468859E+01  1.572576728E+01  2.064765462E-07  0.00000E+00  9.000E+00
      21     1     1     2   512   511 -1.491868722E+01 -3.031869974E-01 -6.780287659E-01  1.493716418E+01  3.742387401E-07  0.00000E+00  9.000E+00
      21     1     1     2   517   514  3.970687973E+00 -2.383199618E+00 -1.178237778E+01  1.265979579E+01  0.000000000E+00  0.00000E+00  9.000E+00
</event>
<event>
      5  10001  2.40292E+09  1.19029E+01 -1.00000E+00  1.87347E-01
      21    -1     0     0   511   512  0.000000000E+00  0.000000000E+00  6.709836557E+01  6.709836557E+01  0.000000000E+00  0.00000E+00  9.000E+00
      21    -1     0     0   515   513  0.000000000E+00  0.000000000E+00 -2.187213678E+01  2.187213678E+01  0.000000000E+00  0.00000E+00  9.000E+00
      21     1     1     2   515   514 -2.319486976E+01  2.014451644E+00 -1.094569197E+01  2.572679870E+01  6.743495762E-07  0.00000E+00  9.000E+00
      21     1     1     2   514   512  1.493718665E+01  6.558128421E+00  2.474847643E+01  2.964145204E+01  6.743495762E-07  0.00000E+00  9.000E+00
      21     1     1     2   511   513  8.257683109E+00 -8.572580064E+00  3.142344434E+01  3.360225161E+01  4.768371582E-07  0.00000E+00  9.000E+00
</event>
<event>
      5  10001  2.40292E+09  7.97877E+00 -1.00000E+00  2.07755E-01
      21    -1     0     0   516   512  0.000000000E+00  0.000000000E+00  2.177486850E+02  2.177486850E+02  0.000000000E+00  0.00000E+00  9.000E+00
      21    -1     0     0   517   516  0.000000000E+00  0.000000000E+00 -1.406560339E+00  1.406560339E+00  0.000000000E+00  0.00000E+00  9.000E+00
      21     1     1     2   513   512  7.503623464E+00  7.087069857E+00  1.855358908E+02  1.858227589E+02  2.697398305E-06  0.00000E+00  9.000E+00
      -3     1     1     2     0   513 -6.234392071E+00 -4.194072069E+00  2.825454651E+01  2.924084957E+01  5.000000000E-01  0.00000E+00  9.000E+00
       3     1     1     2   517     0 -1.269231392E+00 -2.892997788E+00  2.551687355E+00  4.091636945E+00  5.000000000E-01  0.00000E+00  9.000E+00
</event>
<event>
      5  10001  2.40292E+09  9.91599E+00 -1.00000E+00  1.96123E-01
      21    -1     0     0   511   514  0.000000000E+00  0.000000000E+00  6.108797655E+01  6.108797655E+01  0.000000000E+00  0.00000E+00  9.000E+00
       2    -1     0     0   512     0  0.000000000E+00  0.000000000E+00 -9.839166580E+02  9.839166580E+02  0.000000000E+00  0.00000E+00  9.000E+00
      21     1     1     2   513   514 -5.327482401E+00 -1.308660834E+00  5.958119254E+01  5.983321123E+01  3.303624740E-06  0.00000E+00  9.000E+00
       2     1     1     2   511     0  1.074484050E+01  7.248812040E+00 -9.716666560E+02  9.717531560E+02  3.300000131E-01  0.00000E+00  9.000E+00
      21     1     1     2   512   513 -5.417358103E+00 -5.940151206E+00 -1.074321792E+01  1.341826727E+01  1.685873940E-07  0.00000E+00  9.000E+00
</event>
<event>
      5  10001  2.40292E+09  5.80362E+00 -1.00000E+00  2.27660E-01
      21    -1     0     0   515   514  0.000000000E+00  0.000000000E+00  1.486502961E+02  1.486502961E+02  0.000000000E+00  0.00000E+00  9.000E+00
      21    -1     0     0   512   513  0.000000000E+00  0.000000000E+00 -9.297454508E+00  9.297454508E+00  0.000000000E+00  0.00000E+00  9.000E+00
      21     1     1     2   515   513  5.936777337E+00 -8.481055512E+00  1.417701025E+02  1.421475839E+02  1.907348633E-06  0.00000E+00  9.000E+00
      21     1     1     2   511   514 -7.790484435E-01  5.694862454E+00 -6.484452417E+00  8.665246563E+00  4.842304232E-07  0.00000E+00  9.000E+00
      21     1     1     2   512   511 -5.157728894E+00  2.786193059E+00  4.067191428E+00  7.134920127E+00  1.788139343E-07  0.00000E+00  9.000E+00
</event>
<event>
      5  10001  2.40292E+09  5.91520E+00 -1.00000E+00  2.26357E-01
       1    -1     0     0   512     0  0.000000000E+00  0.000000000E+00  3.463374201E+02  3.463374201E+02  0.000000000E+00  0.00000E+00  9.000E+00
      21    -1     0     0   516   511  0.000000000E+00  0.000000000E+00 -1.621747952E+00  1.621747952E+00  0.000000000E+00  0.00000E+00  9.000E+00
      21     1     1     2   512   511  2.114418784E+00 -1.152785526E+01  2.316390388E+01  2.596013591E+01  3.371747881E-07  0.00000E+00  9.000E+00
       1     1     1     2   513     0  1.063050339E+00  7.968049314E+00  2.877158365E+02  2.878283018E+02  3.300000131E-01  0.00000E+00  9.000E+00
      21     1     1     2   516   513 -3.177469123E+00  3.559805944E+00  3.383593185E+01  3.417073035E+01  4.768371582E-07  0.00000E+00  9.000E+00
</event>
<event>
      5  10001  2.40292E+09  7.78173E+00 -1.00000E+00  2.09187E-01
      21    -1     0     0   514   516  0.000000000E+00  0.000000000E+00  1.885569156E+01  1.885569156E+01  0.000000000E+00  0.00000E+00  9.000E+00
       4    -1     0     0   515     0  0.000000000E+00  0.000000000E+00 -3.028078900E+01  3.028078900E+01  0.000000000E+00  0.00000E+00  9.000E+00
      21     1     1     2   513   516  6.932207784E+00  6.196194031E+00  5.816515722E+00  1.096723212E+01  2.384185791E-07  0.00000E+00  9.000E+00
      21     1     1     2   515   513 -9.573970696E+00 -1.350447911E+01  2.646551366E+00  1.676413151E+01  1.576990671E-07  0.00000E+00  9.000E+00
       4     1     1     2   514     0  2.641762912E+00  7.308285083E+00 -1.988816453E+01  2.140511692E+01  1.500000000E+00  0.00000E+00  9.000E+00
</event>
<event>
      5  10001  2.40292E+09  5.95151E+00 -1.00000E+00  2.25942E-01
      21    -1     0     0   515   513  0.000000000E+00  0.000000000E+00  5.555574519E+00  5.555574519E+00  0.000000000E+00  0.00000E+00  9.000E+00
       2    -1     0     0   513     0  0.000000000E+00  0.000000000E+00 -1.089809745E+02  1.089809745E+02  0.000000000E+00  0.00000E+00  9.000E+00
      21     1     1     2   512   511  1.998448401E+00  1.211767946E+01 -7.775718317E+00  1.453594672E+01  2.230201594E-07  0.00000E+00  9.000E+00
       2     1     1     2   511     0 -6.200983957E+00 -7.903931979E+00 -9.290464420E+01  9.344680923E+01  3.300000131E-01  0.00000E+00  9.000E+00
      21     1     1     2   515   512  4.202535556E+00 -4.213747485E+00 -2.745037479E+00  6.553793079E+00  1.519626234E-07  0.00000E+00  9.000E+00
</event>
<event>
      5  10001  2.40292E+09  3.98911E+01 -1.00000E+00  1.44882E-01
      -1    -1     0     0     0   512  0.000000000E+00  0.000000000E+00  3.569852458E+01  3.569852458E+01  0.000000000E+00  0.00000E+00  9.000E+00
      21    -1     0     0   512   514  0.000000000E+00  0.000000000E+00 -2.046154766E+01  2.046154766E+01  0.000000000E+00  0.00000E+00  9.000E+00
      -1     1     1     2     0   511  7.995132237E-01 -1.217530078E+01  2.872698754E+01  3.121259174E+01  3.300000131E-01  0.00000E+00  9.000E+00
      21     1     1     2   513   514 -7.017268420E+00 -2.866675482E-01 -3.844823322E+00  8.006678509E+00  2.980232239E-07  0.00000E+00  9.000E+00
      21     1     1     2   511   513  6.217755197E+00  1.246196832E+01 -9.645187287E+00  1.694080199E+01  0.000000000E+00  0.00000E+00  9.000E+00
</event>
<event>
      5  10001  2.40292E+09  6.84921E+00 -1.00000E+00  2.16827E-01
      -3    -1     0     0     0   515  0.000000000E+00  0.000000000E+00  1.105245296E+01  1.105245296E+01  0.000000000E+00  0.00000E+00  9.000E+00
      21    -1     0     0   516   513  0.000000000E+00  0.000000000E+00 -1.080804127E+02  1.080804127E+02  0.000000000E+00  0.00000E+00  9.000E+00
      -3     1     1     2     0   512  1.679250099E+01  1.076455453E+01  7.528694999E-02  1.995292940E+01  5.000000000E-01  0.00000E+00  9.000E+00
      21     1     1     2   516   515 -1.436243398E+01 -9.817784403E+00 -8.834237460E+01  9.003912233E+01  1.348699152E-06  0.00000E+00  9.000E+00
      21     1     1     2   512   513 -2.430067004E+00 -9.467701244E-01 -8.760872096E+00  9.140813924E+00  1.192092896E-07  0.00000E+00  9.000E+00
</event>
<event>
      5  10001  2.40292E+09  5.13789E+00 -1.00000E+00  2.36383E-01
      21    -1     0     0   511   515  0.000000000E+00  0.000000000E+00  1.180694664E+01  1.180694664E+01  0.000000000E+00  0.00000E+00  9.000E+00
      21    -1     0     0   514   511  0.000000000E+00  0.000000000E+00 -7.788159259E+01  7.788159259E+01  0.000000000E+00  0.00000E+00  9.000E+00
      21     1     1     2   514   513 -7.842068011E+00 -4.448984773E+00 -4.029500061E+01  4.129138615E+01  1.261592536E-06  0.00000E+00  9.000E+00
      21     1     1     2   513   512  1.206572723E+01  1.523468835E+00 -3.543281830E+01  3.746181180E+01  0.000000000E+00  0.00000E+00  9.000E+00
      21     1     1     2   512   515 -4.223659215E+00  2.925515938E+00  9.653172960E+00  1.093534128E+01  1.685873940E-07  0.00000E+00  9.000E+00
</event>
<event>
      5  10001  2.40292E+09  6.53265E+00 -1.00000E+00  2.19810E-01
      -2    -1     0     0     0   515  0.000000000E+00  0.000000000E+00  3.765414337E+01  3.765414337E+01  0.000000000E+00  0.00000E+00  9.000E+00
      21    -1     0     0   515   511  0.000000000E+00  0.000000000E+00 -1.775765638E+01  1.775765638E+01  0.000000000E+00  0.00000E+00  9.000E+00
      -2     1     1     2     0   512  4.326530072E-01  1.568908555E+01  2.958343703E+01  3.349064407E+01  3.300000131E-01  0.00000E+00  9.000E+00
       1     1     1     2   512     0  1.414382781E+00 -9.613741253E+00 -1.173633524E+01  1.524056968E+01  3.300000131E-01  0.00000E+00  9.000E+00
      -1     1     1     2     0   511 -1.847035788E+00 -6.075344298E+00  2.049385203E+00  6.680585997E+00  3.300000131E-01  0.00000E+00  9.000E+00
</event>
<event>
      5  10001  2.40292E+09  4.32043E+00 -1.00000E+00  2.55724E-01
      21    -1     0     0   513   514  0.000000000E+00  0.000000000E+00  5.922602381E+02  5.922602381E+02  0.000000000E+00  0.00000E+00  9.000E+00
       3    -1     0     0   512     0  0.000000000E+00  0.000000000E+00 -5.671854311E+00  5.671854311E+00  0.000000000E+00  0.00000E+00  9.000E+00
      21     1     1     2   512   514  1.440314803E+00 -1.435770934E+01  5.809231720E+02  5.811023577E+02  0.000000000E+00  0.00000E+00  9.000E+00
       3     1     1     2   515     0 -2.547714364E+00  7.515582283E+00  1.183124418E-01  7.952284160E+00  5.000000000E-01  0.00000E+00  9.000E+00
      21     1     1     2   513   515  1.107399561E+00  6.842127061E+00  5.546899358E+00  8.877450591E+00  3.209808354E-07  0.00000E+00  9.000E+00
</event>
<event>
      5  10001  2.40292E+09  1.34891E+01 -1.00000E+00  1.81790E-01
      21    -1     0     0   511   514  0.000000000E+00  0.000000000E+00  5.848951016E+01  5.848951016E+01  0.000000000E+00  0.00000E+00  9.000E+00
      21    -1     0     0   512   516  0.000000000E+00  0.000000000E+00 -1.207300301E+01  1.207300301E+01  0.000000000E+00  0.00000E+00  9.000E+00
      21     1     1     2   511   516 -3.354273283E+00 -1.499562280E+01 -2.074588719E+00  1.550560449E+01  2.546311541E-07  0.00000E+00  9.000E+00
      21     1     1     2   517   514  3.901016287E+00  7.008221579E+00  4.596820531E+01  4.666271527E+01  0.000000000E+00  0.00000E+00  9.000E+00
      21     1     1     2   512   517 -5.467430043E-01  7.987401219E+00  2.522890565E+00  8.394193407E+00  6.664001875E-08  0.00000E+00  9.000E+00
</event>
<event>
      5  10001  2.40292E+09  1.85287E+01 -1.00000E+00  1.69111E-01
      21    -1     0     0   513   514  0.000000000E+00  0.000000000E+00  3.539777048E+02  3.539777048E+02  0.000000000E+00  0.00000E+00  9.000E+00
      21    -1     0     0   514   511  0.000000000E+00  0.000000000E+00 -4.686758965E-01  4.686758965E-01  0.000000000E+00  0.00000E+00  9.000E+00
      21     1     1     2   515   511 -2.558609606E+00  8.158232193E+00  1.555898964E+02  1.558246421E+02  1.907348633E-06  0.00000E+00  9.000E+00
       1     1     1     2   513     0  6.741534026E+00  7.894979551E-01  7.676803881E+01  7.706823127E+01  3.300000131E-01  0.00000E+00  9.000E+00
      -1     1     1     2     0   515 -4.182924420E+00 -8.947730148E+00  1.211510937E+02  1.215535073E+02  3.300000131E-01  0.00000E+00  9.000E+00
</event>
<event>
      5  10001  2.40292E+09  1.75861E+00 -1.00000E+00  3.91068E-01
       2    -1     0     0   512     0  0.000000000E+00  0.000000000E+00  7.815339957E+02  7.815339957E+02  0.000000000E+00  0.00000E+00  9.000E+00
      21    -1     0     0   514   515  0.000000000E+00  0.000000000E+00 -1.942101840E+01  1.942101840E+01  0.000000000E+00  0.00000E+00  9.000E+00
      21     1     1     2   512   515 -6.575357225E+00 -6.499233394E+00 -1.600400468E+01  1.848251939E+01  2.384185791E-07  0.00000E+00  9.000E+00
      21     1     1     2   514   511  7.733046014E+00  7.823041424E+00  1.172039267E+01  1.607381666E+01  3.371747881E-07  0.00000E+00  9.000E+00
       2     1     1     2   511     0 -1.157688789E+00 -1.323808029E+00  7.663965893E+02  7.663986780E+02  3.300000131E-01  0.00000E+00  9.000E+00
</event>
<event>
      5  10001  2.40292E+09  5.20187E+00 -1.00000E+00  2.35465E-01
      21    -1     0     0   513   514  0.000000000E+00  0.000000000E+00  2.185322702E+00  2.185322702E+00  0.000000000E+00  0.00000E+00  9.000E+00
      21    -1     0     0   517   512  0.000000000E+00  0.000000000E+00 -1.887537882E+02  1.887537882E+02  0.000000000E+00  0.00000E+00  9.000E+00
      21     1     1     2   513   516 -1.796039478E+00  1.123771961E+01 -1.722124571E+01  2.064178780E+01  3.371747881E-07  0.00000E+00  9.000E+00
      21     1     1     2   517   514 -3.221584067E+00 -9.865521141E+00 -6.524774237E+01  6.606795740E+01  1.348699152E-06  0.00000E+00  9.000E+00
      21     1     1     2   516   512  5.017623545E+00 -1.372198468E+00 -1.040994774E+02  1.042293657E+02  1.348699152E-06  0.00000E+00  9.000E+00
</event>
<event>
      5  10001  2.40292E+09  1.35627E+01 -1.00000E+00  1.81556E-01
      21    -1     0     0   511   512  0.000000000E+00  0.000000000E+00  1.909977951E+01  1.909977951E+01  0.000000000E+00  0.00000E+00  9.000E+00
      -2    -1     0     0     0   511  0.000000000E+00  0.000000000E+00 -7.389989316E+01  7.389989316E+01  0.000000000E+00  0.00000E+00  9.000E+00
      -2     1     1     2     0   513  1.798054637E+01  1.605192508E+01 -5.973441686E+01  6.441485701E+01  3.300000131E-01  0.00000E+00  9.000E+00
      21     1     1     2   513   514 -1.522832386E+01 -1.009475563E+01 -2.754016243E+00  1.847675686E+01  3.264680848E-07  0.00000E+00  9.000E+00
      21     1     1     2   514   512 -2.752222518E+00 -5.957169452E+00  7.688319447E+00  1.010805879E+01  3.769728732E-07  0.00000E+00  9.000E+00
</event>
<event>
      5  10001  2.40292E+09  4.38165E+00 -1.00000E+00  2.54380E-01
      21    -1     0     0   511   513  0.000000000E+00  0.000000000E+00  1.085024818E+02  1.085024818E+02  0.000000000E+00  0.00000E+00  9.000E+00
      21    -1     0     0   512   515  0.000000000E+00  0.000000000E+00 -7.039266581E+00  7.039266581E+00  0.000000000E+00  0.00000E+00  9.000E+00
      21     1     1     2   512   516 -1.207202303E+01 -8.058686431E+00  8.834454456E+00  1.699187313E+01  1.685873940E-07  0.00000E+00  9.000E+00
      21     1     1     2   516   513  1.645262305E+01  7.962849263E+00  2.602676168E+01  3.180390066E+01  3.371747881E-07  0.00000E+00  9.000E+00
      21     1     1     2   511   515 -4.380600021E+00  9.583716744E-02  6.660199912E+01  6.674597462E+01  9.536743164E-07  0.00000E+00  9.000E+00
</event>
<event>
      5  10001  2.40292E+09  5.37864E+00 -1.00000E+00  2.33023E-01
      21    -1     0     0   513   512  0.000000000E+00  0.000000000E+00  4.850943153E+00  4.850943153E+00  0.000000000E+00  0.00000E+00  9.000E+00
      21    -1     0     0   517   514  0.000000000E+00  0.000000000E+00 -8.332526242E+01  8.332526242E+01  0.000000000E+00  0.00000E+00  9.000E+00
      21     1     1     2   515   512  9.945487882E+00 -9.859448603E+00 -3.198214880E+01  3.491388402E+01  5.840038640E-07  0.00000E+00  9.000E+00
      21     1     1     2   517   515 -4.619907214E+00  1.061309074E+01 -4.646351530E+01  4.788360358E+01  0.000000000E+00  0.00000E+00  9.000E+00
      21     1     1     2   513   514 -5.325580668E+00 -7.536421396E-01 -2.865517487E-02  5.378717974E+00  1.386564641E-07  0.00000E+00  9.000E+00
</event>
<event>
      5  10001  2.40292E+09  1.28537E+01 -1.00000E+00  1.83892E-01
      21    -1     0     0   511   514  0.000000000E+00  0.000000000E+00  2.185044498E+01  2.185044498E+01  0.000000000E+00  0.00000E+00  9.000E+00
      21    -1     0     0   512   516  0.000000000E+00  0.000000000E+00 -6.787746878E+00  6.787746878E+00  0.000000000E+00  0.00000E+00  9.000E+00
      21     1     1     2   511   516 -7.150892392E+00 -7.029626313E+00  4.699741349E+00  1.107422579E+01  1.332800375E-07  0.00000E+00  9.000E+00
      21     1     1     2   515   514  5.621383688E-01  3.887831241E+00 -1.004492367E+00  4.054656116E+00  1.467594177E-07  0.00000E+00  9.000E+00
      21     1     1     2   512   515  6.588754023E+00  3.141795073E+00  1.136744912E+01  1.350930995E+01  0.000000000E+00  0.00000E+00  9.000E+00
</event>
<event>
      5  10001  2.40292E+09  9.32352E+00 -1.00000E+00  1.99280E-01
      21    -1     0     0   513   514  0.000000000E+00  0.000000000E+00  2.012817237E+01  2.012817237E+01  0.000000000E+00  0.00000E+00  9.000E+00
      21    -1     0     0   512   513  0.000000000E+00  0.000000000E+00 -3.845138117E+01  3.845138117E+01  0.000000000E+00  0.00000E+00  9.000E+00
      21     1     1     2   515   514 -1.365814490E+01  1.221550436E+01  1.197099944E+01  2.188762885E+01  3.371747881E-07  0.00000E+00  9.000E+00
      21     1     1     2   511   515  7.183217965E+00 -2.204783368E+00 -1.828990294E+01  1.977322026E+01  3.371747881E-07  0.00000E+00  9.000E+00
      21     1     1     2   512   511  6.474926932E+00 -1.001072100E+01 -1.200430530E+01  1.691870443E+01  2.384185791E-07  0.00000E+00  9.000E+00
</event>
<event>
      5  10001  2.40292E+09  2.70069E+00 -1.00000E+00  3.11289E-01
      21    -1     0     0   512   513  0.000000000E+00  0.000000000E+00  4.417014919E+00  4.417014919E+00  0.000000000E+00  0.00000E+00  9.000E+00
       2    -1     0     0   514     0  0.000000000E+00  0.000000000E+00 -3.758070277E+02  3.758070277E+02  0.000000000E+00  0.00000E+00  9.000E+00
      21     1     1     2   514   511 -7.986173298E+00  3.880572610E+00 -6.135671841E+01  6.199584423E+01  1.507891493E-06  0.00000E+00  9.000E+00
       2     1     1     2   512     0  1.065994282E+01 -4.260564958E+00 -3.135689092E+02  3.137791524E+02  3.300000131E-01  0.00000E+00  9.000E+00
      21     1     1     2   511   513 -2.673769518E+00  3.799923475E-01  3.535614825E+00  4.449045944E+00  8.429369702E-08  0.00000E+00  9.000E+00
</event>
<event>
      5  10001  2.40292E+09  5.58279E+00 -1.00000E+00  2.30363E-01
      21    -1     0     0   515   511  0.000000000E+00  0.000000000E+00  1.173409512E+01  1.173409512E+01  0.000000000E+00  0.00000E+00  9.000E+00
      21    -1     0     0   512   515  0.000000000E+00  0.000000000E+00 -1.086905952E+02  1.086905952E+02  0.000000000E+00  0.00000E+00  9.000E+00
      21     1     1     2   513   514  7.435776679E+00  1.329219132E+01 -6.139881663E+01  6.325968549E+01  6.743495762E-07  0.00000E+00  9.000E+00
      21     1     1     2   514   511 -2.362845345E+00 -1.096132428E+01  7.665454876E+00  1.358281511E+01  6.019774043E-07  0.00000E+00  9.000E+00
      21     1     1     2   512   513 -5.072931335E+00 -2.330867044E+00 -4.322313836E+01  4.358218975E+01  8.259061849E-07  0.00000E+00  9.000E+00
</event>
<event>
      5  10001  2.40292E+09  1.65857E+01 -1.00000E+00  1.73323E-01
      21    -1     0     0   516   514  0.000000000E+00  0.000000000E+00  1.747969734E+00  1.747969734E+00  0.000000000E+00  0.00000E+00  9.000E+00
      21    -1     0     0   512   513  0.000000000E+00  0.000000000E+00 -1.773873834E+02  1.773873834E+02  0.000000000E+00  0.00000E+00  9.000E+00
      21     1     1     2   516   513 -9.534336869E+00  7.509353741E+00 -4.894422549E+01  5.042649286E+01  9.536743164E-07  0.00000E+00  9.000E+00
      21     1     1     2   511   514  1.067064375E+01 -3.827003341E+00 -3.223720066E+01  3.417229431E+01  8.259061849E-07  0.00000E+00  9.000E+00
      21     1     1     2   512   511 -1.136306876E+00 -3.682350401E+00 -9.445798748E+01  9.453656593E+01  1.907348633E-06  0.00000E+00  9.000E+00
</event>
<event>
      5  10001  2.40292E+09  8.31873E+00 -1.00000E+00  2.05412E-01
      21    -1     0     0   515   513  0.000000000E+00  0.000000000E+00  1.127289568E+01  1.127289568E+01  0.000000000E+00  0.00000E+00  9.000E+00
      21    -1     0     0   512   517  0.000000000E+00  0.000000000E+00 -8.344659606E+01  8.344659606E+01  0.000000000E+00  0.00000E+00  9.000E+00
      21     1     1     2   515   517  1.495134503E+01  1.278668184E+00 -3.374601298E+01  3.693197941E+01  8.259061849E-07  0.00000E+00  9.000E+00
      21     1     1     2   512   511 -2.160942991E+01  3.708440198E+00 -4.302027666E+01  4.828523784E+01  4.768371582E-07  0.00000E+00  9.000E+00
      21     1     1     2   511   513  6.658084883E+00 -4.987108382E+00  4.592589267E+00  9.502274491E+00  1.976862425E-07  0.00000E+00  9.000E+00
</event>
<event>
      5  10001  2.40292E+09  2.57080E+00 -1.00000E+00  3.18657E-01
       3    -1     0     0   512     0  0.000000000E+00  0.000000000E+00  2.194063295E+01  2.194063295E+01  0.000000000E+00  0.00000E+00  9.000E+00
      21    -1     0     0   511   515  0.000000000E+00  0.000000000E+00 -5.636287767E+01  5.636287767E+01  0.000000000E+00  0.00000E+00  9.000E+00
      21     1     1     2   512   514  6.842181948E+00 -5.778316230E+00 -2.078750878E+00  9.193780370E+00  1.604904177E-07  0.00000E+00  9.000E+00
       3     1     1     2   511     0 -7.533449906E+00  8.254277752E+00  1.664451382E+01  2.005432146E+01  5.000000000E-01  0.00000E+00  9.000E+00
      21     1     1     2   514   515  6.912679582E-01 -2.475961522E+00 -4.898800766E+01  4.905540879E+01  6.743495762E-07  0.00000E+00  9.000E+00
</event>
<event>
      5  10001  2.40292E+09  2.00823E+01 -1.00000E+00  1.66180E-01
       5    -1     0     0   513     0  0.000000000E+00  0.000000000E+00  2.020572426E+00  2.020572426E+00  0.000000000E+00  0.00000E+00  9.000E+00
       1    -1     0     0   512     0  0.000000000E+00  0.000000000E+00 -1.748162995E+02  1.748162995E+02  0.000000000E+00  0.00000E+00  9.000E+00
      21     1     1     2   513   511  6.487677380E+00 -5.477507129E+00 -1.280163722E+01  1.536147641E+01  4.768371582E-07  0.00000E+00  9.000E+00
       5     1     1     2   512     0 -8.006660541E+00  9.012548643E+00 -5.911231877E+01  6.051973957E+01  4.800000191E+00  0.00000E+00  9.000E+00
       1     1     1     2   511     0  1.518983161E+00 -3.535041514E+00 -1.008817711E+02  1.009556559E+02  3.300000131E-01  0.00000E+00  9.000E+00
</event>
<event>
      5  10001  2.40292E+09  1.27121E+01 -1.00000E+00  1.84382E-01
      21    -1     0     0   514   512  0.000000000E+00  0.000000000E+00  1.077965427E+01  1.077965427E+01  0.000000000E+00  0.00000E+00  9.000E+00
      21    -1     0     0   511   515  0.000000000E+00  0.000000000E+00 -3.897468584E+01  3.897468584E+01  0.000000000E+00  0.00000E+00  9.000E+00
      21     1     1     2   514   515  2.003856037E+00  1.075226869E+01 -3.108556609E+01  3.295359070E+01  5.840038640E-07  0.00000E+00  9.000E+00
      21     1     1     2   511   513 -6.628762668E+00 -6.854613238E+00 -1.033037787E+00  9.591318169E+00  1.988062868E-07  0.00000E+00  9.000E+00
      21     1     1     2   513   512  4.624906631E+00 -3.897655447E+00  3.923572304E+00  7.209431251E+00  1.192092896E-07  0.00000E+00  9.000E+00
</event>
<event>
      5  10001  2.40292E+09  1.14015E+01 -1.00000E+00  1.89340E-01
       2    -1     0     0   514     0  0.000000000E+00  0.000000000E+00  3.933215618E+02  3.933215618E+02  0.000000000E+00  0.00000E+00  9.000E+00
      21    -1     0     0   516   514  0.000000000E+00  0.000000000E+00 -1.286466428E+01  1.286466428E+01  0.000000000E+00  0.00000E+00  9.000E+00
      21     1     1     2   516   513 -2.753566680E+00  1.473509219E+01 -7.801613143E+00  1.689882359E+01  1.092571186E-06  0.00000E+00  9.000E+00
       2     1     1     2   511     0  6.375286558E+00 -4.768148357E+00  3.284096151E+02  3.285062613E+02  3.300000131E-01  0.00000E+00  9.000E+00
      21     1     1     2   513   511 -3.621719878E+00 -9.966943829E+00  5.984889559E+01  6.078114121E+01  9.536743164E-07  0.00000E+00  9.000E+00
</event>
<event>
      5  10001  2.40292E+09  1.18985E+01 -1.00000E+00  1.87363E-01
      21    -1     0     0   512   511  0.000000000E+00  0.000000000E+00  4.374755738E+01  4.374755738E+01  0.000000000E+00  0.00000E+00  9.000E+00
      21    -1     0     0   513   515  0.000000000E+00  0.000000000E+00 -1.848245615E+01  1.848245615E+01  0.000000000E+00  0.00000E+00  9.000E+00
      21     1     1     2   512   515  2.395519502E+01  6.393064387E+00 -5.266273214E-01  2.479919307E+01  2.067452211E-07  0.00000E+00  9.000E+00
      21     1     1     2   513   514 -8.333342644E+00 -3.898234435E+00  1.700605405E+01  1.933511587E+01  3.371747881E-07  0.00000E+00  9.000E+00
      21     1     1     2   514   511 -1.562185237E+01 -2.494829953E+00  8.785674506E+00  1.809570459E+01  3.769728732E-07  0.00000E+00  9.000E+00
</event>
<event>
      5  10001  2.40292E+09  7.47645E+00 -1.00000E+00  2.11521E-01
      21    -1     0     0   514   511  0.000000000E+00  0.000000000E+00  1.071377706E+02  1.071377706E+02  0.000000000E+00  0.00000E+00  9.000E+00
      21    -1     0     0   512   516  0.000000000E+00  0.000000000E+00 -7.031395408E+00  7.031395408E+00  0.000000000E+00  0.00000E+00  9.000E+00
      -1     1     1     2     0   511 -3.173090781E+00 -1.470606837E+01  9.328403431E+01  9.448998311E+01  3.300000131E-01  0.00000E+00  9.000E+00
      21     1     1     2   514   516 -2.727604604E+00  1.011659122E+01  1.709123236E+00  1.061632456E+01  5.057621821E-07  0.00000E+00  9.000E+00
       1     1     1     2   512     0  5.900695385E+00  4.589477147E+00  5.113217642E+00  9.062858334E+00  3.300000131E-01  0.00000E+00  9.000E+00
</event>
<event>
      5  10001  2.40292E+09  1.16772E+01 -1.00000E+00  1.88228E-01
      21    -1     0     0   512   514  0.000000000E+00  0.000000000E+00  4.899540812E+01  4.899540812E+01  0.000000000E+00  0.00000E+00  9.000E+00
       2    -1     0     0   511     0  0.000000000E+00  0.000000000E+00 -4.559880242E+02  4.559880242E+02  0.000000000E+00  0.00000E+00  9.000E+00
      21     1     1     2   511   513 -1.247934171E+01 -1.344915510E+01  1.192255660E+01  2.188061010E+01  1.792108581E-06  0.00000E+00  9.000E+00
       2     1     1     2   512     0  1.486481926E+01  2.018224968E+00 -4.498175724E+02  4.500677654E+02  3.300000131E-01  0.00000E+00  9.000E+00
      21     1     1     2   513   514 -2.385477556E+00  1.143093013E+01  3.090239977E+01  3.303505681E+01  8.920806376E-07  0.00000E+00  9.000E+00
</event>
<event>
      5  10001  2.40292E+09  1.13596E+01 -1.00000E+00  1.89513E-01
      21    -1     0     0   515   511  0.000000000E+00  0.000000000E+00  7.607983685E+01  7.607983685E+01  0.000000000E+00  0.00000E+00  9.000E+00
       2    -1     0     0   512     0  0.000000000E+00  0.000000000E+00 -2.158873003E+01  2.158873003E+01  0.000000000E+00  0.00000E+00  9.000E+00
      21     1     1     2   512   514 -1.217661229E+00  2.893050072E+01  4.928827560E+01  5.716459291E+01  6.743495762E-07  0.00000E+00  9.000E+00
       2     1     1     2   515     0  3.187868324E+00 -1.774326170E+01 -1.069585552E+01  2.096416146E+01  3.300000131E-01  0.00000E+00  9.000E+00
      21     1     1     2   514   511 -1.970207095E+00 -1.118723901E+01  1.589868674E+01  1.953981250E+01  2.384185791E-07  0.00000E+00  9.000E+00
</event>
<event>
      5  10001  2.40292E+09  2.78422E+00 -1.00000E+00  3.06915E-01
      21    -1     0     0   515   514  0.000000000E+00  0.000000000E+00  2.965164902E+01  2.965164902E+01  0.000000000E+00  0.00000E+00  9.000E+00
      21    -1     0     0   512   511  0.000000000E+00  0.000000000E+00 -5.108540972E+01  5.108540972E+01  0.000000000E+00  0.00000E+00  9.000E+00
      21     1     1     2   513   511 -1.475411036E+01 -8.410706789E+00 -8.603830366E+00  1.903811068E+01  3.576278687E-07  0.00000E+00  9.000E+00
      21     1     1     2   512   514  1.490577795E+01  5.630619073E+00 -3.547198891E+01  3.888634830E+01  8.259061849E-07  0.00000E+00  9.000E+00
      21     1     1     2   515   513 -1.516675823E-01  2.780087716E+00  2.264205858E+01  2.281259975E+01  3.371747881E-07  0.00000E+00  9.000E+00
</event>
<event>
      5  10001  2.40292E+09  6.65598E+00 -1.00000E+00  2.18621E-01
      21    -1     0     0   516   511  0.000000000E+00  0.000000000E+00  5.721119281E+00  5.721119281E+00  0.000000000E+00  0.00000E+00  9.000E+00
      21    -1     0     0   517   512  0.000000000E+00  0.000000000E+00 -2.460187035E+02  2.460187035E+02  0.000000000E+00  0.00000E+00  9.000E+00
      21     1     1     2   516   513  7.932795320E+00 -1.553672733E+01 -3.000689155E+01  3.470925926E+01  4.768371582E-07  0.00000E+00  9.000E+00
      21     1     1     2   517   511 -1.214939570E+01  2.068671587E+01 -4.023353932E+01  4.684320351E+01  0.000000000E+00  0.00000E+00  9.000E+00
      21     1     1     2   513   512  4.216600384E+00 -5.149988536E+00 -1.700571533E+02  1.701873600E+02  1.907348633E-06  0.00000E+00  9.000E+00
</event>
<event>
      5  10001  2.40292E+09  9.42073E+00 -1.00000E+00  1.98741E-01
      21    -1     0     0   514   512  0.000000000E+00  0.000000000E+00  9.377343999E+01  9.377343999E+01  0.000000000E+00  0.00000E+00  9.000E+00
      21    -1     0     0   513   515  0.000000000E+00  0.000000000E+00 -5.069713675E+02  5.069713675E+02  0.000000000E+00  0.00000E+00  9.000E+00
      21     1     1     2   514   515  6.899497282E+00  1.415364825E+01  9.232102277E+01  9.365415136E+01  1.348699152E-06  0.00000E+00  9.000E+00
      21     1     1     2   511   512 -1.521460653E+00 -6.748515002E+00 -4.787587051E+02  4.788086831E+02  1.078959322E-05  0.00000E+00  9.000E+00
      21     1     1     2   513   511 -5.378036630E+00 -7.405133247E+00 -2.676024517E+01  2.828197302E+01  0.000000000E+00  0.00000E+00  9.000E+00
</event>
<event>
      5  10001  2.40292E+09  7.55438E+00 -1.00000E+00  2.10911E-01
      21    -1     0     0   516   512  0.000000000E+00  0.000000000E+00  7.360807359E+00  7.360807359E+00  0.000000000E+00  0.00000E+00  9.000E+00
      21    -1     0     0   513   516  0.000000000E+00  0.000000000E+00 -2.031347331E+01  2.031347331E+01  0.000000000E+00  0.00000E+00  9.000E+00
      21     1     1     2   511   512  8.697323546E+00  4.993971218E+00 -2.515731761E+00  1.033983035E+01  2.439425222E-07  0.00000E+00  9.000E+00
      21     1     1     2   513   514 -5.663768039E+00 -2.203090196E+00 -1.156178929E+01  1.306165558E+01  1.685873940E-07  0.00000E+00  9.000E+00
      21     1     1     2   514   511 -3.033555507E+00 -2.790881023E+00  1.124855101E+00  4.272794741E+00  6.828569911E-08  0.00000E+00  9.000E+00
</event>
<event>
      5  10001  2.40292E+09  7.17149E+00 -1.00000E+00  2.14008E-01
      21    -1     0     0   515   511  0.000000000E+00  0.000000000E+00  1.344535204E+00  1.344535204E+00  0.000000000E+00  0.00000E+00  9.000E+00
      21    -1     0     0   517   515  0.000000000E+00  0.000000000E+00 -3.009424469E+02  3.009424469E+02  0.000000000E+00  0.00000E+00  9.000E+00
      21     1     1     2   513   511 -9.509402534E+00  3.664978870E+00 -2.259721376E+01  2.478900717E+01  4.129530925E-07  0.00000E+00  9.000E+00
      21     1     1     2   517   512  1.237611205E+01 -4.938921486E+00 -2.083875750E+02  2.088131761E+02  2.697398305E-06  0.00000E+00  9.000E+00
      21     1     1     2   512   513 -2.866709516E+00  1.273942616E+00 -6.861312293E+01  6.868479883E+01  1.348699152E-06  0.00000E+00  9.000E+00
</event>
<event>
      5  10001  2.40292E+09  1.34259E+01 -1.00000E+00  1.81993E-01
      21    -1     0     0   514   516  0.000000000E+00  0.000000000E+00  6.730034937E+01  6.730034937E+01  0.000000000E+00  0.00000E+00  9.000E+00
      21    -1     0     0   511   513  0.000000000E+00  0.000000000E+00 -1.968183026E+02  1.968183026E+02  0.000000000E+00  0.00000E+00  9.000E+00
      21     1     1     2   514   513 -1.927541903E+00 -1.222177606E+01  6.350839613E+01  6.470242350E+01  2.023048729E-06  0.00000E+00  9.000E+00
      21     1     1     2   511   515  5.490812639E+00  4.753310028E+00 -1.906755933E+02  1.908138488E+02  0.000000000E+00  0.00000E+00  9.000E+00
      21     1     1     2   515   516 -3.563270736E+00  7.468466036E+00 -2.350756058E+00  8.602379747E+00  1.154238983E-07  0.00000E+00  9.000E+00
</event>
<event>
      5  10001  2.40292E+09  9.84320E+00 -1.00000E+00  1.96495E-01
       1    -1     0     0   513     0  0.000000000E+00  0.000000000E+00  1.341735703E+03  1.341735703E+03  0.000000000E+00  0.00000E+00  9.000E+00
      21    -1     0     0   515   513  0.000000000E+00  0.000000000E+00 -2.624113342E-01  2.624113342E-01  0.000000000E+00  0.00000E+00  9.000E+00
      21     1     1     2   515   512 -1.105294211E+01  8.381129786E+00  2.361998415E+02  2.366067962E+02  6.607249480E-06  0.00000E+00  9.000E+00
      21     1     1     2   512   511  5.238147829E+00 -5.995533819E+00  3.451385323E+02  3.452303450E+02  3.814697266E-06  0.00000E+00  9.000E+00
       1     1     1     2   511     0  5.814794284E+00 -2.385595967E+00  7.601349181E+02  7.601609734E+02  3.300000131E-01  0.00000E+00  9.000E+00
</event>
<event>
      5  10001  2.40292E+09  1.58945E+01 -1.00000E+00  1.75000E-01
       2    -1     0     0   513     0  0.000000000E+00  0.000000000E+00  9.239767899E+02  9.239767899E+02  0.000000000E+00  0.00000E+00  9.000E+00
      21    -1     0     0   512   513  0.000000000E+00  0.000000000E+00 -2.719132134E+00  2.719132134E+00  0.000000000E+00  0.00000E+00  9.000E+00
      21     1     1     2   514   511 -2.957870148E+00 -9.132529488E+00  2.387649111E+01  2.573400315E+01  1.261592536E-06  0.00000E+00  9.000E+00
       2     1     1     2   511     0  8.003200700E-01  1.179785828E+01  8.974540437E+02  8.975320047E+02  3.300000131E-01  0.00000E+00  9.000E+00
      21     1     1     2   512   514  2.157550078E+00 -2.665328795E+00 -7.287710363E-02  3.429914139E+00  4.498866459E-07  0.00000E+00  9.000E+00
</event>
<event>
      5  10001  2.40292E+09  5.42823E+00 -1.00000E+00  2.32362E-01
      21    -1     0     0   513   511  0.000000000E+00  0.000000000E+00  3.396736993E+00  3.396736993E+00  0.000000000E+00  0.00000E+00  9.000E+00
      21    -1     0     0   512   514  0.000000000E+00  0.000000000E+00 -1.088900268E+02  1.088900268E+02  0.000000000E+00  0.00000E+00  9.000E+00
      21     1     1     2   515   514 -1.682358060E+01  6.190356063E+00 -6.308491949E+01  6.558247052E+01  9.536743164E-07  0.00000E+00  9.000E+00
      21     1     1     2   512   511  1.146655852E+01 -7.066737896E+00 -3.513749873E+01  3.763063335E+01  8.259061849E-07  0.00000E+00  9.000E+00
      21     1     1     2   513   515  5.357022079E+00  8.763818328E-01 -7.270871537E+00  9.073659878E+00  1.685873940E-07  0.00000E+00  9.000E+00
</event>
<event>
      5  10001  2.40292E+09  1.51402E+01 -1.00000E+00  1.76957E-01
      -2    -1     0     0     0   515  0.000000000E+00  0.000000000E+00  2.718384814E+00  2.718384814E+00  0.000000000E+00  0.00000E+00  9.000E+00
      21    -1     0     0   511   513  0.000000000E+00  0.000000000E+00 -9.121393004E+01  9.121393004E+01  0.000000000E+00  0.00000E+00  9.000E+00
      -2     1     1     2     0   513  4.478936039E+00 -4.628207775E+00 -5.548641806E+00  8.507496762E+00  3.300000131E-01  0.00000E+00  9.000E+00
      21     1     1     2   512   515  2.244716606E+00  8.196801850E+00 -6.912509303E+01  6.964556554E+01  0.000000000E+00  0.00000E+00  9.000E+00
      21     1     1     2   511   512 -6.723652645E+00 -3.568594076E+00 -1.382181039E+01  1.577925255E+01  3.371747881E-07  0.00000E+00  9.000E+00
</event>
<event>
      5  10001  2.40292E+09  6.62268E+00 -1.00000E+00  2.18938E-01
      -2    -1     0     0     0   514  0.000000000E+00  0.000000000E+00  2.067589777E+02  2.067589777E+02  0.000000000E+00  0.00000E+00  9.000E+00
      -2    -1     0     0     0   513  0.000000000E+00  0.000000000E+00 -1.895445636E+02  1.895445636E+02  0.000000000E+00  0.00000E+00  9.000E+00
      -2     1     1     2     0   512  9.156044661E+00 -3.558633263E+00 -1.879334047E+02  1.881902509E+02  3.300000131E-01  0.00000E+00  9.000E+00
      -2     1     1     2     0   513 -9.296904804E+00  1.017980473E+01  1.975644913E+02  1.980451918E+02  3.300000131E-01  0.00000E+00  9.000E+00
      21     1     1     2   512   514  1.408601432E-01 -6.621171465E+00  7.583327501E+00  1.006809859E+01  1.884864366E-07  0.00000E+00  9.000E+00
</event>
<event>
      5  10001  2.40292E+09  6.78486E+00 -1.00000E+00  2.17415E-01
      21    -1     0     0   511   515  0.000000000E+00  0.000000000E+00  3.150969382E+02  3.150969382E+02  0.000000000E+00  0.00000E+00  9.000E+00
      21    -1     0     0   512   514  0.000000000E+00  0.000000000E+00 -4.094712108E-01  4.094712108E-01  0.000000000E+00  0.00000E+00  9.000E+00
      21     1     1     2   511   514 -6.298004425E+00 -5.520626515E+00  1.927422299E+02  1.929241026E+02  0.000000000E+00  0.00000E+00  9.000E+00
      21     1     1     2   513   515  4.802490461E+00  1.897889922E+00  2.357073655E+01  2.412976424E+01  4.768371582E-07  0.00000E+00  9.000E+00
      21     1     1     2   512   513  1.495513964E+00  3.622736593E+00  9.837450054E+01  9.845254257E+01  1.348699152E-06  0.00000E+00  9.000E+00
</event>
<event>
      5  10001  2.40292E+09  1.02030E+01 -1.00000E+00  1.94696E-01
      21    -1     0     0   516   513  0.000000000E+00  0.000000000E+00  7.178145848E+01  7.178145848E+01  0.000000000E+00  0.00000E+00  9.000E+00
      21    -1     0     0   512   516  0.000000000E+00  0.000000000E+00 -1.498819695E+00  1.498819695E+00  0.000000000E+00  0.00000E+00  9.000E+00
      21     1     1     2   512   517  4.259517415E+00 -4.062894871E+00  1.963409173E+01  2.049751599E+01  2.384185791E-07  0.00000E+00  9.000E+00
      21     1     1     2   517   511 -4.258023345E+00  7.384774882E+00  4.731462559E+01  4.807639190E+01  0.000000000E+00  0.00000E+00  9.000E+00
      21     1     1     2   511   513 -1.494070920E-03 -3.321880011E+00  3.333921461E+00  4.706370294E+00  1.032382731E-07  0.00000E+00  9.000E+00
</event>
<event>
      5  10001  2.40292E+09  1.34993E+01 -1.00000E+00  1.81758E-01
      -2    -1     0     0     0   513  0.000000000E+00  0.000000000E+00  3.669418883E+01  3.669418883E+01  0.000000000E+00  0.00000E+00  9.000E+00
      21    -1     0     0   511   514  0.000000000E+00  0.000000000E+00 -7.145276576E+00  7.145276576E+00  0.000000000E+00  0.00000E+00  9.000E+00
      -2     1     1     2     0   514  1.415996352E+01 -8.502286162E-01  1.497113671E+01  2.062695542E+01  3.300000131E-01  0.00000E+00  9.000E+00
      21     1     1     2   512   513 -5.538622762E+00 -2.978700863E-01  1.331471713E+01  1.442382615E+01  2.920019320E-07  0.00000E+00  9.000E+00
      21     1     1     2   511   512 -8.621340755E+00  1.148098703E+00  1.263058423E+00  8.788683839E+00  1.896608183E-07  0.00000E+00  9.000E+00
</event>
<event>
      5  10001  2.40292E+09  4.72771E+00 -1.00000E+00  2.47366E-01
      21    -1     0     0   515   512  0.000000000E+00  0.000000000E+00  8.989862462E+01  8.989862462E+01  0.000000000E+00  0.00000E+00  9.000E+00
      21    -1     0     0   513   516  0.000000000E+00  0.000000000E+00 -3.070682883E+01  3.070682883E+01  0.000000000E+00  0.00000E+00  9.000E+00
      21     1     1     2   515   516 -3.030362266E+00  1.356303594E+01  7.998514332E+01  8.118350935E+01  9.536743164E-07  0.00000E+00  9.000E+00
      21     1     1     2   511   512 -1.693351242E+00 -1.375747234E+01  3.804466545E+00  1.437391559E+01  1.884864366E-07  0.00000E+00  9.000E+00
      21     1     1     2   513   511  4.723713508E+00  1.944363973E-01 -2.459781408E+01  2.504802851E+01  6.743495762E-07  0.00000E+00  9.000E+00
</event>
<event>
      5  10001  2.40292E+09  5.42231E+00 -1.00000E+00  2.32441E-01
      21    -1     0     0   514   511  0.000000000E+00  0.000000000E+00  4.616115759E+00  4.616115759E+00  0.000000000E+00  0.00000E+00  9.000E+00
      21    -1     0     0   512   514  0.000000000E+00  0.000000000E+00 -1.981914434E+02  1.981914434E+02  0.000000000E+00  0.00000E+00  9.000E+00
      21     1     1     2   513   517  1.244766123E+00 -1.119749491E+01 -4.917641987E+01  5.045050651E+01  6.743495762E-07  0.00000E+00  9.000E+00
      21     1     1     2   517   511  3.599190375E+00  8.760795044E+00 -1.782474990E+00  9.637578443E+00  3.285021735E-07  0.00000E+00  9.000E+00
      21     1     1     2   512   513 -4.843956498E+00  2.436699867E+00 -1.426164328E+02  1.427194742E+02  1.907348633E-06  0.00000E+00  9.000E+00
</event>
<event>
      5  10001  2.40292E+09  4.14853E+00 -1.00000E+00  2.59689E-01
      -3    -1     0     0     0   513  0.000000000E+00  0.000000000E+00  7.310840766E+02  7.310840766E+02  0.000000000E+00  0.00000E+00  9.000E+00
      -4    -1     0     0     0   514  0.000000000E+00  0.000000000E+00 -1.199998883E+00  1.199998883E+00  0.000000000E+00  0.00000E+00  9.000E+00
      -3     1     1     2     0   514  9.850839127E+00  1.850736543E-01  4.379550055E+02  4.380661025E+02  5.000000000E-01  0.00000E+00  9.000E+00
      21     1     1     2   511   513 -1.101558327E+01 -4.163034250E+00  2.882104173E+02  2.884508945E+02  0.000000000E+00  0.00000E+00  9.000E+00
      -4     1     1     2     0   511  1.164744140E+00  3.977960595E+00  3.718654859E+00  5.767078409E+00  1.500000000E+00  0.00000E+00  9.000E+00
</event>
<event>
      5  10001  2.40292E+09  7.75392E+00 -1.00000E+00  2.09393E-01
      -3    -1     0     0     0   512  0.000000000E+00  0.000000000E+00  2.250289095E+02  2.250289095E+02  0.000000000E+00  0.00000E+00  9.000E+00
      21    -1     0     0   512   515  0.000000000E+00  0.000000000E+00 -4.266484436E+00  4.266484436E+00  0.000000000E+00  0.00000E+00  9.000E+00
      -3     1     1     2     0   513  7.967384370E+00  9.430026178E+00  2.077334972E+02  2.081006018E+02  5.000000000E-01  0.00000E+00  9.000E+00
      21     1     1     2   514   515 -9.258964400E+00 -2.929853224E+00  5.485218495E+00  1.115347854E+01  3.318646170E-07  0.00000E+00  9.000E+00
      21     1     1     2   513   514  1.291580031E+00 -6.500172954E+00  7.543709297E+00  1.004131353E+01  2.795705652E-07  0.00000E+00  9.000E+00
</event>
<event>
      5  10001  2.40292E+09  3.46987E+00 -1.00000E+00  2.78800E-01
      21    -1     0     0   511   513  0.000000000E+00  0.000000000E+00  3.322956947E+02  3.322956947E+02  0.000000000E+00  0.00000E+00  9.000E+00
      21    -1     0     0   512   516  0.000000000E+00  0.000000000E+00 -4.386351256E-01  4.386351256E-01  0.000000000E+00  0.00000E+00  9.000E+00
      21     1     1     2   511   516 -9.655476878E+00 -1.588253648E-01  2.289901246E+02  2.291936531E+02  3.814697266E-06  0.00000E+00  9.000E+00
      21     1     1     2   515   513  7.602832195E+00  1.345545921E+00  4.753510300E+01  4.815806857E+01  9.536743164E-07  0.00000E+00  9.000E+00
      21     1     1     2   512   515  2.052644682E+00 -1.186720556E+00  5.533183197E+01  5.538260815E+01  6.743495762E-07  0.00000E+00  9.000E+00
</event>
<event>
      5  10001  2.40292E+09  1.15868E+01 -1.00000E+00  1.88588E-01
      21    -1     0     0   514   513  0.000000000E+00  0.000000000E+00  3.362010473E+01  3.362010473E+01  0.000000000E+00  0.00000E+00  9.000E+00
      21    -1     0     0   512   514  0.000000000E+00  0.000000000E+00 -5.298340644E+00  5.298340644E+00  0.000000000E+00  0.00000E+00  9.000E+00
      21     1     1     2   515   513 -8.303741349E+00 -4.409711193E+00  2.435552403E+01  2.610726382E+01  3.371747881E-07  0.00000E+00  9.000E+00
      21     1     1     2   511   515  3.542387688E+00 -2.029168165E+00  2.089670952E+00  4.586148565E+00  1.365713982E-07  0.00000E+00  9.000E+00
      21     1     1     2   512   511  4.761353661E+00  6.438879358E+00  1.876569101E+00  8.225032989E+00  2.179851955E-07  0.00000E+00  9.000E+00
</event>
<event>
      5  10001  2.40292E+09  6.78795E+00 -1.00000E+00  2.17387E-01
      21    -1     0     0   516   511  0.000000000E+00  0.000000000E+00  1.997008407E+01  1.997008407E+01  0.000000000E+00  0.00000E+00  9.000E+00
      21    -1     0     0   513   517  0.000000000E+00  0.000000000E+00 -7.687716482E+01  7.687716482E+01  0.000000000E+00  0.00000E+00  9.000E+00
      21     1     1     2   516   517  6.662836384E+00 -1.228090855E+01 -3.361408585E+01  3.640220970E+01  0.000000000E+00  0.00000E+00  9.000E+00
      21     1     1     2   512   511  1.241015464E-01  1.239821198E+01  1.618464264E+01  2.038807786E+01  5.840038640E-07  0.00000E+00  9.000E+00
      21     1     1     2   513   512 -6.786937930E+00 -1.173034269E-01 -3.947763753E+01  4.005696134E+01  6.743495762E-07  0.00000E+00  9.000E+00
</event>
<event>
      5  10001  2.40292E+09  5.26976E+00 -1.00000E+00  2.34512E-01
       1    -1     0     0   515     0  0.000000000E+00  0.000000000E+00  5.388784600E+02  5.388784600E+02  0.000000000E+00  0.00000E+00  9.000E+00
      21    -1     0     0   512   515  0.000000000E+00  0.000000000E+00 -8.034867988E+00  8.034867988E+00  0.000000000E+00  0.00000E+00  9.000E+00
      21     1     1     2   512   514  6.611233503E+00  1.419125482E+01  1.182640682E-01  1.565612047E+01  8.562902071E-07  0.00000E+00  9.000E+00
       1     1     1     2   511     0 -5.503480208E+00 -1.773246092E+01  4.930590152E+02  4.934085830E+02  3.300000131E-01  0.00000E+00  9.000E+00
      21     1     1     2   514   511 -1.107753295E+00  3.541206106E+00  3.766631282E+01  3.784862453E+01  4.768371582E-07  0.00000E+00  9.000E+00
</event>
<event>
      5  10001  2.40292E+09  1.24023E+00 -1.00000E+00  5.20886E-01
      21    -1     0     0   513   512  0.000000000E+00  0.000000000E+00  1.403082730E+02  1.403082730E+02  0.000000000E+00  0.00000E+00  9.000E+00
      -2    -1     0     0     0   513  0.000000000E+00  0.000000000E+00 -1.005130282E+00  1.005130282E+00  0.000000000E+00  0.00000E+00  9.000E+00
      -2     1     1     2     0   515 -1.165805217E+01 -1.528817482E+00  6.232225715E+01  6.342255198E+01  3.300000131E-01  0.00000E+00  9.000E+00
      21     1     1     2   516   512  7.405586962E+00  1.598657341E+00  4.608104092E+01  4.669968689E+01  6.743495762E-07  0.00000E+00  9.000E+00
      21     1     1     2   515   516  4.252465210E+00 -6.983985936E-02  3.089984464E+01  3.119116440E+01  0.000000000E+00  0.00000E+00  9.000E+00
</event>
<event>
      5  10001  2.40292E+09  3.05413E+00 -1.00000E+00  2.94394E-01
      21    -1     0     0   514   513  0.000000000E+00  0.000000000E+00  3.066257535E+00  3.066257535E+00  0.000000000E+00  0.00000E+00  9.000E+00
      -1    -1     0     0     0   511  0.000000000E+00  0.000000000E+00 -1.932657902E+02  1.932657902E+02  0.000000000E+00  0.00000E+00  9.000E+00
      -1     1     1     2     0   512  1.374325897E+01 -8.592068902E+00 -1.479162527E+02  1.488019742E+02  3.300000131E-01  0.00000E+00  9.000E+00
      21     1     1     2   514   511 -1.194543762E+01  1.106079185E+01 -4.118287446E+01  4.428389939E+01  1.348699152E-06  0.00000E+00  9.000E+00
      21     1     1     2   512   513 -1.797821351E+00 -2.468722950E+00 -1.100405587E+00  3.246174220E+00  1.299053116E-07  0.00000E+00  9.000E+00
</event>
<event>
      5  10001  2.40292E+09  1.22723E+01 -1.00000E+00  1.85957E-01
      21    -1     0     0   515   516  0.000000000E+00  0.000000000E+00  1.085491139E+01  1.085491139E+01  0.000000000E+00  0.00000E+00  9.000E+00
      21    -1     0     0   512   513  0.000000000E+00  0.000000000E+00 -2.629058705E+02  2.629058705E+02  0.000000000E+00  0.00000E+00  9.000E+00
      21     1     1     2   515   513  2.246063919E+00  1.125502431E+01 -2.585791826E+02  2.588337575E+02  3.814697266E-06  0.00000E+00  9.000E+00
      21     1     1     2   511   516 -1.309724527E+00 -5.496016599E+00 -6.381268047E-01  5.685840537E+00  1.568165807E-07  0.00000E+00  9.000E+00
      21     1     1     2   512   511 -9.363393921E-01 -5.759007711E+00  7.166350301E+00  9.241183794E+00  7.492187673E-07  0.00000E+00  9.000E+00
</event>
<event>
      5  10001  2.40292E+09  1.48420E+01 -1.00000E+00  1.77770E-01
      21    -1     0     0   514   511  0.000000000E+00  0.000000000E+00  1.635627787E+02  1.635627787E+02  0.000000000E+00  0.00000E+00  9.000E+00
      21    -1     0     0   512   517  0.000000000E+00  0.000000000E+00 -6.728307470E+01  6.728307470E+01  0.000000000E+00  0.00000E+00  9.000E+00
      21     1     1     2   514   517  7.091374011E+00 -4.363817324E+01  1.486691560E+02  1.551034999E+02  0.000000000E+00  0.00000E+00  9.000E+00
      21     1     1     2   513   511  5.018832913E+00  4.126886484E+01 -4.540779641E+01  6.156440419E+01  1.168007728E-06  0.00000E+00  9.000E+00
      21     1     1     2   512   513 -1.211020692E+01  2.369308401E+00 -6.981655505E+00  1.417794934E+01  1.685873940E-07  0.00000E+00  9.000E+00
</event>
<event>
      5  10001  2.40292E+09  8.89029E+00 -1.00000E+00  2.01792E-01
      21    -1     0     0   515   511  0.000000000E+00  0.000000000E+00  5.741388427E+01  5.741388427E+01  0.000000000E+00  0.00000E+00  9.000E+00
      21    -1     0     0   512   515  0.000000000E+00  0.000000000E+00 -8.503710882E+01  8.503710882E+01  0.000000000E+00  0.00000E+00  9.000E+00
      21     1     1     2   513   511 -2.137754689E+01  9.351765561E+00  5.300295211E+01  5.791172561E+01  1.168007728E-06  0.00000E+00  9.000E+00
      21     1     1     2   512   514  7.376915498E+00 -4.622604790E+00 -4.714217877E+01  4.793925715E+01  1.168007728E-06  0.00000E+00  9.000E+00
      21     1     1     2   514   513  1.400063140E+01 -4.729160771E+00 -3.348399789E+01  3.660001033E+01  6.743495762E-07  0.00000E+00  9.000E+00
</event>
<event>
      5  10001  2.40292E+09  5.86321E+00 -1.00000E+00  2.26959E-01
      21    -1     0     0   516   512  0.000000000E+00  0.000000000E+00  4.572932713E+01  4.572932713E+01  0.000000000E+00  0.00000E+00  9.000E+00
      21    -1     0     0   511   515  0.000000000E+00  0.000000000E+00 -3.371622952E+01  3.371622952E+01  0.000000000E+00  0.00000E+00  9.000E+00
      21     1     1     2   516   513 -7.254901859E+00  8.132675908E+00  4.194643186E+01  4.333909510E+01  6.743495762E-07  0.00000E+00  9.000E+00
      21     1     1     2   511   512  1.266228729E+01 -5.866097772E+00 -1.769132933E+01  2.253281509E+01  5.331201500E-07  0.00000E+00  9.000E+00
      21     1     1     2   513   515 -5.407385426E+00 -2.266578136E+00 -1.224200493E+01  1.357364646E+01  0.000000000E+00  0.00000E+00  9.000E+00
</event>
<event>
      5  10001  2.40292E+09  3.87111E+00 -1.00000E+00  2.66756E-01
      21    -1     0     0   514   511  0.000000000E+00  0.000000000E+00  6.494745455E+01  6.494745455E+01  0.000000000E+00  0.00000E+00  9.000E+00
      21    -1     0     0   512   517  0.000000000E+00  0.000000000E+00 -2.763289242E+01  2.763289242E+01  0.000000000E+00  0.00000E+00  9.000E+00
      21     1     1     2   514   517 -1.494999677E+01 -1.323141207E+01 -1.843751093E+01  2.717562286E+01  4.129530925E-07  0.00000E+00  9.000E+00
      21     1     1     2   513   511  1.868348782E+01  1.220839199E+01  5.709906030E+01  6.130595598E+01  9.536743164E-07  0.00000E+00  9.000E+00
      21     1     1     2   512   513 -3.733491052E+00  1.023020081E+00 -1.346987235E+00  4.098768123E+00  8.161702119E-08  0.00000E+00  9.000E+00
</event>
<event>
      5  10001  2.40292E+09  1.83245E+01 -1.00000E+00  1.69523E-01
      21    -1     0     0   513   511  0.000000000E+00  0.000000000E+00  4.749555679E+01  4.749555679E+01  0.000000000E+00  0.00000E+00  9.000E+00
      21    -1     0     0   515   513  0.000000000E+00  0.000000000E+00 -9.726087035E+00  9.726087035E+00  0.000000000E+00  0.00000E+00  9.000E+00
      -2     1     1     2     0   511  3.977259371E+00 -8.359640821E+00  2.626091156E+01  2.784684116E+01  3.300000131E-01  0.00000E+00  9.000E+00
      21     1     1     2   515   514 -1.794225334E+00  3.221891050E+00 -8.145109359E+00  8.941064419E+00  2.920019320E-07  0.00000E+00  9.000E+00
       2     1     1     2   514     0 -2.183034037E+00  5.137749771E+00  1.965366755E+01  2.043373824E+01  3.300000131E-01  0.00000E+00  9.000E+00
</event>
<event>
      5  10001  2.40292E+09  1.70016E+01 -1.00000E+00  1.72363E-01
      21    -1     0     0   514   515  0.000000000E+00  0.000000000E+00  1.089738646E+01  1.089738646E+01  0.000000000E+00  0.00000E+00  9.000E+00
      -2    -1     0     0     0   512  0.000000000E+00  0.000000000E+00 -1.053547355E+01  1.053547355E+01  0.000000000E+00  0.00000E+00  9.000E+00
      21     1     1     2   511   515  1.832193823E+00  6.374931344E+00  7.847028607E+00  1.027484997E+01  1.685873940E-07  0.00000E+00  9.000E+00
      21     1     1     2   514   512 -7.214849346E-01 -2.622757957E+00 -1.687296109E-02  2.720236112E+00  1.610304603E-07  0.00000E+00  9.000E+00
      -2     1     1     2     0   511 -1.110708888E+00 -3.752173388E+00 -7.468242731E+00  8.437773928E+00  3.300000131E-01  0.00000E+00  9.000E+00
</event>
<event>
      5  10001  2.40292E+09  3.85733E+00 -1.00000E+00  2.67131E-01
      21    -1     0     0   513   515  0.000000000E+00  0.000000000E+00  9.392180757E-01  9.392180757E-01  0.000000000E+00  0.00000E+00  9.000E+00
      21    -1     0     0   516   513  0.000000000E+00  0.000000000E+00 -1.138102258E+02  1.138102258E+02  0.000000000E+00  0.00000E+00  9.000E+00
      21     1     1     2   516   511 -9.891534407E+00 -1.798610564E-01 -6.411632576E+01  6.487509562E+01  1.348699152E-06  0.00000E+00  9.000E+00
      21     1     1     2   511   512  4.209336713E+00  1.037541606E+00 -1.426590525E+01  1.491009928E+01  3.769728732E-07  0.00000E+00  9.000E+00
      21     1     1     2   512   515  5.682197694E+00 -8.576805499E-01 -3.448877669E+01  3.496424894E+01  9.536743164E-07  0.00000E+00  9.000E+00
</event>
<event>
      5  10001  2.40292E+09  5.70369E+00 -1.00000E+00  2.28862E-01
      21    -1     0     0   514   511  0.000000000E+00  0.000000000E+00  1.266288973E+02  1.266288973E+02  0.000000000E+00  0.00000E+00  9.000E+00
      21    -1     0     0   516   513  0.000000000E+00  0.000000000E+00 -6.467326153E+00  6.467326153E+00  0.000000000E+00  0.00000E+00  9.000E+00
      21     1     1     2   514   515 -1.176184471E+01 -5.771547655E+00  7.798291045E+01  7.907582485E+01  1.907348633E-06  0.00000E+00  9.000E+00
      21     1     1     2   516   511  1.745824229E+01  5.483163418E+00  4.430342502E+01  4.793379573E+01  6.743495762E-07  0.00000E+00  9.000E+00
      21     1     1     2   515   513 -5.696397578E+00  2.883842365E-01 -2.124764337E+00  6.086602856E+00  2.632069846E-07  0.00000E+00  9.000E+00
</event>
<event>
      5  10001  2.40292E+09  8.08013E+00 -1.00000E+00  2.07041E-01
       2    -1     0     0   512     0  0.000000000E+00  0.000000000E+00  5.642802367E+01  5.642802367E+01  0.000000000E+00  0.00000E+00  9.000E+00
       1    -1     0     0   511     0  0.000000000E+00  0.000000000E+00 -1.776220039E+00  1.776220039E+00  0.000000000E+00  0.00000E+00  9.000E+00
       1     1     1     2   514     0  1.980668845E+00 -2.261794832E+00  2.547669169E+00  3.954526917E+00  3.300000131E-01  0.00000E+00  9.000E+00
       2     1     1     2   511     0 -5.218622116E+00  7.176375115E+00  2.547967405E+01  2.698253262E+01  3.300000131E-01  0.00000E+00  9.000E+00
      21     1     1     2   512   514  3.237953272E+00 -4.914580283E+00  2.662446041E+01  2.726718417E+01  3.371747881E-07  0.00000E+00  9.000E+00
</event>
<event>
      5  10001  2.40292E+09  2.84324E+00 -1.00000E+00  3.03978E-01
      21    -1     0     0   513   514  0.000000000E+00  0.000000000E+00  1.475511042E+02  1.475511042E+02  0.000000000E+00  0.00000E+00  9.000E+00
      21    -1     0     0   515   513  0.000000000E+00  0.000000000E+00 -1.692543932E+00  1.692543932E+00  0.000000000E+00  0.00000E+00  9.000E+00
      21     1     1     2   511   514  1.367817402E+00  1.217555690E+01  1.189212083E+02  1.195506959E+02  1.348699152E-06  0.00000E+00  9.000E+00
      21     1     1     2   515   516 -6.423522684E-01 -4.372953770E+00  7.092730237E+00  8.357162397E+00  8.429369702E-08  0.00000E+00  9.000E+00
      21     1     1     2   516   511 -7.254651336E-01 -7.802603135E+00  1.984462166E+01  2.133578975E+01  2.384185791E-07  0.00000E+00  9.000E+00
</event>
<event>
      5  10001  2.40292E+09  5.95031E+00 -1.00000E+00  2.25955E-01
      21    -1     0     0   511   512  0.000000000E+00  0.000000000E+00  2.666179766E+02  2.666179766E+02  0.000000000E+00  0.00000E+00  9.000E+00
      21    -1     0     0   512   514  0.000000000E+00  0.000000000E+00 -1.349629598E+00  1.349629598E+00  0.000000000E+00  0.00000E+00  9.000E+00
      -1     1     1     2     0   513 -1.031850276E+01  2.898937813E+00  1.395791334E+02  1.399904237E+02  3.300000131E-01  0.00000E+00  9.000E+00
       1     1     1     2   511     0  8.985741117E+00 -8.696711616E+00  1.155227896E+02  1.161981074E+02  3.300000131E-01  0.00000E+00  9.000E+00
      21     1     1     2   513   514  1.332761645E+00  5.797773803E+00  1.016642396E+01  1.177907513E+01  1.192092896E-07  0.00000E+00  9.000E+00
</event>
<event>
      5  10001  2.40292E+09  3.98756E+00 -1.00000E+00  2.63681E-01
       2    -1     0     0   514     0  0.000000000E+00  0.000000000E+00  1.146640116E+02  1.146640116E+02  0.000000000E+00  0.00000E+00  9.000E+00
      -2    -1     0     0     0   511  0.000000000E+00  0.000000000E+00 -5.518639415E+01  5.518639415E+01  0.000000000E+00  0.00000E+00  9.000E+00
      -2     1     1     2     0   512 -7.221649802E+00 -2.011816907E+01 -2.449451433E+01  3.251127627E+01  3.300000131E-01  0.00000E+00  9.000E+00
       2     1     1     2   512     0  3.235778913E+00  2.000378443E+01  1.095720410E+02  1.114305286E+02  3.300000131E-01  0.00000E+00  9.000E+00
      21     1     1     2   514   511  3.985870889E+00  1.143846391E-01 -2.559990913E+01  2.590860086E+01  4.768371582E-07  0.00000E+00  9.000E+00
</event>
<event>
      5  10001  2.40292E+09  2.12267E+01 -1.00000E+00  1.64223E-01
       2    -1     0     0   511     0  0.000000000E+00  0.000000000E+00  3.885839683E+02  3.885839683E+02  0.000000000E+00  0.00000E+00  9.000E+00
       3    -1     0     0   513     0  0.000000000E+00  0.000000000E+00 -2.125111896E+01  2.125111896E+01  0.000000000E+00  0.00000E+00  9.000E+00
       2     1     1     2   513     0  4.726090578E+00  1.186313727E+01  3.793841706E+02  3.795991672E+02  3.300000131E-01  0.00000E+00  9.000E+00
       3     1     1     2   512     0  5.678564211E+00 -1.561608459E+01 -6.383570882E+00  1.780753118E+01  5.000000000E-01  0.00000E+00  9.000E+00
      21     1     1     2   511   512 -1.040465479E+01  3.752947320E+00 -5.667750389E+00  1.242838885E+01  2.528810911E-07  0.00000E+00  9.000E+00
</event>
<event>
      5  10001  2.40292E+09  7.15340E+00 -1.00000E+00  2.14161E-01
      21    -1     0     0   514   512  0.000000000E+00  0.000000000E+00  2.036303707E+02  2.036303707E+02  0.000000000E+00  0.00000E+00  9.000E+00
      21    -1     0     0   513   515  0.000000000E+00  0.000000000E+00 -3.183869084E+01  3.183869084E+01  0.000000000E+00  0.00000E+00  9.000E+00
      21     1     1     2   514   515  9.570744417E+00  3.086214454E+00 -3.084204104E+01  3.244002719E+01  6.743495762E-07  0.00000E+00  9.000E+00
      21     1     1     2   516   512 -2.324405082E+00 -4.256126020E+00  1.091071463E+02  1.092148654E+02  0.000000000E+00  0.00000E+00  9.000E+00
      21     1     1     2   513   516 -7.246339335E+00  1.169911566E+00  9.352657458E+01  9.381416886E+01  0.000000000E+00  0.00000E+00  9.000E+00
</event>
<event>
      5  10001  2.40292E+09  6.97543E+00 -1.00000E+00  2.15698E-01
      21    -1     0     0   511   512  0.000000000E+00  0.000000000E+00  9.466852953E+01  9.466852953E+01  0.000000000E+00  0.00000E+00  9.000E+00
       2    -1     0     0   513     0  0.000000000E+00  0.000000000E+00 -2.739703647E+00  2.739703647E+00  0.000000000E+00  0.00000E+00  9.000E+00
      -1     1     1     2     0   512 -1.130313712E+01 -4.402387911E+00  4.026111512E+01  4.205006800E+01  3.300000131E-01  0.00000E+00  9.000E+00
       2     1     1     2   511     0  1.073515460E+01  9.626142269E+00  4.098237181E+01  4.344617196E+01  3.300000131E-01  0.00000E+00  9.000E+00
       1     1     1     2   513     0  5.679825150E-01 -5.223754358E+00  1.068533896E+01  1.191199322E+01  3.300000131E-01  0.00000E+00  9.000E+00
</event>
<event>
      5  10001  2.40292E+09  8.24863E+00 -1.00000E+00  2.05883E-01
      21    -1     0     0   514   512  0.000000000E+00  0.000000000E+00  9.794746946E+01  9.794746946E+01  0.000000000E+00  0.00000E+00  9.000E+00
      21    -1     0     0   513   514  0.000000000E+00  0.000000000E+00 -1.719054878E+01  1.719054878E+01  0.000000000E+00  0.00000E+00  9.000E+00
      21     1     1     2   513   515  1.006762849E+00  1.006137284E+01 -1.530620755E+01  1.834461186E+01  4.129530925E-07  0.00000E+00  9.000E+00
      21     1     1     2   511   512 -2.524118780E+00 -1.606660867E+00  3.522855466E+01  3.535538994E+01  0.000000000E+00  0.00000E+00  9.000E+00
      21     1     1     2   515   511  1.517355931E+00 -8.454711971E+00  6.083457357E+01  6.143801645E+01  6.743495762E-07  0.00000E+00  9.000E+00
</event>
<event>
      5  10001  2.40292E+09  3.08599E+00 -1.00000E+00  2.93057E-01
       4    -1     0     0   514     0  0.000000000E+00  0.000000000E+00  4.151039963E+00  4.151039963E+00  0.000000000E+00  0.00000E+00  9.000E+00
      21    -1     0     0   512   514  0.000000000E+00  0.000000000E+00 -1.529748080E+02  1.529748080E+02  0.000000000E+00  0.00000E+00  9.000E+00
      21     1     1     2   511   516 -1.374089250E+01  2.958037757E+00 -1.224493621E+02  1.232534315E+02  0.000000000E+00  0.00000E+00  9.000E+00
       4     1     1     2   516     0  1.412506663E+01  1.010737695E-01 -1.040472605E+01  1.760784051E+01  1.500000000E+00  0.00000E+00  9.000E+00
      21     1     1     2   512   511 -3.841741346E-01 -3.059111527E+00 -1.596967993E+01  1.626457593E+01  2.384185791E-07  0.00000E+00  9.000E+00
</event>
<event>
      5  10001  2.40292E+09  5.58721E+00 -1.00000E+00  2.30307E-01
      21    -1     0     0   513   511  0.000000000E+00  0.000000000E+00  1.533693667E+01  1.533693667E+01  0.000000000E+00  0.00000E+00  9.000E+00
      21    -1     0     0   512   513  0.000000000E+00  0.000000000E+00 -8.507707342E+00  8.507707342E+00  0.000000000E+00  0.00000E+00  9.000E+00
      21     1     1     2   515   511 -1.060505330E-01 -9.689854056E+00  4.671145494E+00  1.075751452E+01  3.209808354E-07  0.00000E+00  9.000E+00
      21     1     1     2   514   515 -1.201057538E+00  7.677336768E+00 -2.231181059E+00  8.084689726E+00  0.000000000E+00  0.00000E+00  9.000E+00
      21     1     1     2   512   514  1.307108071E+00  2.012517288E+00  4.389264896E+00  5.002439772E+00  5.960464478E-08  0.00000E+00  9.000E+00
</event>
<event>
      5  10001  2.40292E+09  1.04806E+01 -1.00000E+00  1.93373E-01
      21    -1     0     0   516   513  0.000000000E+00  0.000000000E+00  1.181160207E+01  1.181160207E+01  0.000000000E+00  0.00000E+00  9.000E+00
      21    -1     0     0   511   517  0.000000000E+00  0.000000000E+00 -9.468743065E+02  9.468743065E+02  0.000000000E+00  0.00000E+00  9.000E+00
      21     1     1     2   516   517 -1.331082904E+01 -3.081441319E+00 -9.147089719E+02  9.148110060E+02  1.078959322E-05  0.00000E+00  9.000E+00
      21     1     1     2   511   512  7.065878988E+00 -5.335385604E+00  9.049025916E+00  1.266008908E+01  1.209842153E-06  0.00000E+00  9.000E+00
      21     1     1     2   512   513  6.244950049E+00  8.416826923E+00 -2.940275843E+01  3.121481346E+01  5.840038640E-07  0.00000E+00  9.000E+00
</event>
<event>
      5  10001  2.40292E+09  1.35150E+01 -1.00000E+00  1.81708E-01
      21    -1     0     0   512   514  0.000000000E+00  0.000000000E+00  1.645193381E+01  1.645193381E+01  0.000000000E+00  0.00000E+00  9.000E+00
       1    -1     0     0   513     0  0.000000000E+00  0.000000000E+00 -6.342254568E+02  6.342254568E+02  0.000000000E+00  0.00000E+00  9.000E+00
      21     1     1     2   513   511  1.282441342E+01  1.609788694E+01 -3.932280925E+00  2.095400623E+01  1.499622539E-06  0.00000E+00  9.000E+00
       1     1     1     2   512     0 -8.065867376E+00 -3.448378534E+00 -6.159780156E+02  6.160405621E+02  3.300000131E-01  0.00000E+00  9.000E+00
      21     1     1     2   511   514 -4.758546048E+00 -1.264950841E+01  2.136773576E+00  1.368282225E+01  7.269567798E-07  0.00000E+00  9.000E+00
</event>
<event>
      5  10001  2.40292E+09  1.19666E+01 -1.00000E+00  1.87102E-01
       3    -1     0     0   511     0  0.000000000E+00  0.000000000E+00  6.284846185E+01  6.284846185E+01  0.000000000E+00  0.00000E+00  9.000E+00
      21    -1     0     0   515   512  0.000000000E+00  0.000000000E+00 -2.450755494E+01  2.450755494E+01  0.000000000E+00  0.00000E+00  9.000E+00
      21     1     1     2   511   512 -1.265131107E+01  2.095861530E-01 -1.903687231E+01  2.285830496E+01  3.371747881E-07  0.00000E+00  9.000E+00
       3     1     1     2   513     0  6.901271343E+00 -3.519144290E+00  5.734004656E+01  5.786313907E+01  5.000000000E-01  0.00000E+00  9.000E+00
      21     1     1     2   515   513  5.750039728E+00  3.309558137E+00  3.773265615E-02  6.634572759E+00  5.058376347E-09  0.00000E+00  9.000E+00
</event>
<event>
      5  10001  2.40292E+09  3.66168E+00 -1.00000E+00  2.72737E-01
      -1    -1     0     0     0   514  0.000000000E+00  0.000000000E+00  9.619124519E+00  9.619124519E+00  0.000000000E+00  0.00000E+00  9.000E+00
      21    -1     0     0   512   511  0.000000000E+00  0.000000000E+00 -1.609315963E+02  1.609315963E+02  0.000000000E+00  0.00000E+00  9.000E+00
      -1     1     1     2     0   515  7.071161219E+00 -9.005769375E+00  3.996824082E+00  1.213213525E+01  3.300000131E-01  0.00000E+00  9.000E+00
      21     1     1     2   515   511 -8.986480556E+00  5.885048178E+00 -1.731990077E+01  2.038061793E+01  4.129530925E-07  0.00000E+00  9.000E+00
      21     1     1     2   512   514  1.915319337E+00  3.120721197E+00 -1.379893951E+02  1.380379677E+02  0.000000000E+00  0.00000E+00  9.000E+00
</event>
<event>
      5  10001  2.40292E+09  7.50290E+00 -1.00000E+00  2.11313E-01
      21    -1     0     0   513   515  0.000000000E+00  0.000000000E+00  3.222566244E+01  3.222566244E+01  0.000000000E+00  0.00000E+00  9.000E+00
      21    -1     0     0   512   513  0.000000000E+00  0.000000000E+00 -2.357972582E+01  2.357972582E+01  0.000000000E+00  0.00000E+00  9.000E+00
      21     1     1     2   512   514 -1.659034611E+01  1.837521885E+01 -1.838270836E+00  2.482473548E+01  5.986484714E-07  0.00000E+00  9.000E+00
      21     1     1     2   511   515  1.616569570E+01 -1.464072972E+01  1.393210388E+01  2.588018939E+01  1.685873940E-07  0.00000E+00  9.000E+00
      21     1     1     2   514   511  4.246504101E-01 -3.734489131E+00 -3.447896429E+00  5.100463393E+00  4.214684851E-08  0.00000E+00  9.000E+00
</event>
<event>
      5  10001  2.40292E+09  6.37335E+00 -1.00000E+00  2.21400E-01
      21    -1     0     0   516   512  0.000000000E+00  0.000000000E+00  1.784152316E+01  1.784152316E+01  0.000000000E+00  0.00000E+00  9.000E+00
      21    -1     0     0   517   516  0.000000000E+00  0.000000000E+00 -7.987253810E+01  7.987253810E+01  0.000000000E+00  0.00000E+00  9.000E+00
      21     1     1     2   511   512  1.878705162E+01  2.817469848E+00  1.090600497E+01  2.190507679E+01  7.052516679E-07  0.00000E+00  9.000E+00
      21     1     1     2   517   513 -8.895886536E+00  2.287347336E-01 -4.785865040E+01  4.867894344E+01  6.743495762E-07  0.00000E+00  9.000E+00
      21     1     1     2   513   511 -9.891165080E+00 -3.046204582E+00 -2.507836951E+01  2.713004103E+01  0.000000000E+00  0.00000E+00  9.000E+00
</event>
<event>
      5  10001  2.40292E+09  4.75773E+00 -1.00000E+00  2.46801E-01
      21    -1     0     0   514   511  0.000000000E+00  0.000000000E+00  1.009633156E+01  1.009633156E+01  0.000000000E+00  0.00000E+00  9.000E+00
      21    -1     0     0   515   514  0.000000000E+00  0.000000000E+00 -6.622810145E+01  6.622810145E+01  0.000000000E+00  0.00000E+00  9.000E+00
      21     1     1     2   517   511  9.779681989E+00  1.326744725E+00  6.762967976E+00  1.196411999E+01  3.769728732E-07  0.00000E+00  9.000E+00
      21     1     1     2   515   512 -1.156315671E+01 -8.929808939E-01 -4.950420562E+01  5.084457082E+01  6.743495762E-07  0.00000E+00  9.000E+00
      21     1     1     2   512   517  1.783474718E+00 -4.337638313E-01 -1.339053224E+01  1.351574219E+01  2.384185791E-07  0.00000E+00  9.000E+00
</event>
<event>
      5  10001  2.40292E+09  6.68572E+00 -1.00000E+00  2.18339E-01
      21    -1     0     0   513   512  0.000000000E+00  0.000000000E+00  1.207938187E+01  1.207938187E+01  0.000000000E+00  0.00000E+00  9.000E+00
      21    -1     0     0   511   513  0.000000000E+00  0.000000000E+00 -8.048696631E+01  8.048696631E+01  0.000000000E+00  0.00000E+00  9.000E+00
      21     1     1     2   515   512 -1.109983672E+01 -1.022768189E+01  5.160980806E+00  1.595141294E+01  3.153981341E-07  0.00000E+00  9.000E+00
      21     1     1     2   516   515  4.576963110E+00  1.169430525E+01 -2.978955242E+01  3.232835907E+01  6.743495762E-07  0.00000E+00  9.000E+00
      21     1     1     2   511   516  6.522873608E+00 -1.466623360E+00 -4.377901282E+01  4.428657616E+01  8.259061849E-07  0.00000E+00  9.000E+00
</event>
<event>
      5  10001  2.40292E+09  1.32622E+01 -1.00000E+00  1.82524E-01
      21    -1     0     0   514   512  0.000000000E+00  0.000000000E+00  1.129277404E+00  1.129277404E+00  0.000000000E+00  0.00000E+00  9.000E+00
      21    -1     0     0   511   517  0.000000000E+00  0.000000000E+00 -3.920798938E+02  3.920798938E+02  0.000000000E+00  0.00000E+00  9.000E+00
      21     1     1     2   514   517 -8.212231922E-01 -1.492891348E+01 -6.710996385E+01  6.875532062E+01  1.907348633E-06  0.00000E+00  9.000E+00
      21     1     1     2   511   513 -2.620225650E+00  1.111770920E+01 -1.185532650E+02  1.191022488E+02  1.907348633E-06  0.00000E+00  9.000E+00
      21     1     1     2   513   512  3.441448842E+00  3.811204280E+00 -2.052873876E+02  2.053516017E+02  0.000000000E+00  0.00000E+00  9.000E+00
</event>
<event>
      5  10001  2.40292E+09  4.85501E+00 -1.00000E+00  2.45010E-01
       2    -1     0     0   513     0  0.000000000E+00  0.000000000E+00  2.326102947E+02  2.326102947E+02  0.000000000E+00  0.00000E+00  9.000E+00
      -4    -1     0     0     0   513  0.000000000E+00  0.000000000E+00 -7.258007951E+00  7.258007951E+00  0.000000000E+00  0.00000E+00  9.000E+00
      -4     1     1     2     0   512 -2.327099401E+01 -4.436489654E+00  1.514126167E+01  2.815545076E+01  1.500000000E+00  0.00000E+00  9.000E+00
       2     1     1     2   511     0  1.580297225E+01  9.240812825E-01  1.647258263E+02  1.654850284E+02  3.300000131E-01  0.00000E+00  9.000E+00
      21     1     1     2   512   511  7.468021755E+00  3.512408371E+00  4.548519879E+01  4.622782355E+01  6.743495762E-07  0.00000E+00  9.000E+00
</event>
<event>
      5  10001  2.40292E+09  4.78304E+00 -1.00000E+00  2.46329E-01
      21    -1     0     0   514   515  0.000000000E+00  0.000000000E+00  2.063900304E+01  2.063900304E+01  0.000000000E+00  0.00000E+00  9.000E+00
      -3    -1     0     0     0   514  0.000000000E+00  0.000000000E+00 -5.693219513E+02  5.693219513E+02  0.000000000E+00  0.00000E+00  9.000E+00
      -3     1     1     2     0   516 -2.295148590E+00 -6.899465292E+00 -5.324060347E+02  5.324559194E+02  5.000000000E-01  0.00000E+00  9.000E+00
      21     1     1     2   513   515  6.957989132E+00  7.658456091E+00  1.914884957E+01  2.176566109E+01  1.450243599E-06  0.00000E+00  9.000E+00
      21     1     1     2   516   513 -4.662840542E+00 -7.589907991E-01 -3.542576316E+01  3.573937386E+01  0.000000000E+00  0.00000E+00  9.000E+00
</event>
<event>
      5  10001  2.40292E+09  8.68266E+00 -1.00000E+00  2.03064E-01
       2    -1     0     0   514     0  0.000000000E+00  0.000000000E+00  5.855496344E+02  5.855496344E+02  0.000000000E+00  0.00000E+00  9.000E+00
      21    -1     0     0   511   512  0.000000000E+00  0.000000000E+00 -1.870243012E+01  1.870243012E+01  0.000000000E+00  0.00000E+00  9.000E+00
      21     1     1     2   513   512 -1.396991251E+00 -1.400322270E+01 -1.521895362E+01  2.072820253E+01  2.255545608E-06  0.00000E+00  9.000E+00
       2     1     1     2   511     0  3.398643406E+00  5.554461657E+00  5.562212461E+02  5.562594595E+02  3.300000131E-01  0.00000E+00  9.000E+00
      21     1     1     2   514   513 -2.001652155E+00  8.448761044E+00  2.584491177E+01  2.726440241E+01  3.371747881E-07  0.00000E+00  9.000E+00
</event>
<event>
      5  10001  2.40292E+09  1.53214E+01 -1.00000E+00  1.76474E-01
       2    -1     0     0   514     0  0.000000000E+00  0.000000000E+00  1.774644992E+02  1.774644992E+02  0.000000000E+00  0.00000E+00  9.000E+00
       1    -1     0     0   513     0  0.000000000E+00  0.000000000E+00 -1.336470767E+01  1.336470767E+01  0.000000000E+00  0.00000E+00  9.000E+00
       1     1     1     2   511     0  2.187942196E+00  1.506336080E+01 -4.807823490E+00  1.596608895E+01  3.300000131E-01  0.00000E+00  9.000E+00
       2     1     1     2   513     0 -1.008307445E+01 -7.456931645E+00  1.606472274E+02  1.611363237E+02  3.300000131E-01  0.00000E+00  9.000E+00
      21     1     1     2   514   511  7.895132250E+00 -7.606429151E+00  8.260387591E+00  1.372679427E+01  4.298152060E-07  0.00000E+00  9.000E+00
</event>
<event>
      5  10001  2.40292E+09  6.69142E+00 -1.00000E+00  2.18285E-01
      21    -1     0     0   516   513  0.000000000E+00  0.000000000E+00  1.431017073E+01  1.431017073E+01  0.000000000E+00  0.00000E+00  9.000E+00
      21    -1     0     0   515   511  0.000000000E+00  0.000000000E+00 -9.926750309E+01  9.926750309E+01  0.000000000E+00  0.00000E+00  9.000E+00
      21     1     1     2   512   511  1.149561625E+01 -4.797888312E+00 -2.416096454E+01  2.718310381E+01  4.768371582E-07  0.00000E+00  9.000E+00
      21     1     1     2   515   513 -6.320315030E+00  9.039510051E+00 -7.227292730E+01  7.310974727E+01  1.651812370E-06  0.00000E+00  9.000E+00
      21     1     1     2   516   512 -5.175301217E+00 -4.241621739E+00  1.147655948E+01  1.328482274E+01  3.371747881E-07  0.00000E+00  9.000E+00
</event>
<event>
      5  10001  2.40292E+09  3.32876E+00 -1.00000E+00  2.83677E-01
       2    -1     0     0   511     0  0.000000000E+00  0.000000000E+00  1.755174290E+02  1.755174290E+02  0.000000000E+00  0.00000E+00  9.000E+00
      21    -1     0     0   513   511  0.000000000E+00  0.000000000E+00 -5.725941715E+00  5.725941715E+00  0.000000000E+00  0.00000E+00  9.000E+00
      21     1     1     2   516   514  2.620894034E+00 -1.156355615E+01  2.202670463E+01  2.501520804E+01  5.840038640E-07  0.00000E+00  9.000E+00
       2     1     1     2   514     0 -3.961103998E+00  8.516619119E+00  1.511725705E+02  1.514644451E+02  3.300000131E-01  0.00000E+00  9.000E+00
      21     1     1     2   513   516  1.340209963E+00  3.046937035E+00 -3.407787813E+00  4.763717647E+00  4.214684851E-08  0.00000E+00  9.000E+00
</event>
<event>
      5  10001  2.40292E+09  5.77221E+00 -1.00000E+00  2.28034E-01
      21    -1     0     0   513   515  0.000000000E+00  0.000000000E+00  6.036263220E+01  6.036263220E+01  0.000000000E+00  0.00000E+00  9.000E+00
      -2    -1     0     0     0   512  0.000000000E+00  0.000000000E+00 -1.786256647E+00  1.786256647E+00  0.000000000E+00  0.00000E+00  9.000E+00
      -2     1     1     2     0   515  7.506678330E+00 -6.436256222E+00  2.270299234E+01  2.476510398E+01  3.300000131E-01  0.00000E+00  9.000E+00
      21     1     1     2   513   511 -1.897183297E+00  2.047970387E+00  5.282783408E+00  5.975055456E+00  8.429369702E-08  0.00000E+00  9.000E+00
      21     1     1     2   511   512 -5.609495032E+00  4.388285835E+00  3.059059980E+01  3.140872941E+01  3.371747881E-07  0.00000E+00  9.000E+00
</event>
<event>
      5  10001  2.40292E+09  5.56047E+00 -1.00000E+00  2.30646E-01
       1    -1     0     0   512     0  0.000000000E+00  0.000000000E+00  1.257030521E+01  1.257030521E+01  0.000000000E+00  0.00000E+00  9.000E+00
      21    -1     0     0   513   512  0.000000000E+00  0.000000000E+00 -2.314284484E+01  2.314284484E+01  0.000000000E+00  0.00000E+00  9.000E+00
      21     1     1     2   513   514 -4.909531630E-01 -8.738679275E+00 -1.155820449E+01  1.449819443E+01  1.685873940E-07  0.00000E+00  9.000E+00
       1     1     1     2   511     0 -4.310631459E+00  1.207856828E+01  5.367649000E+00  1.390661393E+01  3.300000131E-01  0.00000E+00  9.000E+00
      21     1     1     2   514   511  4.801584622E+00 -3.339889002E+00 -4.381984133E+00  7.308341697E+00  1.884864366E-07  0.00000E+00  9.000E+00
</event>
<event>
      5  10001  2.40292E+09  8.10174E+00 -1.00000E+00  2.06890E-01
      21    -1     0     0   515   511  0.000000000E+00  0.000000000E+00  2.388822575E+01  2.388822575E+01  0.000000000E+00  0.00000E+00  9.000E+00
      21    -1     0     0   516   515  0.000000000E+00  0.000000000E+00 -7.974932203E+00  7.974932203E+00  0.000000000E+00  0.00000E+00  9.000E+00
      21     1     1     2   516   513 -7.366212394E+00 -5.874578344E+00 -2.096390131E+00  9.652285083E+00  1.397852826E-07  0.00000E+00  9.000E+00
      21     1     1     2   513   512  7.790754406E+00  1.442853735E+00  8.018679792E+00  1.127283934E+01  1.192092896E-07  0.00000E+00  9.000E+00
      21     1     1     2   512   511 -4.245420120E-01  4.431724608E+00  9.991003890E+00  1.093803354E+01  1.192092896E-07  0.00000E+00  9.000E+00
</event>
<event>
      5  10001  2.40292E+09  2.34421E+00 -1.00000E+00  3.33501E-01
      21    -1     0     0   514   515  0.000000000E+00  0.000000000E+00  1.732685507E+01  1.732685507E+01  0.000000000E+00  0.00000E+00  9.000E+00
      21    -1     0     0   516   511  0.000000000E+00  0.000000000E+00 -2.315329593E+01  2.315329593E+01  0.000000000E+00  0.00000E+00  9.000E+00
      21     1     1     2   514   511  6.487867708E+00  6.410741735E+00  2.274969304E+00  9.400293737E+00  5.161913656E-08  0.00000E+00  9.000E+00
      21     1     1     2   516   513 -7.567475905E+00 -8.491548328E+00 -1.778800120E+01  2.111364656E+01  3.371747881E-07  0.00000E+00  9.000E+00
      21     1     1     2   513   515  1.079608196E+00  2.080806593E+00  9.686591034E+00  9.966210704E+00  1.192092896E-07  0.00000E+00  9.000E+00
</event>
<event>
      5  10001  2.40292E+09  3.60911E+01 -1.00000E+00  1.47633E-01
       1    -1     0     0   511     0  0.000000000E+00  0.000000000E+00  1.253943807E+03  1.253943807E+03  0.000000000E+00  0.00000E+00  9.000E+00
      21    -1     0     0   512   513  0.000000000E+00  0.000000000E+00 -3.147581422E-01  3.147581422E-01  0.000000000E+00  0.00000E+00  9.000E+00
      21     1     1     2   511   513  2.047399057E+00  4.698771776E+00  6.894102178E+01  6.913128658E+01  1.651812370E-06  0.00000E+00  9.000E+00
      21     1     1     2   512   514 -4.289312569E+00 -3.246737768E+00  3.296132281E+01  3.339742969E+01  1.066240300E-06  0.00000E+00  9.000E+00
       1     1     1     2   514     0  2.241913512E+00 -1.452034008E+00  1.151726704E+03  1.151729849E+03  3.300000131E-01  0.00000E+00  9.000E+00
</event>
<event>
      5  10001  2.40292E+09  1.14977E+01 -1.00000E+00  1.88948E-01
      21    -1     0     0   515   512  0.000000000E+00  0.000000000E+00  2.015076159E-01  2.015076159E-01  0.000000000E+00  0.00000E+00  9.000E+00
      21    -1     0     0   517   516  0.000000000E+00  0.000000000E+00 -6.913683950E+02  6.913683950E+02  0.000000000E+00  0.00000E+00  9.000E+00
      21     1     1     2   515   516  5.764385563E+00 -5.705914784E+00 -2.328497215E+02  2.329909406E+02  3.814697266E-06  0.00000E+00  9.000E+00
      21     1     1     2   511   512 -4.476262849E+00  4.306360017E+00 -7.491032051E+01  7.516739842E+01  2.132480600E-06  0.00000E+00  9.000E+00
      21     1     1     2   517   511 -1.288122714E+00  1.399554766E+00 -3.834068454E+02  3.834115636E+02  0.000000000E+00  0.00000E+00  9.000E+00
</event>
<event>
      5  10001  2.40292E+09  1.70022E+01 -1.00000E+00  1.72361E-01
      21    -1     0     0   513   512  0.000000000E+00  0.000000000E+00  3.487507565E+01  3.487507565E+01  0.000000000E+00  0.00000E+00  9.000E+00
      21    -1     0     0   517   514  0.000000000E+00  0.000000000E+00 -2.184026562E+02  2.184026562E+02  0.000000000E+00  0.00000E+00  9.000E+00
      21     1     1     2   513   514 -1.274594436E+01 -1.784242690E+01  2.323108022E+01  3.194517778E+01  1.685873940E-06  0.00000E+00  9.000E+00
      21     1     1     2   517   511  1.155877857E+01  8.817493824E-01 -2.037338791E+02  2.040634125E+02  2.697398305E-06  0.00000E+00  9.000E+00
      21     1     1     2   511   512  1.187165784E+00  1.696067752E+01 -3.024781657E+00  1.726914151E+01  4.597678369E-07  0.00000E+00  9.000E+00
</event>
<event>
      5  10001  2.40292E+09  7.84931E+00 -1.00000E+00  2.08689E-01
      21    -1     0     0   513   511  0.000000000E+00  0.000000000E+00  2.036645129E+02  2.036645129E+02  0.000000000E+00  0.00000E+00  9.000E+00
      21    -1     0     0   512   515  0.000000000E+00  0.000000000E+00 -1.297722277E+01  1.297722277E+01  0.000000000E+00  0.00000E+00  9.000E+00
      21     1     1     2   516   511 -1.172757908E+01 -1.919236385E+01  1.759516259E+02  1.773833634E+02  2.697398305E-06  0.00000E+00  9.000E+00
      21     1     1     2   512   516  1.392317204E+01  1.165638278E+01 -4.306353816E+00  1.866201121E+01  3.862822472E-07  0.00000E+00  9.000E+00
      21     1     1     2   513   515 -2.195592960E+00  7.535981063E+00  1.904201804E+01  2.059636108E+01  0.000000000E+00  0.00000E+00  9.000E+00
</event>
<event>
      5  10001  2.40292E+09  1.07185E+01 -1.00000E+00  1.92281E-01
      21    -1     0     0   514   512  0.000000000E+00  0.000000000E+00  7.054920877E-01  7.054920877E-01  0.000000000E+00  0.00000E+00  9.000E+00
       2    -1     0     0   511     0  0.000000000E+00  0.000000000E+00 -3.357346126E+02  3.357346126E+02  0.000000000E+00  0.00000E+00  9.000E+00
      21     1     1     2   511   512 -8.314667721E+00  2.528423406E+00 -3.618003019E+01  3.720915490E+01  9.536743164E-07  0.00000E+00  9.000E+00
       2     1     1     2   516     0  6.362901618E+00 -7.069207296E+00 -1.512324409E+02  1.515315819E+02  3.300000131E-01  0.00000E+00  9.000E+00
      21     1     1     2   514   516  1.951766104E+00  4.540783890E+00 -1.476166494E+02  1.476993679E+02  1.907348633E-06  0.00000E+00  9.000E+00
</event>
<event>
      5  10001  2.40292E+09  7.96531E+00 -1.00000E+00  2.07851E-01
      21    -1     0     0   515   511  0.000000000E+00  0.000000000E+00  6.519314711E+01  6.519314711E+01  0.000000000E+00  0.00000E+00  9.000E+00
       3    -1     0     0   511     0  0.000000000E+00  0.000000000E+00 -1.132849797E+01  1.132849797E+01  0.000000000E+00  0.00000E+00  9.000E+00
      21     1     1     2   515   512  1.630270334E+00  3.975045946E+00  2.303096975E+01  2.342828075E+01  0.000000000E+00  0.00000E+00  9.000E+00
       3     1     1     2   513     0 -1.016699239E+01 -1.402397427E+01 -2.254371758E+00  1.747489000E+01  5.000000000E-01  0.00000E+00  9.000E+00
      21     1     1     2   512   513  8.536722052E+00  1.004892832E+01  3.308805116E+01  3.561847432E+01  9.536743164E-07  0.00000E+00  9.000E+00
</event>
<event>
      5  10001  2.40292E+09  1.54467E+01 -1.00000E+00  1.76144E-01
      21    -1     0     0   514   512  0.000000000E+00  0.000000000E+00  5.140966964E+00  5.140966964E+00  0.000000000E+00  0.00000E+00  9.000E+00
      21    -1     0     0   511   516  0.000000000E+00  0.000000000E+00 -5.152533875E+01  5.152533875E+01  0.000000000E+00  0.00000E+00  9.000E+00
      21     1     1     2   514   516 -1.063593695E+01  1.244533588E+00 -3.307551940E+01  3.476581658E+01  4.768371582E-07  0.00000E+00  9.000E+00
      21     1     1     2   515   512  5.287040721E+00 -6.564993990E+00 -1.129196530E+01  1.409114708E+01  2.064765462E-07  0.00000E+00  9.000E+00
      21     1     1     2   511   515  5.348896233E+00  5.320460402E+00 -2.016887083E+00  7.809342054E+00  4.214684851E-08  0.00000E+00  9.000E+00
</event>
<event>
      5  10001  2.40292E+09  4.78910E+00 -1.00000E+00  2.46216E-01
      21    -1     0     0   511   512  0.000000000E+00  0.000000000E+00  5.288197583E+01  5.288197583E+01  0.000000000E+00  0.00000E+00  9.000E+00
       1    -1     0     0   513     0  0.000000000E+00  0.000000000E+00 -4.324354676E+02  4.324354676E+02  0.000000000E+00  0.00000E+00  9.000E+00
      21     1     1     2   513   512 -3.496315646E+00  1.446016692E+01  5.134827367E+01  5.345994631E+01  1.348699152E-06  0.00000E+00  9.000E+00
       1     1     1     2   514     0 -2.871994909E-01 -1.209333429E+01 -4.185384510E+02  4.187133567E+02  3.300000131E-01  0.00000E+00  9.000E+00
      21     1     1     2   511   514  3.783515136E+00 -2.366832628E+00 -1.236331448E+01  1.314414046E+01  2.384185791E-07  0.00000E+00  9.000E+00
</event>
<event>
      5  10001  2.40292E+09  7.64694E+00 -1.00000E+00  2.10199E-01
       1    -1     0     0   513     0  0.000000000E+00  0.000000000E+00  1.067514472E+01  1.067514472E+01  0.000000000E+00  0.00000E+00  9.000E+00
       2    -1     0     0   511     0  0.000000000E+00  0.000000000E+00 -9.485945679E+01  9.485945679E+01  0.000000000E+00  0.00000E+00  9.000E+00
       1     1     1     2   511     0  1.120024696E+01  2.613197601E+00  5.544641213E+00  1.277208988E+01  3.300000131E-01  0.00000E+00  9.000E+00
       2     1     1     2   512     0 -8.877043130E+00 -4.393497764E+00 -8.924777898E+01  8.979632326E+01  3.300000131E-01  0.00000E+00  9.000E+00
      21     1     1     2   513   512 -2.323203834E+00  1.780300164E+00 -4.811743033E-01  2.966188369E+00  9.439035847E-08  0.00000E+00  9.000E+00
</event>
<event>
      5  10001  2.40292E+09  1.25238E+01 -1.00000E+00  1.85046E-01
      21    -1     0     0   514   511  0.000000000E+00  0.000000000E+00  2.131133179E+02  2.131133179E+02  0.000000000E+00  0.00000E+00  9.000E+00
      21    -1     0     0   515   514  0.000000000E+00  0.000000000E+00 -2.352901368E+02  2.352901368E+02  0.000000000E+00  0.00000E+00  9.000E+00
      21     1     1     2   512   511 -4.152873938E+00  1.528145629E+01  2.096185608E+02  2.102158660E+02  0.000000000E+00  0.00000E+00  9.000E+00
      21     1     1     2   515   516 -3.381287844E+00 -7.490253034E+00 -2.255080533E+02  2.256577477E+02  3.814697266E-06  0.00000E+00  9.000E+00
      21     1     1     2   516   512  7.534161782E+00 -7.791203256E+00 -6.287326462E+00  1.252984102E+01  1.460009660E-07  0.00000E+00  9.000E+00
</event>
<event>
      5  10001  2.40292E+09  3.89877E+00 -1.00000E+00  2.66010E-01
      -2    -1     0     0     0   512  0.000000000E+00  0.000000000E+00  1.720938768E+00  1.720938768E+00  0.000000000E+00  0.00000E+00  9.000E+00
       1    -1     0     0   511     0  0.000000000E+00  0.000000000E+00 -2.971762012E+02  2.971762012E+02  0.000000000E+00  0.00000E+00  9.000E+00
      -2     1     1     2     0   513  7.793175764E+00 -5.798839704E+00 -1.494930397E+01  1.783117270E+01  3.300000131E-01  0.00000E+00  9.000E+00
       1     1     1     2   513     0 -7.090002071E+00  9.633214919E+00 -2.532633646E+02  2.535458690E+02  3.300000131E-01  0.00000E+00  9.000E+00
      21     1     1     2   511   512 -7.031736924E-01 -3.834375215E+00 -2.724259389E+01  2.752009826E+01  4.768371582E-07  0.00000E+00  9.000E+00
</event>
<event>
      5  10001  2.40292E+09  1.43222E+01 -1.00000E+00  1.79248E-01
      21    -1     0     0   514   513  0.000000000E+00  0.000000000E+00  7.885615970E+01  7.885615970E+01  0.000000000E+00  0.00000E+00  9.000E+00
      21    -1     0     0   511   514  0.000000000E+00  0.000000000E+00 -2.200377867E+00  2.200377867E+00  0.000000000E+00  0.00000E+00  9.000E+00
      21     1     1     2   511   512 -1.325195122E+00 -6.196836149E+00  9.534242573E+00  1.144808726E+01  2.064765462E-07  0.00000E+00  9.000E+00
      21     1     1     2   515   513 -4.485750380E+00  5.174257848E+00  5.986732085E+01  6.025770495E+01  1.348699152E-06  0.00000E+00  9.000E+00
      21     1     1     2   512   515  5.810945502E+00  1.022578301E+00  7.254218415E+00  9.350745362E+00  2.665600750E-07  0.00000E+00  9.000E+00
</event>
<event>
      5  10001  2.40292E+09  9.41815E+00 -1.00000E+00  1.98755E-01
      21    -1     0     0   516   511  0.000000000E+00  0.000000000E+00  7.787039092E+00  7.787039092E+00  0.000000000E+00  0.00000E+00  9.000E+00
      21    -1     0     0   517   513  0.000000000E+00  0.000000000E+00 -1.020524640E+02  1.020524640E+02  0.000000000E+00  0.00000E+00  9.000E+00
      21     1     1     2   515   511  1.244726735E+01 -1.083656407E+01 -6.096563527E+00  1.759356906E+01  3.153981341E-07  0.00000E+00  9.000E+00
      21     1     1     2   517   515 -5.178368287E+00  1.682527449E+01 -6.109562604E+01  6.358129348E+01  1.168007728E-06  0.00000E+00  9.000E+00
      21     1     1     2   516   513 -7.268899067E+00 -5.988710420E+00 -2.707323538E+01  2.866464059E+01  3.371747881E-07  0.00000E+00  9.000E+00
</event>
<event>
      5  10001  2.40292E+09  1.10544E+01 -1.00000E+00  1.90800E-01
      21    -1     0     0   512   511  0.000000000E+00  0.000000000E+00  4.618709330E+00  4.618709330E+00  0.000000000E+00  0.00000E+00  9.000E+00
      21    -1     0     0   514   512  0.000000000E+00  0.000000000E+00 -2.057848526E+02  2.057848526E+02  0.000000000E+00  0.00000E+00  9.000E+00
      21     1     1     2   514   513  1.254927066E+01  4.917388269E+00 -1.734902459E+02  1.740130177E+02  3.303624740E-06  0.00000E+00  9.000E+00
      21     1     1     2   515   511 -5.874211028E+00 -2.235224422E-02  1.500337123E+00  6.062826594E+00  6.478150224E-07  0.00000E+00  9.000E+00
      21     1     1     2   513   515 -6.675059630E+00 -4.895036024E+00 -2.917623451E+01  3.032771767E+01  4.768371582E-07  0.00000E+00  9.000E+00
</event>
<event>
      5  10001  2.40292E+09  4.53082E+00 -1.00000E+00  2.51240E-01
      21    -1     0     0   515   512  0.000000000E+00  0.000000000E+00  3.116306782E+01  3.116306782E+01  0.000000000E+00  0.00000E+00  9.000E+00
      21    -1     0     0   516   515  0.000000000E+00  0.000000000E+00 -3.656215350E+02  3.656215350E+02  0.000000000E+00  0.00000E+00  9.000E+00
      -4     1     1     2     0   511 -8.363830309E+00 -5.798440836E+00 -1.009162579E+02  1.014392265E+02  1.500000000E+00  0.00000E+00  9.000E+00
       4     1     1     2   516     0  1.079216956E+01  9.622262579E+00 -2.640768202E+02  2.644766073E+02  1.500000000E+00  0.00000E+00  9.000E+00
      21     1     1     2   511   512 -2.428339254E+00 -3.823821742E+00  3.053461082E+01  3.086876904E+01  9.536743164E-07  0.00000E+00  9.000E+00
</event>
<event>
      5  10001  2.40292E+09  1.79006E+01 -1.00000E+00  1.70400E-01
      21    -1     0     0   515   512  0.000000000E+00  0.000000000E+00  7.134942734E+01  7.134942734E+01  0.000000000E+00  0.00000E+00  9.000E+00
      -3    -1     0     0     0   513  0.000000000E+00  0.000000000E+00 -7.588258212E+01  7.588258212E+01  0.000000000E+00  0.00000E+00  9.000E+00
      -3     1     1     2     0   514 -1.950373587E+01  2.609468282E+00 -6.705654470E+01  6.988587285E+01  5.000000000E-01  0.00000E+00  9.000E+00
      21     1     1     2   514   512  1.526345172E+01  1.478140922E+01  5.293358277E+01  5.703882188E+01  9.536743164E-07  0.00000E+00  9.000E+00
      21     1     1     2   515   513  4.240284154E+00 -1.739087750E+01  9.589807153E+00  2.030731472E+01  2.384185791E-07  0.00000E+00  9.000E+00
</event>
<event>
      5  10001  2.40292E+09  4.92192E+00 -1.00000E+00  2.43814E-01
      21    -1     0     0   511   513  0.000000000E+00  0.000000000E+00  1.709720742E+00  1.709720742E+00  0.000000000E+00  0.00000E+00  9.000E+00
      21    -1     0     0   517   516  0.000000000E+00  0.000000000E+00 -1.507893986E+02  1.507893986E+02  0.000000000E+00  0.00000E+00  9.000E+00
      21     1     1     2   511   516 -1.176242762E+01  3.691687916E+00 -2.675940721E+01  2.946267363E+01  8.259061849E-07  0.00000E+00  9.000E+00
      21     1     1     2   517   512  7.049422503E+00  1.363673000E-01 -5.695077016E+01  5.738556592E+01  9.536743164E-07  0.00000E+00  9.000E+00
      21     1     1     2   512   513  4.713005120E+00 -3.828055216E+00 -6.536950053E+01  6.565087984E+01  0.000000000E+00  0.00000E+00  9.000E+00
</event>
<event>
      5  10001  2.40292E+09  4.56527E+00 -1.00000E+00  2.50541E-01
      -2    -1     0     0     0   513  0.000000000E+00  0.000000000E+00  6.533086337E+01  6.533086337E+01  0.000000000E+00  0.00000E+00  9.000E+00
      21    -1     0     0   511   514  0.000000000E+00  0.000000000E+00 -4.357313709E+01  4.357313709E+01  0.000000000E+00  0.00000E+00  9.000E+00
      -2     1     1     2     0   512 -1.660094098E+00  1.237655631E+01  6.352482086E+01  6.474138417E+01  3.300000131E-01  0.00000E+00  9.000E+00
      21     1     1     2   511   513 -1.589516697E+00 -9.170100244E+00 -3.287634347E+01  3.416827859E+01  6.743495762E-07  0.00000E+00  9.000E+00
      21     1     1     2   512   514  3.249610795E+00 -3.206456062E+00 -8.890751115E+00  9.994337706E+00  1.192092896E-07  0.00000E+00  9.000E+00
</event>
<event>
      5  10001  2.40292E+09  4.91494E+00 -1.00000E+00  2.43938E-01
      21    -1     0     0   515   513  0.000000000E+00  0.000000000E+00  3.052273899E+01  3.052273899E+01  0.000000000E+00  0.00000E+00  9.000E+00
      21    -1     0     0   517   515  0.000000000E+00  0.000000000E+00 -2.221193129E+01  2.221193129E+01  0.000000000E+00  0.00000E+00  9.000E+00
      21     1     1     2   511   513  7.902751319E+00 -3.866799576E+00  2.399779828E+01  2.555973278E+01  4.768371582E-07  0.00000E+00  9.000E+00
      21     1     1     2   516   511 -1.154961805E+01  7.161797951E+00 -3.498775369E+00  1.403304871E+01  3.209808354E-07  0.00000E+00  9.000E+00
      21     1     1     2   517   516  3.646866730E+00 -3.294998375E+00 -1.218821521E+01  1.314188880E+01  2.384185791E-07  0.00000E+00  9.000E+00
</event>
<event>
      5  10001  2.40292E+09  5.05445E+00 -1.00000E+00  2.37610E-01
      21    -1     0     0   512   516  0.000000000E+00  0.000000000E+00  7.849146395E+01  7.849146395E+01  0.000000000E+00  0.00000E+00  9.000E+00
      21    -1     0     0   511   514  0.000000000E+00  0.000000000E+00 -7.574722206E+00  7.574722206E+00  0.000000000E+00  0.00000E+00  9.000E+00
      21     1     1     2   512   514 -9.296641003E+00  3.837943770E+00  4.728781252E+01  4.834557435E+01  1.348699152E-06  0.00000E+00  9.000E+00
      21     1     1     2   513   516  1.432436519E+01 -4.357034216E+00  2.752850334E+01  3.133671459E+01  4.768371582E-07  0.00000E+00  9.000E+00
      21     1     1     2   511   513 -5.027724183E+00  5.190904455E-01 -3.899574117E+00  6.383897215E+00  1.460009660E-07  0.00000E+00  9.000E+00
</event>
<event>
      5  10001  2.40292E+09  3.70538E+01 -1.00000E+00  1.46899E-01
      21    -1     0     0   515   513  0.000000000E+00  0.000000000E+00  3.862778500E+01  3.862778500E+01  0.000000000E+00  0.00000E+00  9.000E+00
      21    -1     0     0   511   517  0.000000000E+00  0.000000000E+00 -3.061806838E+01  3.061806838E+01  0.000000000E+00  0.00000E+00  9.000E+00
      21     1     1     2   515   517  1.235126933E+01  1.176269881E+01  1.020107137E+01  1.987402311E+01  4.616955931E-07  0.00000E+00  9.000E+00
      21     1     1     2   512   513 -1.350278797E+01 -6.099369296E+00 -2.323054852E+01  2.755332962E+01  4.768371582E-07  0.00000E+00  9.000E+00
      21     1     1     2   511   512  1.151518644E+00 -5.663329513E+00  2.103919377E+01  2.181850066E+01  2.384185791E-07  0.00000E+00  9.000E+00
</event>
<event>
      5  10001  2.40292E+09  6.47460E+00 -1.00000E+00  2.20382E-01
       2    -1     0     0   511     0  0.000000000E+00  0.000000000E+00  2.331808400E+01  2.331808400E+01  0.000000000E+00  0.00000E+00  9.000E+00
      21    -1     0     0   513   512  0.000000000E+00  0.000000000E+00 -2.543054619E+01  2.543054619E+01  0.000000000E+00  0.00000E+00  9.000E+00
      21     1     1     2   511   512 -1.053720118E+01  6.068183960E+00 -7.900873025E+00  1.450100892E+01  2.230201594E-07  0.00000E+00  9.000E+00
       2     1     1     2   514     0  1.356492762E+01 -3.454993608E-01  1.672414848E+01  2.153909639E+01  3.300000131E-01  0.00000E+00  9.000E+00
      21     1     1     2   513   514 -3.027726444E+00 -5.722684599E+00 -1.093573764E+01  1.270852487E+01  2.064765462E-07  0.00000E+00  9.000E+00
</event>
<event>
      5  10001  2.40292E+09  6.47929E+00 -1.00000E+00  2.20335E-01
      21    -1     0     0   515   512  0.000000000E+00  0.000000000E+00  5.106354812E+02  5.106354812E+02  0.000000000E+00  0.00000E+00  9.000E+00
      21    -1     0     0   513   516  0.000000000E+00  0.000000000E+00 -1.081371450E+01  1.081371450E+01  0.000000000E+00  0.00000E+00  9.000E+00
      21     1     1     2   515   516 -3.025624667E+00  9.563788880E+00 -8.407314325E+00  1.308829235E+01  9.078709013E-07  0.00000E+00  9.000E+00
      21     1     1     2   513   511 -3.602695314E-01 -6.534926565E+00  2.242502823E+02  2.243457692E+02  2.697398305E-06  0.00000E+00  9.000E+00
      21     1     1     2   511   512  3.385894198E+00 -3.028862315E+00  2.839787988E+02  2.840151342E+02  0.000000000E+00  0.00000E+00  9.000E+00
</event>
<event>
      5  10001  2.40292E+09  2.48887E+01 -1.00000E+00  1.58858E-01
      -4    -1     0     0     0   512  0.000000000E+00  0.000000000E+00  2.870610880E+02  2.870610880E+02  0.000000000E+00  0.00000E+00  9.000E+00
      21    -1     0     0   512   514  0.000000000E+00  0.000000000E+00 -9.750823598E+00  9.750823598E+00  0.000000000E+00  0.00000E+00  9.000E+00
      -4     1     1     2     0   511 -1.239000771E+01 -8.313911863E+00  2.754111158E+02  2.758190822E+02  1.500000000E+00  0.00000E+00  9.000E+00
      21     1     1     2   513   514  4.783261784E+00 -4.046842031E+00  1.640503173E+00  6.476710151E+00  1.490116119E-07  0.00000E+00  9.000E+00
      21     1     1     2   511   513  7.606745929E+00  1.236075389E+01  2.586454660E-01  1.451611924E+01  4.418514670E-07  0.00000E+00  9.000E+00
</event>
<event>
      5  10001  2.40292E+09  1.06301E+01 -1.00000E+00  1.92682E-01
      -4    -1     0     0     0   512  0.000000000E+00  0.000000000E+00  2.305943298E+02  2.305943298E+02  0.000000000E+00  0.00000E+00  9.000E+00
       5    -1     0     0   512     0  0.000000000E+00  0.000000000E+00 -3.134208614E+01  3.134208614E+01  0.000000000E+00  0.00000E+00  9.000E+00
      -4     1     1     2     0   515  1.679381026E+01  9.678636393E+00  1.808947819E+02  1.819364729E+02  1.500000000E+00  0.00000E+00  9.000E+00
       5     1     1     2   514     0 -1.062767891E+01 -1.294179079E+01 -2.807809466E+01  3.304325815E+01  4.800000191E+00  0.00000E+00  9.000E+00
      21     1     1     2   515   514 -6.166131352E+00  3.263154398E+00  4.643555644E+01  4.695668488E+01  6.743495762E-07  0.00000E+00  9.000E+00
</event>
<event>
      5  10001  2.40292E+09  1.53888E+01 -1.00000E+00  1.76296E-01
      21    -1     0     0   511   514  0.000000000E+00  0.000000000E+00  3.448201498E+00  3.448201498E+00  0.000000000E+00  0.00000E+00  9.000E+00
      21    -1     0     0   512   511  0.000000000E+00  0.000000000E+00 -1.587093131E+02  1.587093131E+02  0.000000000E+00  0.00000E+00  9.000E+00
      21     1     1     2   512   513  7.014908372E+00 -1.077664784E+01 -1.153868710E+02  1.161011416E+02  0.000000000E+00  0.00000E+00  9.000E+00
      21     1     1     2   513   516 -1.002687167E+01  1.241802966E+01 -3.950376448E+01  4.260625570E+01  6.743495762E-07  0.00000E+00  9.000E+00
      21     1     1     2   516   514  3.011963295E+00 -1.641381820E+00 -3.704761561E-01  3.450117354E+00  1.139719676E-07  0.00000E+00  9.000E+00
</event>
<event>
      5  10001  2.40292E+09  9.98494E+00 -1.00000E+00  1.95774E-01
      21    -1     0     0   515   513  0.000000000E+00  0.000000000E+00  6.633360241E+01  6.633360241E+01  0.000000000E+00  0.00000E+00  9.000E+00
      21    -1     0     0   511   514  0.000000000E+00  0.000000000E+00 -5.135203881E+01  5.135203881E+01  0.000000000E+00  0.00000E+00  9.000E+00
      21     1     1     2   515   514 -8.466949307E+00  2.238476691E+00  1.321183370E+01  1.585094818E+01  6.078504936E-07  0.00000E+00  9.000E+00
      21     1     1     2   512   513  1.615077020E+01 -8.614827049E+00  4.965396385E+01  5.292049461E+01  6.743495762E-07  0.00000E+00  9.000E+00
      21     1     1     2   511   512 -7.683820897E+00  6.376350358E+00 -4.788423396E+01  4.891419844E+01  6.743495762E-07  0.00000E+00  9.000E+00
</event>
<event>
      5  10001  2.40292E+09  5.43205E+00 -1.00000E+00  2.32312E-01
      -1    -1     0     0     0   516  0.000000000E+00  0.000000000E+00  5.936823493E+01  5.936823493E+01  0.000000000E+00  0.00000E+00  9.000E+00
      21    -1     0     0   513   512  0.000000000E+00  0.000000000E+00 -4.355285856E+01  4.355285856E+01  0.000000000E+00  0.00000E+00  9.000E+00
      21     1     1     2   514   512  2.715739816E+00 -7.908254653E+00  3.795338305E+01  3.886354358E+01  4.768371582E-07  0.00000E+00  9.000E+00
      21     1     1     2   513   516  1.212974540E+00  1.127843796E+01 -4.201274021E+01  4.351717833E+01  4.768371582E-07  0.00000E+00  9.000E+00
      -1     1     1     2     0   514 -3.928714356E+00 -3.370183311E+00  1.987473352E+01  2.054037158E+01  3.300000131E-01  0.00000E+00  9.000E+00
</event>
<event>
      5  10001  2.40292E+09  3.18052E+00 -1.00000E+00  2.89242E-01
      21    -1     0     0   512   514  0.000000000E+00  0.000000000E+00  7.131400823E+02  7.131400823E+02  0.000000000E+00  0.00000E+00  9.000E+00
      21    -1     0     0   515   511  0.000000000E+00  0.000000000E+00 -2.673087141E+00  2.673087141E+00  0.000000000E+00  0.00000E+00  9.000E+00
      21     1     1     2   513   514  1.065241453E+01  1.219463537E+00  4.537806632E+02  4.539073158E+02  1.078959322E-05  0.00000E+00  9.000E+00
      21     1     1     2   515   513 -9.609801970E+00  1.785314652E+00  6.587708414E+00  1.178700744E+01  1.130918620E-06  0.00000E+00  9.000E+00
      21     1     1     2   512   511 -1.042612555E+00 -3.004778189E+00  2.500986236E+02  2.501188462E+02  2.697398305E-06  0.00000E+00  9.000E+00
</event>
<event>
      5  10001  2.40292E+09  2.57033E+00 -1.00000E+00  3.18685E-01
      21    -1     0     0   515   514  0.000000000E+00  0.000000000E+00  4.240770380E+02  4.240770380E+02  0.000000000E+00  0.00000E+00  9.000E+00
       1    -1     0     0   513     0  0.000000000E+00  0.000000000E+00 -2.285718102E+01  2.285718102E+01  0.000000000E+00  0.00000E+00  9.000E+00
      21     1     1     2   515   516  9.432252086E+00 -3.385186382E+00  2.007571320E+01  2.243793945E+01  4.768371582E-07  0.00000E+00  9.000E+00
       1     1     1     2   516     0 -1.199839365E+01  3.238695138E+00 -1.988900541E+01  2.345489357E+01  3.300000131E-01  0.00000E+00  9.000E+00
      21     1     1     2   513   514  2.566141563E+00  1.464912443E-01  4.010331492E+02  4.010413860E+02  5.394796609E-06  0.00000E+00  9.000E+00
</event>
<event>
      5  10001  2.40292E+09  5.25818E+00 -1.00000E+00  2.34673E-01
      21    -1     0     0   511   514  0.000000000E+00  0.000000000E+00  8.129777499E+00  8.129777499E+00  0.000000000E+00  0.00000E+00  9.000E+00
      21    -1     0     0   512   511  0.000000000E+00  0.000000000E+00 -2.661789289E+01  2.661789289E+01  0.000000000E+00  0.00000E+00  9.000E+00
      21     1     1     2   513   514 -7.724701491E+00  6.555650363E+00  2.270390246E+00  1.038278559E+01  1.429269172E-07  0.00000E+00  9.000E+00
      -4     1     1     2     0   513  4.518098343E+00 -2.250431385E+00 -1.658749532E+01  1.740323691E+01  1.500000000E+00  0.00000E+00  9.000E+00
       4     1     1     2   512     0  3.206603148E+00 -4.305218977E+00 -4.171010321E+00  6.961647886E+00  1.500000000E+00  0.00000E+00  9.000E+00
</event>
<event>
      5  10001  2.40292E+09  1.01501E+01 -1.00000E+00  1.94954E-01
       2    -1     0     0   512     0  0.000000000E+00  0.000000000E+00  5.507673021E+01  5.507673021E+01  0.000000000E+00  0.00000E+00  9.000E+00
      21    -1     0     0   515   511  0.000000000E+00  0.000000000E+00 -5.272652179E+00  5.272652179E+00  0.000000000E+00  0.00000E+00  9.000E+00
       3     1     1     2   512     0  2.890514612E+00  5.990544760E+00  8.590961785E+00  1.087641143E+01  5.000000000E-01  0.00000E+00  9.000E+00
       2     1     1     2   515     0 -5.492316585E+00 -1.106880662E+01  4.191743446E+01  4.370199347E+01  3.300000131E-01  0.00000E+00  9.000E+00
      -3     1     1     2     0   511  2.601801973E+00  5.078261864E+00 -7.043182101E-01  5.770977491E+00  5.000000000E-01  0.00000E+00  9.000E+00
</event>
<event>
      5  10001  2.40292E+09  8.08151E+00 -1.00000E+00  2.07031E-01
       2    -1     0     0   511     0  0.000000000E+00  0.000000000E+00  5.422486414E+01  5.422486414E+01  0.000000000E+00  0.00000E+00  9.000E+00
      21    -1     0     0   514   511  0.000000000E+00  0.000000000E+00 -1.607261186E+01  1.607261186E+01  0.000000000E+00  0.00000E+00  9.000E+00
      21     1     1     2   514   512  5.349023907E+00  2.825590749E+00 -1.261557560E+00  6.179607375E+00  4.942156062E-08  0.00000E+00  9.000E+00
       2     1     1     2   513     0 -1.632026903E+01 -4.013002789E+00  4.753284799E+01  5.041761508E+01  3.300000131E-01  0.00000E+00  9.000E+00
      21     1     1     2   512   513  1.097124512E+01  1.187412039E+00 -8.119038144E+00  1.370025355E+01  1.192092896E-07  0.00000E+00  9.000E+00
</event>
<event>
      5  10001  2.40292E+09  1.19437E+01 -1.00000E+00  1.87190E-01
      21    -1     0     0   515   513  0.000000000E+00  0.000000000E+00  5.611258677E+01  5.611258677E+01  0.000000000E+00  0.00000E+00  9.000E+00
       5    -1     0     0   512     0  0.000000000E+00  0.000000000E+00 -4.119468909E+00  4.119468909E+00  0.000000000E+00  0.00000E+00  9.000E+00
      -4     1     1     2     0   513 -2.801927423E-01 -1.697571022E+00 -2.488488777E+00  3.376807921E+00  1.500000000E+00  0.00000E+00  9.000E+00
       5     1     1     2   515     0  6.675332400E+00  3.656909136E+00  3.698192354E+01  3.806094741E+01  4.800000191E+00  0.00000E+00  9.000E+00
       4     1     1     2   512     0 -6.395139658E+00 -1.959338114E+00  1.749968310E+01  1.879430035E+01  1.500000000E+00  0.00000E+00  9.000E+00
</event>
<event>
      5  10001  2.40292E+09  4.03619E+00 -1.00000E+00  2.62444E-01
      21    -1     0     0   511   512  0.000000000E+00  0.000000000E+00  2.127512562E+01  2.127512562E+01  0.000000000E+00  0.00000E+00  9.000E+00
       1    -1     0     0   513     0  0.000000000E+00  0.000000000E+00 -5.568570520E+01  5.568570520E+01  0.000000000E+00  0.00000E+00  9.000E+00
      21     1     1     2   514   512  7.979115549E-01  5.425996294E+00  1.018229537E+01  1.156534641E+01  3.576278687E-07  0.00000E+00  9.000E+00
       1     1     1     2   511     0 -5.384435324E+00 -1.115188614E+01 -5.288922408E+01  5.432067408E+01  3.300000131E-01  0.00000E+00  9.000E+00
      21     1     1     2   513   514  4.586523769E+00  5.725889844E+00  8.296349133E+00  1.107481032E+01  2.384185791E-07  0.00000E+00  9.000E+00
</event>
<event>
      5  10001  2.40292E+09  1.13436E+01 -1.00000E+00  1.89579E-01
      21    -1     0     0   515   513  0.000000000E+00  0.000000000E+00  5.671912062E+01  5.671912062E+01  0.000000000E+00  0.00000E+00  9.000E+00
      21    -1     0     0   511   514  0.000000000E+00  0.000000000E+00 -8.487544605E+01  8.487544605E+01  0.000000000E+00  0.00000E+00  9.000E+00
      21     1     1     2   515   514  2.205658493E+00 -1.325348827E+01 -7.371268406E+00  1.532499522E+01  1.884864366E-07  0.00000E+00  9.000E+00
      21     1     1     2   512   513  8.380777951E+00  1.732834921E+01  5.052266126E+01  5.406522382E+01  6.743495762E-07  0.00000E+00  9.000E+00
      21     1     1     2   511   512 -1.058643644E+01 -4.074860938E+00 -7.130771829E+01  7.220434763E+01  0.000000000E+00  0.00000E+00  9.000E+00
</event>
<event>
      5  10001  2.40292E+09  3.27378E+00 -1.00000E+00  2.85685E-01
      -4    -1     0     0     0   516  0.000000000E+00  0.000000000E+00  2.477396274E+02  2.477396274E+02  0.000000000E+00  0.00000E+00  9.000E+00
       1    -1     0     0   513     0  0.000000000E+00  0.000000000E+00 -9.230598226E-01  9.230598226E-01  0.000000000E+00  0.00000E+00  9.000E+00
      -4     1     1     2     0   512  2.498223659E+00 -8.964635557E+00  1.131492146E+02  1.135411845E+02  1.500000000E+00  0.00000E+00  9.000E+00
      21     1     1     2   513   516 -5.730805156E+00  9.394131595E+00  1.287040358E+02  1.291736067E+02  1.907348633E-06  0.00000E+00  9.000E+00
       1     1     1     2   512     0  3.232581498E+00 -4.294960374E-01  4.963317294E+00  5.947896145E+00  3.300000131E-01  0.00000E+00  9.000E+00
</event>
<event>
      5  10001  2.40292E+09  8.10500E+00 -1.00000E+00  2.06867E-01
      21    -1     0     0   511   513  0.000000000E+00  0.000000000E+00  1.483885509E+01  1.483885509E+01  0.000000000E+00  0.00000E+00  9.000E+00
      21    -1     0     0   512   515  0.000000000E+00  0.000000000E+00 -4.197779293E+01  4.197779293E+01  0.000000000E+00  0.00000E+00  9.000E+00
      21     1     1     2   511   514  1.027812284E+01 -4.021923269E+00  3.260337513E+00  1.150849584E+01  1.332800375E-07  0.00000E+00  9.000E+00
      21     1     1     2   512   513 -1.012284960E+01 -4.081585410E+00  2.689481045E+00  1.124120687E+01  2.546311541E-07  0.00000E+00  9.000E+00
      21     1     1     2   514   515 -1.552732338E-01  8.103508679E+00 -3.308875641E+01  3.406694532E+01  4.768371582E-07  0.00000E+00  9.000E+00
</event>
<event>
      5  10001  2.40292E+09  4.72837E+00 -1.00000E+00  2.47354E-01
      21    -1     0     0   512   511  0.000000000E+00  0.000000000E+00  6.204156446E+00  6.204156446E+00  0.000000000E+00  0.00000E+00  9.000E+00
       2    -1     0     0   513     0  0.000000000E+00  0.000000000E+00 -1.006512686E+03  1.006512686E+03  0.000000000E+00  0.00000E+00  9.000E+00
      21     1     1     2   512   516 -3.165899128E-01  1.436754380E+01 -1.632415282E+02  1.638728870E+02  1.907348633E-06  0.00000E+00  9.000E+00
       2     1     1     2   516     0  2.153357826E+00 -1.001052974E+01 -8.419700688E+02  8.420323944E+02  3.300000131E-01  0.00000E+00  9.000E+00
      21     1     1     2   513   511 -1.836767913E+00 -4.357014059E+00  4.903067691E+00  6.811560810E+00  1.094195828E-06  0.00000E+00  9.000E+00
</event>
<event>
      5  10001  2.40292E+09  6.40906E+00 -1.00000E+00  2.21038E-01
      21    -1     0     0   514   512  0.000000000E+00  0.000000000E+00  1.106635958E+03  1.106635958E+03  0.000000000E+00  0.00000E+00  9.000E+00
      21    -1     0     0   511   514  0.000000000E+00  0.000000000E+00 -3.373044123E+00  3.373044123E+00  0.000000000E+00  0.00000E+00  9.000E+00
      21     1     1     2   511   513 -2.442019064E+00 -8.632400897E+00  3.646720738E+00  9.684026771E+00  5.543552410E-07  0.00000E+00  9.000E+00
      21     1     1     2   513   515  1.729579776E+00  1.500174262E+01  1.656776352E+02  1.663644269E+02  3.814697266E-06  0.00000E+00  9.000E+00
      21     1     1     2   515   512  7.124392877E-01 -6.369341724E+00  9.339385576E+02  9.339605482E+02  1.078959322E-05  0.00000E+00  9.000E+00
</event>
<event>
      5  10001  2.40292E+09  8.87306E+00 -1.00000E+00  2.01896E-01
       4    -1     0     0   513     0  0.000000000E+00  0.000000000E+00  6.047813719E+00  6.047813719E+00  0.000000000E+00  0.00000E+00  9.000E+00
      21    -1     0     0   515   514  0.000000000E+00  0.000000000E+00 -3.878428673E+01  3.878428673E+01  0.000000000E+00  0.00000E+00  9.000E+00
      21     1     1     2   513   514  4.296747784E+00 -9.310905676E+00 -2.534148376E+01  2.733762618E+01  3.371747881E-07  0.00000E+00  9.000E+00
       4     1     1     2   511     0 -1.853248731E+00  4.171957065E+00  2.985169274E+00  5.656941948E+00  1.500000000E+00  0.00000E+00  9.000E+00
      21     1     1     2   515   511 -2.443499053E+00  5.138948611E+00 -1.038015852E+01  1.183753232E+01  1.192092896E-07  0.00000E+00  9.000E+00
</event>
<event>
      5  10001  2.40292E+09  2.98703E+00 -1.00000E+00  2.97300E-01
       1    -1     0     0   514     0  0.000000000E+00  0.000000000E+00  3.119575202E+00  3.119575202E+00  0.000000000E+00  0.00000E+00  9.000E+00
      21    -1     0     0   512   513  0.000000000E+00  0.000000000E+00 -2.695632012E+02  2.695632012E+02  0.000000000E+00  0.00000E+00  9.000E+00
      21     1     1     2   514   511  1.023128364E+00  8.685905181E+00 -5.083436017E+01  5.158123607E+01  9.536743164E-07  0.00000E+00  9.000E+00
       1     1     1     2   512     0 -3.119009862E-02 -1.150331100E+01 -9.368917541E+00  1.483956376E+01  3.300000131E-01  0.00000E+00  9.000E+00
      21     1     1     2   511   513 -9.919382658E-01  2.817405820E+00 -2.062403483E+02  2.062619766E+02  3.814697266E-06  0.00000E+00  9.000E+00
</event>
<event>
      5  10001  2.40292E+09  6.74171E+00 -1.00000E+00  2.17815E-01
      21    -1     0     0   515   512  0.000000000E+00  0.000000000E+00  1.837792490E+01  1.837792490E+01  0.000000000E+00  0.00000E+00  9.000E+00
      21    -1     0     0   511   514  0.000000000E+00  0.000000000E+00 -1.671936323E+01  1.671936323E+01  0.000000000E+00  0.00000E+00  9.000E+00
      21     1     1     2   515   516 -1.124305001E+01 -4.583674816E-01  7.050100122E+00  1.327856114E+01  2.920019320E-07  0.00000E+00  9.000E+00
      21     1     1     2   511   512  1.182841401E+01  7.174617989E+00 -1.213541125E+00  1.388737568E+01  1.084820910E-07  0.00000E+00  9.000E+00
      21     1     1     2   516   514 -5.853640056E-01 -6.716250507E+00 -4.177997332E+00  7.931351310E+00  5.960464478E-08  0.00000E+00  9.000E+00
</event>
<event>
      5  10001  2.40292E+09  3.33567E+00 -1.00000E+00  2.83430E-01
      21    -1     0     0   513   512  0.000000000E+00  0.000000000E+00  1.715022647E+01  1.715022647E+01  0.000000000E+00  0.00000E+00  9.000E+00
      21    -1     0     0   517   513  0.000000000E+00  0.000000000E+00 -2.424367382E+01  2.424367382E+01  0.000000000E+00  0.00000E+00  9.000E+00
      21     1     1     2   511   512 -1.273036402E+00  1.150513998E+01  1.307544271E+01  1.746299143E+01  1.685873940E-07  0.00000E+00  9.000E+00
      21     1     1     2   515   511 -2.738254954E-01 -7.080514813E+00 -1.656981097E+01  1.802130145E+01  2.384185791E-07  0.00000E+00  9.000E+00
      21     1     1     2   517   515  1.546861898E+00 -4.424625163E+00 -3.599079089E+00  5.909607420E+00  9.424321831E-08  0.00000E+00  9.000E+00
</event>
<event>
      5  10001  2.40292E+09  4.69930E+00 -1.00000E+00  2.47908E-01
      21    -1     0     0   511   515  0.000000000E+00  0.000000000E+00  1.541860201E+01  1.541860201E+01  0.000000000E+00  0.00000E+00  9.000E+00
       2    -1     0     0   512     0  0.000000000E+00  0.000000000E+00 -9.096492073E+01  9.096492073E+01  0.000000000E+00  0.00000E+00  9.000E+00
      21     1     1     2   512   515  1.331893227E+01  3.014351479E+00 -4.741576723E+01  4.934303653E+01  6.743495762E-07  0.00000E+00  9.000E+00
       2     1     1     2   514     0 -8.998005698E+00 -4.861328599E+00 -4.156599226E+01  4.280697647E+01  3.300000131E-01  0.00000E+00  9.000E+00
      21     1     1     2   511   514 -4.320926567E+00  1.846977120E+00  1.343544077E+01  1.423350974E+01  2.920019320E-07  0.00000E+00  9.000E+00
</event>
<event>
      5  10001  2.40292E+09  5.93554E+00 -1.00000E+00  2.26124E-01
      21    -1     0     0   513   514  0.000000000E+00  0.000000000E+00  9.791452579E+00  9.791452579E+00  0.000000000E+00  0.00000E+00  9.000E+00
      21    -1     0     0   512   516  0.000000000E+00  0.000000000E+00 -1.071220200E+01  1.071220200E+01  0.000000000E+00  0.00000E+00  9.000E+00
      21     1     1     2   513   516 -8.663308628E+00 -3.496090579E-01  3.002193723E-01  8.675556152E+00  8.371548747E-08  0.00000E+00  9.000E+00
      21     1     1     2   512   515  6.267325336E+00  1.795739756E+00 -4.188545198E+00  7.749061816E+00  2.384185791E-07  0.00000E+00  9.000E+00
      21     1     1     2   515   514  2.395983292E+00 -1.446130698E+00  2.967576407E+00  4.079036609E+00  7.300048300E-08  0.00000E+00  9.000E+00
</event>
<event>
      5  10001  2.40292E+09  2.20626E+01 -1.00000E+00  1.62887E-01
      -2    -1     0     0     0   512  0.000000000E+00  0.000000000E+00  1.515355863E+02  1.515355863E+02  0.000000000E+00  0.00000E+00  9.000E+00
      -1    -1     0     0     0   513  0.000000000E+00  0.000000000E+00 -2.452657377E+01  2.452657377E+01  0.000000000E+00  0.00000E+00  9.000E+00
      -2     1     1     2     0   513 -1.751321405E+01  3.368189400E+00  3.265484891E+00  1.813366090E+01  3.300000131E-01  0.00000E+00  9.000E+00
      -1     1     1     2     0   511  3.920417920E+01 -7.397237923E+00  8.760142256E+00  4.084771460E+01  3.300000131E-01  0.00000E+00  9.000E+00
      21     1     1     2   511   512 -2.169096515E+01  4.029048522E+00  1.149833854E+02  1.170807845E+02  1.348699152E-06  0.00000E+00  9.000E+00
</event>
<event>
      5  10001  2.40292E+09  4.56131E+00 -1.00000E+00  2.50621E-01
      21    -1     0     0   514   513  0.000000000E+00  0.000000000E+00  3.623177516E-01  3.623177516E-01  0.000000000E+00  0.00000E+00  9.000E+00
      21    -1     0     0   512   514  0.000000000E+00  0.000000000E+00 -8.857970296E+02  8.857970296E+02  0.000000000E+00  0.00000E+00  9.000E+00
      21     1     1     2   515   511  1.179299633E+01 -9.157933405E-02 -2.734106859E+02  2.736649161E+02  3.814697266E-06  0.00000E+00  9.000E+00
      21     1     1     2   512   515 -9.945409037E+00  4.261947544E+00 -5.841084586E+02  5.842086672E+02  1.078959322E-05  0.00000E+00  9.000E+00
      21     1     1     2   511   513 -1.847587289E+00 -4.170368210E+00 -2.791556733E+01  2.828576407E+01  8.920806376E-07  0.00000E+00  9.000E+00
</event>
<event>
      5  10001  2.40292E+09  6.92581E+00 -1.00000E+00  2.16138E-01
       1    -1     0     0   511     0  0.000000000E+00  0.000000000E+00  2.258810260E+02  2.258810260E+02  0.000000000E+00  0.00000E+00  9.000E+00
      21    -1     0     0   516   512  0.000000000E+00  0.000000000E+00 -6.634187061E+00  6.634187061E+00  0.000000000E+00  0.00000E+00  9.000E+00
      21     1     1     2   511   514  6.369965172E-01  8.413766468E+00  5.535918044E+01  5.599853650E+01  0.000000000E+00  0.00000E+00  9.000E+00
       1     1     1     2   516     0  3.081486197E+00 -1.425649601E+01  1.678866631E+02  1.685193870E+02  3.300000131E-01  0.00000E+00  9.000E+00
      21     1     1     2   514   512 -3.718482714E+00  5.842729538E+00 -3.999004643E+00  7.997289559E+00  2.950279396E-07  0.00000E+00  9.000E+00
</event>
<event>
      5  10001  2.40292E+09  8.12207E+00 -1.00000E+00  2.06749E-01
      21    -1     0     0   513   512  0.000000000E+00  0.000000000E+00  7.984708148E+01  7.984708148E+01  0.000000000E+00  0.00000E+00  9.000E+00
      21    -1     0     0   514   515  0.000000000E+00  0.000000000E+00 -2.266878788E+00  2.266878788E+00  0.000000000E+00  0.00000E+00  9.000E+00
      21     1     1     2   513   515 -9.503292378E+00  4.895271674E+00  4.809266043E+01  4.926642100E+01  0.000000000E+00  0.00000E+00  9.000E+00
      21     1     1     2   514   511  5.366135400E+00 -7.183144920E+00  2.391038496E+01  2.553623874E+01  5.840038640E-07  0.00000E+00  9.000E+00
      21     1     1     2   511   512  4.137156978E+00  2.287873246E+00  5.577157296E+00  7.311300524E+00  1.032382731E-07  0.00000E+00  9.000E+00
</event>
<event>
      5  10001  2.40292E+09  3.99916E+00 -1.00000E+00  2.63383E-01
      21    -1     0     0   516   514  0.000000000E+00  0.000000000E+00  4.749869835E+01  4.749869835E+01  0.000000000E+00  0.00000E+00  9.000E+00
      21    -1     0     0   517   513  0.000000000E+00  0.000000000E+00 -9.668978641E+01  9.668978641E+01  0.000000000E+00  0.00000E+00  9.000E+00
      21     1     1     2   516   512  1.276822345E+01  8.796608143E-01  4.515053657E+01  4.692943943E+01  1.066240300E-06  0.00000E+00  9.000E+00
      21     1     1     2   517   514 -8.769073863E+00 -8.872546373E-01 -9.238933622E+01  9.280879982E+01  0.000000000E+00  0.00000E+00  9.000E+00
      21     1     1     2   512   513 -3.999149583E+00  7.593822921E-03 -1.952288418E+00  4.450245512E+00  4.214684851E-08  0.00000E+00  9.000E+00
</event>
<event>
      5  10001  2.40292E+09  8.55944E+00 -1.00000E+00  2.03841E-01
      21    -1     0     0   514   513  0.000000000E+00  0.000000000E+00  1.951908720E+00  1.951908720E+00  0.000000000E+00  0.00000E+00  9.000E+00
      21    -1     0     0   512   515  0.000000000E+00  0.000000000E+00 -5.087477515E+02  5.087477515E+02  0.000000000E+00  0.00000E+00  9.000E+00
      21     1     1     2   511   515 -2.280690225E+01  1.617304307E+00 -3.239207833E+02  3.247267225E+02  5.394796609E-06  0.00000E+00  9.000E+00
      21     1     1     2   512   513  1.427933380E+01 -2.355227916E+00 -1.693480550E+02  1.699653206E+02  1.907348633E-06  0.00000E+00  9.000E+00
      21     1     1     2   514   511  8.527568449E+00  7.379236083E-01 -1.352700440E+01  1.600761703E+01  4.129530925E-07  0.00000E+00  9.000E+00
</event>
<event>
      5  10001  2.40292E+09  6.62867E+00 -1.00000E+00  2.18881E-01
      21    -1     0     0   516   512  0.000000000E+00  0.000000000E+00  1.974777133E+01  1.974777133E+01  0.000000000E+00  0.00000E+00  9.000E+00
       2    -1     0     0   517     0  0.000000000E+00  0.000000000E+00 -4.822183731E+01  4.822183731E+01  0.000000000E+00  0.00000E+00  9.000E+00
      21     1     1     2   516   511  1.591447950E+01  1.890302656E+00  1.106675830E+01  1.947606329E+01  2.384185791E-07  0.00000E+00  9.000E+00
      21     1     1     2   517   512 -9.298316857E+00 -1.487002707E+00 -1.095937962E+00  9.480029190E+00  2.694598037E-07  0.00000E+00  9.000E+00
       2     1     1     2   511     0 -6.616162646E+00 -4.032999484E-01 -3.844488632E+01  3.901351616E+01  3.300000131E-01  0.00000E+00  9.000E+00
</event>
<event>
      5  10001  2.40292E+09  1.21860E+01 -1.00000E+00  1.86276E-01
      21    -1     0     0   513   511  0.000000000E+00  0.000000000E+00  3.680952560E+00  3.680952560E+00  0.000000000E+00  0.00000E+00  9.000E+00
      21    -1     0     0   514   513  0.000000000E+00  0.000000000E+00 -3.456968299E+01  3.456968299E+01  0.000000000E+00  0.00000E+00  9.000E+00
      21     1     1     2   514   515 -3.141472350E+00  4.598045947E+00 -1.150886119E+01  1.278533382E+01  1.685873940E-07  0.00000E+00  9.000E+00
       3     1     1     2   515     0  7.107176198E+00 -7.088469072E+00 -1.790056922E+01  2.052897283E+01  5.000000000E-01  0.00000E+00  9.000E+00
      -3     1     1     2     0   511 -3.965703849E+00  2.490423125E+00 -1.479300017E+00  4.936328889E+00  5.000000000E-01  0.00000E+00  9.000E+00
</event>
<event>
      5  10001  2.40292E+09  3.50078E+01 -1.00000E+00  1.48492E-01
      21    -1     0     0   512   515  0.000000000E+00  0.000000000E+00  2.210862781E+01  2.210862781E+01  0.000000000E+00  0.00000E+00  9.000E+00
      21    -1     0     0   514   511  0.000000000E+00  0.000000000E+00 -1.077018726E+02  1.077018726E+02  0.000000000E+00  0.00000E+00  9.000E+00
      21     1     1     2   512   511  2.401017541E+00 -1.261832783E+01  1.957899659E+01  2.341632315E+01  4.768371582E-07  0.00000E+00  9.000E+00
      21     1     1     2   514   513 -2.220729739E+00 -3.551497967E-01 -6.621274212E+00  6.992785149E+00  0.000000000E+00  0.00000E+00  9.000E+00
      21     1     1     2   513   515 -1.802878025E-01  1.297347763E+01 -9.855096711E+01  9.940139207E+01  0.000000000E+00  0.00000E+00  9.000E+00
</event>
<event>
      5  10001  2.40292E+09  8.47848E+00 -1.00000E+00  2.04362E-01
       3    -1     0     0   511     0  0.000000000E+00  0.000000000E+00  4.477440467E+01  4.477440467E+01  0.000000000E+00  0.00000E+00  9.000E+00
      21    -1     0     0   516   511  0.000000000E+00  0.000000000E+00 -9.457185104E+00  9.457185104E+00  0.000000000E+00  0.00000E+00  9.000E+00
      21     1     1     2   516   513 -4.550078736E-01 -1.421901298E+01 -1.141104666E+00  1.427198242E+01  3.959336953E-07  0.00000E+00  9.000E+00
       3     1     1     2   512     0  2.014891814E-01  3.882822326E+00  2.099687594E+01  2.135967477E+01  5.000000000E-01  0.00000E+00  9.000E+00
      21     1     1     2   513   512  2.535186921E-01  1.033619065E+01  1.546144829E+01  1.859993259E+01  4.460403188E-07  0.00000E+00  9.000E+00
</event>
<event>
      5  10001  2.40292E+09  7.05105E+00 -1.00000E+00  2.15038E-01
      21    -1     0     0   514   512  0.000000000E+00  0.000000000E+00  1.767806510E+02  1.767806510E+02  0.000000000E+00  0.00000E+00  9.000E+00
      21    -1     0     0   513   515  0.000000000E+00  0.000000000E+00 -1.715080940E+01  1.715080940E+01  0.000000000E+00  0.00000E+00  9.000E+00
      21     1     1     2   514   515 -9.631033069E+00 -2.896883867E+00 -1.509193455E+01  1.813602003E+01  7.539457465E-07  0.00000E+00  9.000E+00
      21     1     1     2   513   511  6.972492369E+00  8.050002414E+00  1.510065260E+02  1.513816009E+02  1.907348633E-06  0.00000E+00  9.000E+00
      21     1     1     2   511   512  2.658540699E+00 -5.153118546E+00  2.371525013E+01  2.441383948E+01  4.768371582E-07  0.00000E+00  9.000E+00
</event>
<event>
      5  10001  2.40292E+09  8.21959E+00 -1.00000E+00  2.06080E-01
      21    -1     0     0   511   512  0.000000000E+00  0.000000000E+00  4.882398105E+00  4.882398105E+00  0.000000000E+00  0.00000E+00  9.000E+00
      21    -1     0     0   513   514  0.000000000E+00  0.000000000E+00 -6.145321344E+01  6.145321344E+01  0.000000000E+00  0.00000E+00  9.000E+00
      21     1     1     2   513   512 -1.654855852E+00 -7.478842403E+00 -8.637862497E+00  1.154488199E+01  1.192092896E-07  0.00000E+00  9.000E+00
       1     1     1     2   511     0  4.090068165E+00  1.532726308E+01 -1.922063910E+01  2.492379422E+01  3.300000131E-01  0.00000E+00  9.000E+00
      -1     1     1     2     0   514 -2.435212313E+00 -7.848420674E+00 -2.871231375E+01  2.986693534E+01  3.300000131E-01  0.00000E+00  9.000E+00
</event>
<event>
      5  10001  2.40292E+09  3.20128E+00 -1.00000E+00  2.88433E-01
       1    -1     0     0   514     0  0.000000000E+00  0.000000000E+00  4.463556371E+02  4.463556371E+02  0.000000000E+00  0.00000E+00  9.000E+00
      21    -1     0     0   515   514  0.000000000E+00  0.000000000E+00 -3.727181445E+01  3.727181445E+01  0.000000000E+00  0.00000E+00  9.000E+00
      -1     1     1     2     0   513 -1.189704404E+01  1.245927357E+01  1.822121658E+01  2.507777479E+01  3.300000131E-01  0.00000E+00  9.000E+00
       1     1     1     2   515     0  9.649555212E+00 -1.473888879E+01 -3.154365980E+01  3.613115183E+01  3.300000131E-01  0.00000E+00  9.000E+00
       1     1     1     2   513     0  2.247488830E+00  2.279615225E+00  4.224062659E+02  4.224185249E+02  3.300000131E-01  0.00000E+00  9.000E+00
</event>
<event>
      5  10001  2.40292E+09  3.84427E+00 -1.00000E+00  2.67489E-01
      21    -1     0     0   515   511  0.000000000E+00  0.000000000E+00  8.087112306E-01  8.087112306E-01  0.000000000E+00  0.00000E+00  9.000E+00
      21    -1     0     0   512   514  0.000000000E+00  0.000000000E+00 -2.469132365E+02  2.469132365E+02  0.000000000E+00  0.00000E+00  9.000E+00
      -2     1     1     2     0   514  3.547142527E+00  9.905506983E+00 -1.330035722E+02  1.334194903E+02  3.300000131E-01  0.00000E+00  9.000E+00
      21     1     1     2   512   511 -7.383041961E+00 -9.688016176E+00 -9.614651920E+01  9.691501493E+01  0.000000000E+00  0.00000E+00  9.000E+00
       2     1     1     2   515     0  3.835899434E+00 -2.174908072E-01 -1.695443390E+01  1.738744247E+01  3.300000131E-01  0.00000E+00  9.000E+00
</event>
<event>
      5  10001  2.40292E+09  5.85890E+00 -1.00000E+00  2.27009E-01
      21    -1     0     0   513   511  0.000000000E+00  0.000000000E+00  6.382120994E+02  6.382120994E+02  0.000000000E+00  0.00000E+00  9.000E+00
      21    -1     0     0   517   516  0.000000000E+00  0.000000000E+00 -1.311627612E+01  1.311627612E+01  0.000000000E+00  0.00000E+00  9.000E+00
      21     1     1     2   513   516  5.813192197E+00  1.156331415E+01  3.570054181E+02  3.572399362E+02  6.607249480E-06  0.00000E+00  9.000E+00
      21     1     1     2   517   512 -1.153987226E+00 -8.011062551E+00 -1.170548982E+01  1.423120872E+01  1.460009660E-06  0.00000E+00  9.000E+00
      21     1     1     2   512   511 -4.659204971E+00 -3.552251599E+00  2.797958950E+02  2.798572306E+02  3.814697266E-06  0.00000E+00  9.000E+00
</event>
<event>
      5  10001  2.40292E+09  6.17635E+00 -1.00000E+00  2.23458E-01
       2    -1     0     0   514     0  0.000000000E+00  0.000000000E+00  2.679517194E+02  2.679517194E+02  0.000000000E+00  0.00000E+00  9.000E+00
      21    -1     0     0   512   514  0.000000000E+00  0.000000000E+00 -4.674535636E+00  4.674535636E+00  0.000000000E+00  0.00000E+00  9.000E+00
      -1     1     1     2     0   511 -7.388965384E+00  7.808840917E+00  1.477898144E+02  1.481806767E+02  3.300000131E-01  0.00000E+00  9.000E+00
       1     1     1     2   512     0  2.186059095E+00 -1.113582604E+01  2.938985001E+00  1.172740418E+01  3.300000131E-01  0.00000E+00  9.000E+00
       2     1     1     2   511     0  5.202906289E+00  3.326985119E+00  1.125483843E+02  1.127181741E+02  3.300000131E-01  0.00000E+00  9.000E+00
</event>
<event>
      5  10001  2.40292E+09  1.26704E+01 -1.00000E+00  1.84528E-01
      21    -1     0     0   513   512  0.000000000E+00  0.000000000E+00  3.200376670E+01  3.200376670E+01  0.000000000E+00  0.00000E+00  9.000E+00
      21    -1     0     0   511   515  0.000000000E+00  0.000000000E+00 -7.909604047E+00  7.909604047E+00  0.000000000E+00  0.00000E+00  9.000E+00
      21     1     1     2   513   515 -1.142645752E+01 -3.568452820E+00  1.494464668E+00  1.206363177E+01  2.904771073E-07  0.00000E+00  9.000E+00
       4     1     1     2   511     0  5.670264555E+00  4.437386460E+00  4.148813853E+00  8.444226140E+00  1.500000000E+00  0.00000E+00  9.000E+00
      -4     1     1     2     0   512  5.756192962E+00 -8.689336398E-01  1.845088414E+01  1.940551284E+01  1.500000000E+00  0.00000E+00  9.000E+00
</event>
<event>
      5  10001  2.40292E+09  4.61798E+00 -1.00000E+00  2.49489E-01
       4    -1     0     0   511     0  0.000000000E+00  0.000000000E+00  2.322655935E+01  2.322655935E+01  0.000000000E+00  0.00000E+00  9.000E+00
      21    -1     0     0   516   513  0.000000000E+00  0.000000000E+00 -1.661524183E+02  1.661524183E+02  0.000000000E+00  0.00000E+00  9.000E+00
      21     1     1     2   516   514 -1.421951114E+01  2.743146659E+00 -1.557707133E+02  1.564424318E+02  4.672030912E-06  0.00000E+00  9.000E+00
       4     1     1     2   514     0  1.882445480E+01 -3.080480773E+00  1.782156865E+01  2.614780621E+01  1.500000000E+00  0.00000E+00  9.000E+00
      21     1     1     2   511   513 -4.604943662E+00  3.373341136E-01 -4.976714247E+00  6.788739584E+00  5.960464478E-08  0.00000E+00  9.000E+00
</event>
<event>
      5  10001  2.40292E+09  6.75169E+00 -1.00000E+00  2.17722E-01
      21    -1     0     0   512   514  0.000000000E+00  0.000000000E+00  3.093498720E+02  3.093498720E+02  0.000000000E+00  0.00000E+00  9.000E+00
      21    -1     0     0   516   512  0.000000000E+00  0.000000000E+00 -1.451039030E+02  1.451039030E+02  0.000000000E+00  0.00000E+00  9.000E+00
      21     1     1     2   515   513  9.863805465E+00  1.079958069E+01 -4.702366762E+01  4.924582132E+01  1.907348633E-06  0.00000E+00  9.000E+00
      21     1     1     2   513   514 -6.620619870E+00 -1.672132668E+01  3.078585253E+02  3.083833766E+02  3.814697266E-06  0.00000E+00  9.000E+00
      21     1     1     2   516   515 -3.243185595E+00  5.921745991E+00 -9.658888864E+01  9.682457713E+01  1.348699152E-06  0.00000E+00  9.000E+00
</event>
<event>
      5  10001  2.40292E+09  8.02980E+00 -1.00000E+00  2.07394E-01
      21    -1     0     0   512   513  0.000000000E+00  0.000000000E+00  1.136673369E+01  1.136673369E+01  0.000000000E+00  0.00000E+00  9.000E+00
      21    -1     0     0   516   511  0.000000000E+00  0.000000000E+00 -1.438958472E+02  1.438958472E+02  0.000000000E+00  0.00000E+00  9.000E+00
      21     1     1     2   516   515  2.071746312E+01  7.048065031E+00 -1.050472246E+02  1.073024132E+02  1.348699152E-06  0.00000E+00  9.000E+00
      21     1     1     2   515   513 -1.892128298E+01  7.782622847E-01 -3.311785736E+01  3.814987704E+01  9.536743164E-07  0.00000E+00  9.000E+00
      21     1     1     2   512   511 -1.796180146E+00 -7.826327316E+00  5.635968394E+00  9.810290623E+00  1.788139343E-07  0.00000E+00  9.000E+00
</event>
<event>
      5  10001  2.40292E+09  2.04077E+00 -1.00000E+00  3.58821E-01
      21    -1     0     0   513   514  0.000000000E+00  0.000000000E+00  4.070025295E+00  4.070025295E+00  0.000000000E+00  0.00000E+00  9.000E+00
      21    -1     0     0   512   511  0.000000000E+00  0.000000000E+00 -3.435298644E+01  3.435298644E+01  0.000000000E+00  0.00000E+00  9.000E+00
      -2     1     1     2     0   511 -5.854488787E+00  6.952176848E+00 -1.368298825E+01  1.642987734E+01  3.300000131E-01  0.00000E+00  9.000E+00
      21     1     1     2   512   514  7.660067169E+00 -7.899190729E+00 -1.661442194E+01  1.992769077E+01  3.371747881E-07  0.00000E+00  9.000E+00
       2     1     1     2   513     0 -1.805578382E+00  9.470138807E-01  1.444904208E-02  2.065443625E+00  3.300000131E-01  0.00000E+00  9.000E+00
</event>
<event>
      5  10001  2.40292E+09  4.98520E+00 -1.00000E+00  2.42710E-01
      21    -1     0     0   515   511  0.000000000E+00  0.000000000E+00  2.900209517E+02  2.900209517E+02  0.000000000E+00  0.00000E+00  9.000E+00
      21    -1     0     0   517   512  0.000000000E+00  0.000000000E+00 -3.366747692E+01  3.366747692E+01  0.000000000E+00  0.00000E+00  9.000E+00
      21     1     1     2   515   516 -1.262938555E+01  7.665922334E+00  2.445038681E+02  2.449498097E+02  2.697398305E-06  0.00000E+00  9.000E+00
      21     1     1     2   517   511  1.092939879E+01 -2.979536076E+00  4.439301190E+01  4.581559668E+01  8.259061849E-07  0.00000E+00  9.000E+00
      21     1     1     2   516   512  1.699986756E+00 -4.686386258E+00 -3.254340523E+01  3.292302227E+01  6.743495762E-07  0.00000E+00  9.000E+00
</event>
<event>
      5  10001  2.40292E+09  7.95790E+00 -1.00000E+00  2.07904E-01
       2    -1     0     0   514     0  0.000000000E+00  0.000000000E+00  9.500518395E+02  9.500518395E+02  0.000000000E+00  0.00000E+00  9.000E+00
      21    -1     0     0   513   512  0.000000000E+00  0.000000000E+00 -2.389499436E+00  2.389499436E+00  0.000000000E+00  0.00000E+00  9.000E+00
      21     1     1     2   514   512 -2.109287144E+00  3.158251114E+01  1.246920937E+02  1.286468901E+02  0.000000000E+00  0.00000E+00  9.000E+00
       2     1     1     2   511     0 -7.775944714E-01 -2.472780177E+01  7.573453548E+02  7.577494073E+02  3.300000131E-01  0.00000E+00  9.000E+00
      21     1     1     2   513   511  2.886881615E+00 -6.854709370E+00  6.562489151E+01  6.604504154E+01  0.000000000E+00  0.00000E+00  9.000E+00
</event>
<event>
      5  10001  2.40292E+09  4.78256E+00 -1.00000E+00  2.46338E-01
      21    -1     0     0   512   511  0.000000000E+00  0.000000000E+00  2.395006311E+02  2.395006311E+02  0.000000000E+00  0.00000E+00  9.000E+00
      21    -1     0     0   513   516  0.000000000E+00  0.000000000E+00 -7.174271076E+01  7.174271076E+01  0.000000000E+00  0.00000E+00  9.000E+00
      21     1     1     2   515   516  9.521968837E+00  6.284024170E+00 -6.681467684E+01  6.778169290E+01  9.536743164E-07  0.00000E+00  9.000E+00
      21     1     1     2   513   511 -1.419580407E+01 -7.298021870E+00  9.994722363E+00  1.883285564E+01  3.371747881E-07  0.00000E+00  9.000E+00
      21     1     1     2   512   515  4.673835233E+00  1.013997701E+00  2.245778748E+02  2.246287933E+02  3.814697266E-06  0.00000E+00  9.000E+00
</event>
<event>
      5  10001  2.40292E+09  5.27275E+00 -1.00000E+00  2.34470E-01
      21    -1     0     0   513   516  0.000000000E+00  0.000000000E+00  1.865684921E+02  1.865684921E+02  0.000000000E+00  0.00000E+00  9.000E+00
       2    -1     0     0   511     0  0.000000000E+00  0.000000000E+00 -6.480234534E+00  6.480234534E+00  0.000000000E+00  0.00000E+00  9.000E+00
      21     1     1     2   513   514  8.556187280E+00 -9.039805796E-01  5.139298257E+00  1.002187149E+01  1.032382731E-07  0.00000E+00  9.000E+00
       2     1     1     2   514     0 -1.234632152E+01  4.569349952E+00  6.847575125E+00  1.484280294E+01  3.300000131E-01  0.00000E+00  9.000E+00
      21     1     1     2   511   516  3.790134239E+00 -3.665369373E+00  1.681013842E+02  1.681840522E+02  1.907348633E-06  0.00000E+00  9.000E+00
</event>
<event>
      5  10001  2.40292E+09  1.62029E+01 -1.00000E+00  1.74239E-01
      21    -1     0     0   512   516  0.000000000E+00  0.000000000E+00  2.922307217E+00  2.922307217E+00  0.000000000E+00  0.00000E+00  9.000E+00
      21    -1     0     0   511   512  0.000000000E+00  0.000000000E+00 -5.178101874E+01  5.178101874E+01  0.000000000E+00  0.00000E+00  9.000E+00
      21     1     1     2   515   516 -4.672622059E+00  5.533321323E+00 -7.566084863E+00  1.047361838E+01  1.460009660E-07  0.00000E+00  9.000E+00
      21     1     1     2   513   515  6.060788836E+00 -2.799118713E-01 -6.041302045E+00  8.562058302E+00  1.884864366E-07  0.00000E+00  9.000E+00
      21     1     1     2   511   513 -1.388166777E+00 -5.253409452E+00 -3.525132462E+01  3.566764928E+01  4.768371582E-07  0.00000E+00  9.000E+00
</event>
<event>
      5  10001  2.40292E+09  4.87749E+00 -1.00000E+00  2.44605E-01
       1    -1     0     0   512     0  0.000000000E+00  0.000000000E+00  2.413897469E+01  2.413897469E+01  0.000000000E+00  0.00000E+00  9.000E+00
      21    -1     0     0   513   512  0.000000000E+00  0.000000000E+00 -6.640535717E+01  6.640535717E+01  0.000000000E+00  0.00000E+00  9.000E+00
      21     1     1     2   515   514 -7.903325772E+00 -1.160341417E+01 -3.894522027E+01  4.139845360E+01  4.768371582E-07  0.00000E+00  9.000E+00
       1     1     1     2   514     0  1.099927433E+01  1.339493431E+01  1.947382316E+01  2.607195791E+01  3.300000131E-01  0.00000E+00  9.000E+00
      21     1     1     2   513   515 -3.095948558E+00 -1.791520135E+00 -2.279498537E+01  2.307392034E+01  5.840038640E-07  0.00000E+00  9.000E+00
</event>
<event>
      5  10001  2.40292E+09  9.36838E+00 -1.00000E+00  1.99030E-01
      21    -1     0     0   511   514  0.000000000E+00  0.000000000E+00  6.050673003E+01  6.050673003E+01  0.000000000E+00  0.00000E+00  9.000E+00
      21    -1     0     0   513   515  0.000000000E+00  0.000000000E+00 -6.598842404E+00  6.598842404E+00  0.000000000E+00  0.00000E+00  9.000E+00
      21     1     1     2   511   515  8.837714907E+00 -9.189144918E-01  4.912384005E+01  4.992095021E+01  6.743495762E-07  0.00000E+00  9.000E+00
      21     1     1     2   513   512 -2.626794779E+00  4.085631839E+00 -3.770598117E+00  6.148971336E+00  2.457562462E-07  0.00000E+00  9.000E+00
      21     1     1     2   512   514 -6.210920128E+00 -3.166717347E+00  8.554645696E+00  1.103565089E+01  2.064765462E-07  0.00000E+00  9.000E+00
</event>
<event>
      5  10001  2.40292E+09  7.16429E+00 -1.00000E+00  2.14069E-01
      21    -1     0     0   511   513  0.000000000E+00  0.000000000E+00  4.452017009E+00  4.452017009E+00  0.000000000E+00  0.00000E+00  9.000E+00
      21    -1     0     0   516   511  0.000000000E+00  0.000000000E+00 -9.364772451E+01  9.364772451E+01  0.000000000E+00  0.00000E+00  9.000E+00
      21     1     1     2   516   512  3.910609988E+00  1.004455432E+01 -5.929918211E+01  6.027087971E+01  6.743495762E-07  0.00000E+00  9.000E+00
       4     1     1     2   512     0  3.202108803E+00 -1.058015533E+01 -2.822677970E+01  3.035118251E+01  1.500000000E+00  0.00000E+00  9.000E+00
      -4     1     1     2     0   513 -7.112718791E+00  5.356010059E-01 -1.669745691E+00  7.477679300E+00  1.500000000E+00  0.00000E+00  9.000E+00
</event>
<event>
      5  10001  2.40292E+09  7.99014E+00 -1.00000E+00  2.07675E-01
      21    -1     0     0   511   512  0.000000000E+00  0.000000000E+00  4.453312358E+02  4.453312358E+02  0.000000000E+00  0.00000E+00  9.000E+00
      21    -1     0     0   513   514  0.000000000E+00  0.000000000E+00 -2.154832265E+01  2.154832265E+01  0.000000000E+00  0.00000E+00  9.000E+00
      21     1     1     2   513   515 -3.280466495E+00 -9.751848447E+00 -1.661508589E+01  1.954280143E+01  5.331201500E-07  0.00000E+00  9.000E+00
      21     1     1     2   515   512  1.127037052E+01  9.812709053E+00  1.283448634E+01  1.969859260E+01  2.920019320E-07  0.00000E+00  9.000E+00
      21     1     1     2   511   514 -7.989904029E+00 -6.086060615E-02  4.275635127E+02  4.276381644E+02  7.629394531E-06  0.00000E+00  9.000E+00
</event>
<event>
      5  10001  2.40292E+09  4.13438E+00 -1.00000E+00  2.60029E-01
      -2    -1     0     0     0   512  0.000000000E+00  0.000000000E+00  1.488183164E+00  1.488183164E+00  0.000000000E+00  0.00000E+00  9.000E+00
       2    -1     0     0   512     0  0.000000000E+00  0.000000000E+00 -3.856901922E+02  3.856901922E+02  0.000000000E+00  0.00000E+00  9.000E+00
      -2     1     1     2     0   511 -1.926837564E+01  2.195830028E+00 -8.046855496E+01  8.277311887E+01  3.300000131E-01  0.00000E+00  9.000E+00
       2     1     1     2   513     0  1.229497551E+01 -4.096071200E+00 -2.016306572E+02  2.020469625E+02  3.300000131E-01  0.00000E+00  9.000E+00
      21     1     1     2   511   513  6.973400125E+00  1.900241171E+00 -1.021027968E+02  1.023582940E+02  0.000000000E+00  0.00000E+00  9.000E+00
</event>
<event>
      5  10001  2.40292E+09  1.47777E+01 -1.00000E+00  1.77949E-01
      21    -1     0     0   514   511  0.000000000E+00  0.000000000E+00  1.407565957E+01  1.407565957E+01  0.000000000E+00  0.00000E+00  9.000E+00
      21    -1     0     0   512   514  0.000000000E+00  0.000000000E+00 -5.815949722E+01  5.815949722E+01  0.000000000E+00  0.00000E+00  9.000E+00
      21     1     1     2   512   515  2.115748332E+01 -5.118046125E+00 -6.874817962E+00  2.282754079E+01  2.920019320E-07  0.00000E+00  9.000E+00
      21     1     1     2   515   516 -1.734443750E+01  3.167851475E+00 -4.039140194E+01  4.407187477E+01  8.259061849E-07  0.00000E+00  9.000E+00
      21     1     1     2   516   511 -3.813045824E+00  1.950194650E+00  3.182382259E+00  5.335741230E+00  1.837138534E-07  0.00000E+00  9.000E+00
</event>
<event>
      5  10001  2.40292E+09  8.67662E+00 -1.00000E+00  2.03102E-01
      21    -1     0     0   513   515  0.000000000E+00  0.000000000E+00  7.537177702E-01  7.537177702E-01  0.000000000E+00  0.00000E+00  9.000E+00
      21    -1     0     0   511   513  0.000000000E+00  0.000000000E+00 -1.849412566E+02  1.849412566E+02  0.000000000E+00  0.00000E+00  9.000E+00
      21     1     1     2   511   512  2.071808011E+00  8.345991656E+00 -6.729327320E+01  6.784049369E+01  9.536743164E-07  0.00000E+00  9.000E+00
      21     1     1     2   514   515  8.282431390E-02 -9.002158955E+00 -1.129827003E+02  1.133407971E+02  1.348699152E-06  0.00000E+00  9.000E+00
      21     1     1     2   512   514 -2.154632325E+00  6.561672990E-01 -3.911565334E+00  4.513683567E+00  2.190014490E-07  0.00000E+00  9.000E+00
</event>
<event>
      5  10001  2.40292E+09  5.40052E+00 -1.00000E+00  2.32730E-01
      21    -1     0     0   516   512  0.000000000E+00  0.000000000E+00  8.722702293E+01  8.722702293E+01  0.000000000E+00  0.00000E+00  9.000E+00
      21    -1     0     0   517   516  0.000000000E+00  0.000000000E+00 -1.090840447E+01  1.090840447E+01  0.000000000E+00  0.00000E+00  9.000E+00
      21     1     1     2   517   511 -9.158940399E+00  1.330188298E+01 -3.408579435E+00  1.650589876E+01  2.889442359E-07  0.00000E+00  9.000E+00
      21     1     1     2   511   513  8.254112432E+00 -9.521179240E+00  4.655036130E+01  4.822571268E+01  6.743495762E-07  0.00000E+00  9.000E+00
      21     1     1     2   513   512  9.048279670E-01 -3.780703737E+00  3.317683659E+01  3.340381596E+01  4.768371582E-07  0.00000E+00  9.000E+00
</event>
<event>
      5  10001  2.40292E+09  4.22722E+00 -1.00000E+00  2.57838E-01
      21    -1     0     0   513   512  0.000000000E+00  0.000000000E+00  1.207919833E+00  1.207919833E+00  0.000000000E+00  0.00000E+00  9.000E+00
       2    -1     0     0   511     0  0.000000000E+00  0.000000000E+00 -2.119641269E+02  2.119641269E+02  0.000000000E+00  0.00000E+00  9.000E+00
      21     1     1     2   511   514 -2.914837239E+00 -5.793095672E+00 -7.628365608E+01  7.655881672E+01  0.000000000E+00  0.00000E+00  9.000E+00
       2     1     1     2   513     0  7.154722848E+00  8.992582269E+00 -3.198827920E+01  3.399140334E+01  3.300000131E-01  0.00000E+00  9.000E+00
      21     1     1     2   514   512 -4.239885609E+00 -3.199486597E+00 -1.024842718E+02  1.026218267E+02  1.348699152E-06  0.00000E+00  9.000E+00
</event>
<event>
      5  10001  2.40292E+09  6.60321E+00 -1.00000E+00  2.19125E-01
      21    -1     0     0   515   514  0.000000000E+00  0.000000000E+00  1.301282790E+02  1.301282790E+02  0.000000000E+00  0.00000E+00  9.000E+00
      21    -1     0     0   511   512  0.000000000E+00  0.000000000E+00 -3.486465453E+00  3.486465453E+00  0.000000000E+00  0.00000E+00  9.000E+00
      21     1     1     2   515   512 -6.537747196E+00 -1.362716908E+01  1.060963437E+02  1.071675138E+02  0.000000000E+00  0.00000E+00  9.000E+00
      21     1     1     2   513   514  4.362038769E+00  4.619235400E+00  4.072378459E+00  7.546455077E+00  1.332800375E-07  0.00000E+00  9.000E+00
      21     1     1     2   511   513  2.175708427E+00  9.007933684E+00  1.647309146E+01  1.890077561E+01  2.384185791E-07  0.00000E+00  9.000E+00
</event>
<event>
      5  10001  2.40292E+09  7.22221E+00 -1.00000E+00  2.13583E-01
      21    -1     0     0   516   511  0.000000000E+00  0.000000000E+00  8.310051349E+01  8.310051349E+01  0.000000000E+00  0.00000E+00  9.000E+00
      -1    -1     0     0     0   516  0.000000000E+00  0.000000000E+00 -4.739693340E+00  4.739693340E+00  0.000000000E+00  0.00000E+00  9.000E+00
      -1     1     1     2     0   514 -1.951569004E+00  1.011388730E+01  2.071761076E+00  1.051191856E+01  3.300000131E-01  0.00000E+00  9.000E+00
      21     1     1     2   512   511  3.166322898E+00 -7.501271050E+00  3.482147246E+01  3.576072724E+01  8.259061849E-07  0.00000E+00  9.000E+00
      21     1     1     2   514   512 -1.214753894E+00 -2.612616250E+00  4.146758662E+01  4.156756104E+01  4.768371582E-07  0.00000E+00  9.000E+00
</event>
<event>
      5  10001  2.40292E+09  5.74326E+00 -1.00000E+00  2.28382E-01
      21    -1     0     0   513   512  0.000000000E+00  0.000000000E+00  8.161878250E-01  8.161878250E-01  0.000000000E+00  0.00000E+00  9.000E+00
      21    -1     0     0   514   515  0.000000000E+00  0.000000000E+00 -1.957867176E+02  1.957867176E+02  0.000000000E+00  0.00000E+00  9.000E+00
      21     1     1     2   513   515 -7.675619426E+00 -7.298549878E+00 -1.408141497E+02  1.412119284E+02  2.697398305E-06  0.00000E+00  9.000E+00
      21     1     1     2   514   511  1.304730438E+00  3.550466590E+00 -1.170909441E+01  1.230491879E+01  0.000000000E+00  0.00000E+00  9.000E+00
      21     1     1     2   511   512  6.370888989E+00  3.748083287E+00 -4.244728572E+01  4.308605830E+01  8.259061849E-07  0.00000E+00  9.000E+00
</event>
<event>
      5  10001  2.40292E+09  1.74853E+00 -1.00000E+00  3.92441E-01
       2    -1     0     0   513     0  0.000000000E+00  0.000000000E+00  7.320343536E+02  7.320343536E+02  0.000000000E+00  0.00000E+00  9.000E+00
      21    -1     0     0   511   516  0.000000000E+00  0.000000000E+00 -6.503491443E-01  6.503491443E-01  0.000000000E+00  0.00000E+00  9.000E+00
      21     1     1     2   514   516 -1.686553750E-01 -1.200291560E+01  6.190521867E+01  6.305834224E+01  3.090257978E-06  0.00000E+00  9.000E+00
       2     1     1     2   511     0  1.575920791E+00  1.096533110E+01  6.398843921E+02  6.399803639E+02  3.300000131E-01  0.00000E+00  9.000E+00
      21     1     1     2   513   514 -1.407265416E+00  1.037584506E+00  2.959439367E+01  2.964599660E+01  0.000000000E+00  0.00000E+00  9.000E+00
</event>
<event>
      5  10001  2.40292E+09  2.87148E+00 -1.00000E+00  3.02614E-01
      21    -1     0     0   512   511  0.000000000E+00  0.000000000E+00  6.168151255E+01  6.168151255E+01  0.000000000E+00  0.00000E+00  9.000E+00
      21    -1     0     0   515   516  0.000000000E+00  0.000000000E+00 -9.158010492E+00  9.158010492E+00  0.000000000E+00  0.00000E+00  9.000E+00
      21     1     1     2   512   514 -2.049224409E+00 -1.084264069E+01  1.659290807E+01  1.992703631E+01  2.384185791E-07  0.00000E+00  9.000E+00
      21     1     1     2   515   511  4.908942564E+00  1.058296084E+01  4.232478807E+01  4.390312588E+01  4.768371582E-07  0.00000E+00  9.000E+00
      21     1     1     2   514   516 -2.859718155E+00  2.596798539E-01 -6.394194082E+00  7.009360849E+00  2.384185791E-07  0.00000E+00  9.000E+00
</event>
<event>
      5  10001  2.40292E+09  6.12553E+00 -1.00000E+00  2.24007E-01
      21    -1     0     0   513   515  0.000000000E+00  0.000000000E+00  2.431280293E+01  2.431280293E+01  0.000000000E+00  0.00000E+00  9.000E+00
      21    -1     0     0   514   517  0.000000000E+00  0.000000000E+00 -5.374171035E+00  5.374171035E+00  0.000000000E+00  0.00000E+00  9.000E+00
      21     1     1     2   513   517 -2.469193360E+00  1.033882074E+01  1.424858098E+01  1.777667545E+01  1.685873940E-07  0.00000E+00  9.000E+00
      -2     1     1     2     0   515  9.553236334E-01 -1.266147099E+00  1.383234815E+00  2.130260614E+00  3.300000131E-01  0.00000E+00  9.000E+00
       2     1     1     2   514     0  1.513869726E+00 -9.072673644E+00  3.306816103E+00  9.780037901E+00  3.300000131E-01  0.00000E+00  9.000E+00
</event>
<event>
      5  10001  2.40292E+09  6.84244E+00 -1.00000E+00  2.16888E-01
      21    -1     0     0   511   516  0.000000000E+00  0.000000000E+00  1.928193401E+00  1.928193401E+00  0.000000000E+00  0.00000E+00  9.000E+00
      21    -1     0     0   514   513  0.000000000E+00  0.000000000E+00 -6.039031137E+02  6.039031137E+02  0.000000000E+00  0.00000E+00  9.000E+00
      21     1     1     2   511   512  2.199786416E+00  7.912020713E+00 -1.777662401E+01  1.958181537E+01  5.331201500E-07  0.00000E+00  9.000E+00
      21     1     1     2   514   516 -7.992275842E+00 -1.155428797E+01 -4.815575555E+01  5.016328175E+01  6.743495762E-07  0.00000E+00  9.000E+00
      21     1     1     2   512   513  5.792489425E+00  3.642267261E+00 -5.360425408E+02  5.360862100E+02  7.629394531E-06  0.00000E+00  9.000E+00
</event>
<event>
      5  10001  2.40292E+09  4.92690E+00 -1.00000E+00  2.43727E-01
      21    -1     0     0   515   512  0.000000000E+00  0.000000000E+00  2.206630883E+01  2.206630883E+01  0.000000000E+00  0.00000E+00  9.000E+00
      21    -1     0     0   517   515  0.000000000E+00  0.000000000E+00 -7.307399828E+00  7.307399828E+00  0.000000000E+00  0.00000E+00  9.000E+00
      21     1     1     2   517   513  8.048429607E+00  6.931849826E+00 -6.784512306E-02  1.062225796E+01  2.773887653E-07  0.00000E+00  9.000E+00
      21     1     1     2   511   512 -1.981332757E+00 -3.335869054E+00  8.210620107E+00  9.081188489E+00  1.685873940E-07  0.00000E+00  9.000E+00
      21     1     1     2   513   511 -6.067096850E+00 -3.595980772E+00  6.616134019E+00  9.670262212E+00  2.230201594E-07  0.00000E+00  9.000E+00
</event>
<event>
      5  10001 -2.40292E+09  7.29666E+00 -1.00000E+00  2.12967E-01
      21    -1     0     0   514   511  0.000000000E+00  0.000000000E+00  1.083093205E+02  1.083093205E+02  0.000000000E+00  0.00000E+00  9.000E+00
      21    -1     0     0   513   516  0.000000000E+00  0.000000000E+00 -9.615466776E+01  9.615466776E+01  0.000000000E+00  0.00000E+00  9.000E+00
      21     1     1     2   514   516  9.377749881E+00  4.316593739E+00 -9.530897431E+01  9.586644751E+01  0.000000000E+00  0.00000E+00  9.000E+00
      21     1     1     2   512   511 -1.078428201E+01  2.988359931E-01  7.768948005E+01  7.843497531E+01  9.536743164E-07  0.00000E+00  9.000E+00
      21     1     1     2   513   512  1.406532130E+00 -4.615429732E+00  2.977414701E+01  3.016256545E+01  3.371747881E-07  0.00000E+00  9.000E+00
</event>
<event>
      5  10001  2.40292E+09  5.50112E+00 -1.00000E+00  2.31408E-01
      21    -1     0     0   515   512  0.000000000E+00  0.000000000E+00  5.524412541E-01  5.524412541E-01  0.000000000E+00  0.00000E+00  9.000E+00
      21    -1     0     0   513   517  0.000000000E+00  0.000000000E+00 -2.041791025E+02  2.041791025E+02  0.000000000E+00  0.00000E+00  9.000E+00
      21     1     1     2   515   517 -9.138759332E+00 -6.145733075E-01 -8.015341962E+01  8.067505996E+01  1.348699152E-06  0.00000E+00  9.000E+00
      21     1     1     2   511   512  6.997118213E+00 -1.059953545E+00 -1.134680042E+02  1.136884829E+02  0.000000000E+00  0.00000E+00  9.000E+00
      21     1     1     2   513   511  2.141641119E+00  1.674526852E+00 -1.000523747E+01  1.036800095E+01  2.384185791E-07  0.00000E+00  9.000E+00
</event>
<event>
      5  10001  2.40292E+09  2.40789E+01 -1.00000E+00  1.59943E-01
      21    -1     0     0   513   511  0.000000000E+00  0.000000000E+00  2.307907684E+00  2.307907684E+00  0.000000000E+00  0.00000E+00  9.000E+00
       2    -1     0     0   512     0  0.000000000E+00  0.000000000E+00 -9.641095022E+01  9.641095022E+01  0.000000000E+00  0.00000E+00  9.000E+00
      21     1     1     2   512   511 -2.268864470E+00 -5.334311100E+00 -2.540783342E+01  2.606071028E+01  3.371747881E-07  0.00000E+00  9.000E+00
      21     1     1     2   513   514  3.399088503E+00 -4.018597119E+00 -2.557142757E+00  5.851658272E+00  2.935188354E-07  0.00000E+00  9.000E+00
       2     1     1     2   514     0 -1.130224033E+00  9.352908219E+00 -6.613806636E+01  6.680648935E+01  3.300000131E-01  0.00000E+00  9.000E+00
</event>
<event>
      5  10001  2.40292E+09  2.24325E+00 -1.00000E+00  3.41118E-01
      -2    -1     0     0     0   512  0.000000000E+00  0.000000000E+00  2.255829746E+00  2.255829746E+00  0.000000000E+00  0.00000E+00  9.000E+00
       2    -1     0     0   512     0  0.000000000E+00  0.000000000E+00 -8.211372402E+01  8.211372402E+01  0.000000000E+00  0.00000E+00  9.000E+00
      -2     1     1     2     0   511 -4.678509547E+00 -4.762210335E+00 -7.976584573E+00  1.040681989E+01  3.300000131E-01  0.00000E+00  9.000E+00
       2     1     1     2   514     0  8.499868695E+00  5.542944028E+00 -6.674816569E+01  6.751591308E+01  3.300000131E-01  0.00000E+00  9.000E+00
      21     1     1     2   511   514 -3.821359148E+00 -7.807336936E-01 -5.133144007E+00  6.446820785E+00  1.032382731E-07  0.00000E+00  9.000E+00
</event>
<event>
      5  10001  2.40292E+09  7.19850E+00 -1.00000E+00  2.13781E-01
       2    -1     0     0   511     0  0.000000000E+00  0.000000000E+00  5.338550056E+02  5.338550056E+02  0.000000000E+00  0.00000E+00  9.000E+00
      21    -1     0     0   513   514  0.000000000E+00  0.000000000E+00 -1.879672280E+01  1.879672280E+01  0.000000000E+00  0.00000E+00  9.000E+00
      21     1     1     2   511   514 -8.790997291E-01  1.067523003E+01 -1.715409216E+01  2.022365522E+01  2.119110684E-06  0.00000E+00  9.000E+00
       2     1     1     2   512     0 -4.316498426E+00 -7.924321714E+00  3.671989453E+02  3.673099527E+02  3.300000131E-01  0.00000E+00  9.000E+00
      21     1     1     2   513   512  5.195598155E+00 -2.750908321E+00  1.650134296E+02  1.651181204E+02  2.697398305E-06  0.00000E+00  9.000E+00
</event>
<event>
      5  10001  2.40292E+09  1.96250E+01 -1.00000E+00  1.67008E-01
       3    -1     0     0   511     0  0.000000000E+00  0.000000000E+00  6.883392089E+00  6.883392089E+00  0.000000000E+00  0.00000E+00  9.000E+00
      21    -1     0     0   512   511  0.000000000E+00  0.000000000E+00 -1.007334427E+02  1.007334427E+02  0.000000000E+00  0.00000E+00  9.000E+00
       4     1     1     2   512     0  6.288117378E+00  1.767823607E+00 -3.337406125E+01  3.404032293E+01  1.500000000E+00  0.00000E+00  9.000E+00
       3     1     1     2   515     0  8.173596199E-01 -1.098987138E+01  9.187259884E-01  1.106975190E+01  5.000000000E-01  0.00000E+00  9.000E+00
      -4     1     1     2     0   515 -7.105476998E+00  9.222047771E+00 -6.139471532E+01  6.250675994E+01  1.500000000E+00  0.00000E+00  9.000E+00
</event>
<event>
      5  10001  2.40292E+09  6.54242E+00 -1.00000E+00  2.19714E-01
      21    -1     0     0   513   515  0.000000000E+00  0.000000000E+00  1.543657854E+01  1.543657854E+01  0.000000000E+00  0.00000E+00  9.000E+00
      21    -1     0     0   512   514  0.000000000E+00  0.000000000E+00 -9.660925937E+00  9.660925937E+00  0.000000000E+00  0.00000E+00  9.000E+00
      21     1     1     2   513   514 -5.350503786E+00  5.409583819E+00  7.164129833E+00  1.045065759E+01  2.064765462E-07  0.00000E+00  9.000E+00
      -5     1     1     2     0   515  1.475486525E+00 -4.465011461E+00 -4.068041107E+00  7.855084221E+00  4.800000191E+00  0.00000E+00  9.000E+00
       5     1     1     2   512     0  3.875017261E+00 -9.445723581E-01  2.679563880E+00  6.791762667E+00  4.800000191E+00  0.00000E+00  9.000E+00
</event>
<event>
      5  10001  2.40292E+09  7.78249E+00 -1.00000E+00  2.09181E-01
      21    -1     0     0   512   515  0.000000000E+00  0.000000000E+00  1.165834932E-01  1.165834932E-01  0.000000000E+00  0.00000E+00  9.000E+00
       2    -1     0     0   515     0  0.000000000E+00  0.000000000E+00 -1.418447903E+03  1.418447903E+03  0.000000000E+00  0.00000E+00  9.000E+00
      21     1     1     2   512   511  6.127291332E+00 -6.341599276E+00 -2.487895891E+02  2.489458159E+02  3.814697266E-06  0.00000E+00  9.000E+00
       2     1     1     2   513     0 -5.919313871E+00  8.744984784E-01 -9.077374489E+02  9.077572297E+02  3.300000131E-01  0.00000E+00  9.000E+00
      21     1     1     2   511   513 -2.079774616E-01  5.467100798E+00 -2.618042818E+02  2.618614413E+02  3.814697266E-06  0.00000E+00  9.000E+00
</event>
<event>
      5  10001  2.40292E+09  1.87250E+00 -1.00000E+00  3.76737E-01
      21    -1     0     0   514   513  0.000000000E+00  0.000000000E+00  1.874398372E+00  1.874398372E+00  0.000000000E+00  0.00000E+00  9.000E+00
       2    -1     0     0   511     0  0.000000000E+00  0.000000000E+00 -4.227463502E+02  4.227463502E+02  0.000000000E+00  0.00000E+00  9.000E+00
      21     1     1     2   511   513 -1.080473210E+01  4.589421784E+00 -1.766622174E+01  2.121085615E+01  7.907449699E-07  0.00000E+00  9.000E+00
       2     1     1     2   512     0  8.629547965E+00 -3.089603847E+00 -3.638441900E+02  3.639597756E+02  3.300000131E-01  0.00000E+00  9.000E+00
      21     1     1     2   514   512  2.175184136E+00 -1.499817937E+00 -3.936154013E+01  3.945011687E+01  0.000000000E+00  0.00000E+00  9.000E+00
</event>
<event>
      5  10001  2.40292E+09  1.02057E+01 -1.00000E+00  1.94683E-01
      21    -1     0     0   515   511  0.000000000E+00  0.000000000E+00  5.133712290E+00  5.133712290E+00  0.000000000E+00  0.00000E+00  9.000E+00
      21    -1     0     0   516   515  0.000000000E+00  0.000000000E+00 -8.526516262E+01  8.526516262E+01  0.000000000E+00  0.00000E+00  9.000E+00
      21     1     1     2   512   511 -8.073285494E+00 -5.227952128E+00 -1.727809227E+00  9.772141364E+00  2.010276551E-07  0.00000E+00  9.000E+00
      21     1     1     2   513   512  4.658083861E+00 -5.118239183E-01 -6.862516151E+01  6.878497293E+01  0.000000000E+00  0.00000E+00  9.000E+00
      21     1     1     2   516   513  3.415201633E+00  5.739776047E+00 -9.778479589E+00  1.184176061E+01  0.000000000E+00  0.00000E+00  9.000E+00
</event>
<event>
      5  10001  2.40292E+09  1.01714E+01 -1.00000E+00  1.94850E-01
      -3    -1     0     0     0   514  0.000000000E+00  0.000000000E+00  6.402275478E+01  6.402275478E+01  0.000000000E+00  0.00000E+00  9.000E+00
      21    -1     0     0   512   513  0.000000000E+00  0.000000000E+00 -2.709453925E+00  2.709453925E+00  0.000000000E+00  0.00000E+00  9.000E+00
      -3     1     1     2     0   513  8.779100064E+00  4.973920706E+00  4.573790419E+01  4.684034975E+01  5.000000000E-01  0.00000E+00  9.000E+00
       4     1     1     2   512     0 -3.690214510E+00 -1.241046107E+00  1.149374011E+01  1.222758930E+01  1.500000000E+00  0.00000E+00  9.000E+00
      -4     1     1     2     0   514 -5.088885555E+00 -3.732874599E+00  4.081656553E+00  7.664269644E+00  1.500000000E+00  0.00000E+00  9.000E+00
</event>
<event>
      5  10001  2.40292E+09  1.23540E+01 -1.00000E+00  1.85658E-01
      21    -1     0     0   511   515  0.000000000E+00  0.000000000E+00  1.178929949E+01  1.178929949E+01  0.000000000E+00  0.00000E+00  9.000E+00
      21    -1     0     0   514   511  0.000000000E+00  0.000000000E+00 -1.372114073E+01  1.372114073E+01  0.000000000E+00  0.00000E+00  9.000E+00
      21     1     1     2   512   515  7.073140647E+00  3.194903544E+00  3.945071518E+00  8.706337723E+00  2.021291847E-07  0.00000E+00  9.000E+00
      21     1     1     2   514   513 -1.532368776E+00 -7.992723408E+00 -4.649151576E+00  9.372640605E+00  8.429369702E-08  0.00000E+00  9.000E+00
      21     1     1     2   513   512 -5.540771871E+00  4.797819864E+00 -1.227761178E+00  7.431461894E+00  1.490116119E-08  0.00000E+00  9.000E+00
</event>
<event>
      5  10001  2.40292E+09  8.22312E+00 -1.00000E+00  2.06056E-01
      21    -1     0     0   516   514  0.000000000E+00  0.000000000E+00  2.520339516E+01  2.520339516E+01  0.000000000E+00  0.00000E+00  9.000E+00
      21    -1     0     0   515   512  0.000000000E+00  0.000000000E+00 -4.190099414E+00  4.190099414E+00  0.000000000E+00  0.00000E+00  9.000E+00
      21     1     1     2   516   512 -1.698103185E+00  7.413685386E+00  7.127839653E+00  1.042364541E+01  1.685873940E-07  0.00000E+00  9.000E+00
      21     1     1     2   515   511  2.636409121E+00 -5.653013289E+00  1.530102916E+01  1.652358030E+01  1.685873940E-07  0.00000E+00  9.000E+00
      21     1     1     2   511   514 -9.383059362E-01 -1.760672097E+00 -1.415573074E+00  2.446268871E+00  8.940696716E-08  0.00000E+00  9.000E+00
</event>
<event>
      5  10001  2.40292E+09  1.67747E+01 -1.00000E+00  1.72882E-01
      21    -1     0     0   513   515  0.000000000E+00  0.000000000E+00  3.217094927E+02  3.217094927E+02  0.000000000E+00  0.00000E+00  9.000E+00
      21    -1     0     0   517   514  0.000000000E+00  0.000000000E+00 -5.077374032E+01  5.077374032E+01  0.000000000E+00  0.00000E+00  9.000E+00
      21     1     1     2   513   514  3.074461432E+01  1.963676012E+00 -3.541110993E+01  4.693648943E+01  4.768371582E-07  0.00000E+00  9.000E+00
      21     1     1     2   517   512 -1.412884314E+01 -4.267542760E+00 -3.562978286E+00  1.518324551E+01  4.214684851E-08  0.00000E+00  9.000E+00
      21     1     1     2   512   515 -1.661577118E+01  2.303866748E+00  3.099098406E+02  3.103634981E+02  6.607249480E-06  0.00000E+00  9.000E+00
</event>
<event>
      5  10001  2.40292E+09  1.61994E+01 -1.00000E+00  1.74247E-01
      21    -1     0     0   511   514  0.000000000E+00  0.000000000E+00  3.570275978E+02  3.570275978E+02  0.000000000E+00  0.00000E+00  9.000E+00
      21    -1     0     0   516   515  0.000000000E+00  0.000000000E+00 -5.421244410E-01  5.421244410E-01  0.000000000E+00  0.00000E+00  9.000E+00
      21     1     1     2   511   515  9.875028016E+00 -3.620540963E-01  1.694581257E+02  1.697459974E+02  2.697398305E-06  0.00000E+00  9.000E+00
      21     1     1     2   516   513 -5.006468833E+00 -1.019955904E+00  1.695862341E+02  1.696631835E+02  1.907348633E-06  0.00000E+00  9.000E+00
      21     1     1     2   513   514 -4.868559183E+00  1.382010000E+00  1.744111356E+01  1.816054136E+01  9.233911863E-07  0.00000E+00  9.000E+00
</event>
<event>
      5  10001  2.40292E+09  9.36566E+00 -1.00000E+00  1.99045E-01
      21    -1     0     0   512   515  0.000000000E+00  0.000000000E+00  2.196063868E+01  2.196063868E+01  0.000000000E+00  0.00000E+00  9.000E+00
      21    -1     0     0   514   512  0.000000000E+00  0.000000000E+00 -1.404081950E+02  1.404081950E+02  0.000000000E+00  0.00000E+00  9.000E+00
      21     1     1     2   514   517  1.731299504E+01 -1.264099908E+01 -1.273157267E+02  1.291078190E+02  1.907348633E-06  0.00000E+00  9.000E+00
      21     1     1     2   511   515 -9.652991992E+00  1.140526699E+01  1.658136901E+01  2.232044282E+01  7.907449699E-07  0.00000E+00  9.000E+00
      21     1     1     2   517   511 -7.660003051E+00  1.235732085E+00 -7.713198690E+00  1.094057195E+01  2.920019320E-07  0.00000E+00  9.000E+00
</event>
<event>
      5  10001  2.40292E+09  1.15714E+01 -1.00000E+00  1.88650E-01
      21    -1     0     0   513   511  0.000000000E+00  0.000000000E+00  2.618125666E+02  2.618125666E+02  0.000000000E+00  0.00000E+00  9.000E+00
      21    -1     0     0   512   516  0.000000000E+00  0.000000000E+00 -1.182518614E+01  1.182518614E+01  0.000000000E+00  0.00000E+00  9.000E+00
      21     1     1     2   513   516 -9.427776148E+00 -1.299146944E+01  1.001140452E+02  1.013927182E+02  3.015782986E-06  0.00000E+00  9.000E+00
      21     1     1     2   514   511  1.768916459E+01  2.109369958E+01  1.565052054E+02  1.589079294E+02  1.907348633E-06  0.00000E+00  9.000E+00
      21     1     1     2   512   514 -8.261388439E+00 -8.102230149E+00 -6.631870190E+00  1.333710518E+01  5.127385418E-07  0.00000E+00  9.000E+00
</event>
<event>
      5  10001  2.40292E+09  4.82089E+00 -1.00000E+00  2.45631E-01
      21    -1     0     0   515   514  0.000000000E+00  0.000000000E+00  1.274085828E+02  1.274085828E+02  0.000000000E+00  0.00000E+00  9.000E+00
      21    -1     0     0   512   517  0.000000000E+00  0.000000000E+00 -1.031579165E+00  1.031579165E+00  0.000000000E+00  0.00000E+00  9.000E+00
      21     1     1     2   515   517 -1.322444760E+00  9.959624496E+00  3.999677141E+01  4.123935867E+01  6.743495762E-07  0.00000E+00  9.000E+00
      21     1     1     2   511   514  3.795889215E+00 -6.279656310E+00  6.051859412E+01  6.096181668E+01  9.536743164E-07  0.00000E+00  9.000E+00
      21     1     1     2   512   511 -2.473444455E+00 -3.679968186E+00  2.586163810E+01  2.623898661E+01  3.371747881E-07  0.00000E+00  9.000E+00
</event>
<event>
      5  10001  2.40292E+09  1.29351E+01 -1.00000E+00  1.83614E-01
      21    -1     0     0   513   514  0.000000000E+00  0.000000000E+00  4.005854952E+01  4.005854952E+01  0.000000000E+00  0.00000E+00  9.000E+00
      21    -1     0     0   512   513  0.000000000E+00  0.000000000E+00 -1.349449100E+02  1.349449100E+02  0.000000000E+00  0.00000E+00  9.000E+00
      21     1     1     2   511   514  4.160595383E+00  2.555357704E+01  3.362827757E+01  4.244003895E+01  1.430511475E-06  0.00000E+00  9.000E+00
      21     1     1     2   515   511  3.446545496E+00 -2.419408949E+01 -8.865658091E+01  9.196315556E+01  9.536743164E-07  0.00000E+00  9.000E+00
      21     1     1     2   512   515 -7.607140879E+00 -1.359487549E+00 -3.985805712E+01  4.060026498E+01  4.768371582E-07  0.00000E+00  9.000E+00
</event>
<event>
      5  10001  2.40292E+09  9.03877E+00 -1.00000E+00  2.00910E-01
      21    -1     0     0   516   514  0.000000000E+00  0.000000000E+00  1.043479759E+01  1.043479759E+01  0.000000000E+00  0.00000E+00  9.000E+00
       1    -1     0     0   512     0  0.000000000E+00  0.000000000E+00 -4.713733574E+02  4.713733574E+02  0.000000000E+00  0.00000E+00  9.000E+00
      21     1     1     2   516   517  1.297886459E+01  6.020556775E+00 -5.163441480E+01  5.357994794E+01  6.743495762E-07  0.00000E+00  9.000E+00
      21     1     1     2   512   514 -1.477636612E+01  2.837624784E+00  3.399372045E+00  1.542559044E+01  1.332800375E-07  0.00000E+00  9.000E+00
       1     1     1     2   517     0  1.797501526E+00 -8.858181559E+00 -4.127035170E+02  4.128026166E+02  3.300000131E-01  0.00000E+00  9.000E+00
</event>
<event>
      5  10001  2.40292E+09  1.42304E+01 -1.00000E+00  1.79517E-01
      21    -1     0     0   511   512  0.000000000E+00  0.000000000E+00  3.315365210E+02  3.315365210E+02  0.000000000E+00  0.00000E+00  9.000E+00
      21    -1     0     0   513   511  0.000000000E+00  0.000000000E+00 -2.512392247E+00  2.512392247E+00  0.000000000E+00  0.00000E+00  9.000E+00
      21     1     1     2   513   515  2.417726864E+00  7.807892900E+00  6.559050576E+00  1.047996847E+01  4.616955931E-07  0.00000E+00  9.000E+00
      21     1     1     2   515   514  5.384685281E+00 -8.184345238E+00  2.904316608E+02  2.905968478E+02  5.394796609E-06  0.00000E+00  9.000E+00
      21     1     1     2   514   512 -7.802412144E+00  3.764523380E-01  3.203341738E+01  3.297209701E+01  8.259061849E-07  0.00000E+00  9.000E+00
</event>
<event>
      5  10001  2.40292E+09  2.10168E+01 -1.00000E+00  1.64571E-01
       1    -1     0     0   515     0  0.000000000E+00  0.000000000E+00  4.219349571E+02  4.219349571E+02  0.000000000E+00  0.00000E+00  9.000E+00
      21    -1     0     0   514   513  0.000000000E+00  0.000000000E+00 -1.435598141E+01  1.435598141E+01  0.000000000E+00  0.00000E+00  9.000E+00
      21     1     1     2   515   511 -2.043871920E+00 -1.756454996E+01  1.002829263E+02  1.018300355E+02  3.814697266E-06  0.00000E+00  9.000E+00
       1     1     1     2   514     0 -1.337941178E+01  3.184125724E+01  3.111777220E+02  3.130887381E+02  3.300000131E-01  0.00000E+00  9.000E+00
      21     1     1     2   511   513  1.542328370E+01 -1.427670728E+01 -3.881672631E+00  2.137216492E+01  1.153469234E-06  0.00000E+00  9.000E+00
</event>
<event>
      5  10001  2.40292E+09  7.09183E+00 -1.00000E+00  2.14686E-01
      -2    -1     0     0     0   513  0.000000000E+00  0.000000000E+00  3.272779832E+02  3.272779832E+02  0.000000000E+00  0.00000E+00  9.000E+00
      21    -1     0     0   511   516  0.000000000E+00  0.000000000E+00 -7.663754131E+00  7.663754131E+00  0.000000000E+00  0.00000E+00  9.000E+00
      21     1     1     2   512   516  2.466146687E+00 -1.133321572E+01  4.053264580E+01  4.215944774E+01  8.259061849E-07  0.00000E+00  9.000E+00
      21     1     1     2   511   513  4.471238912E+00  9.861658840E+00 -2.498713407E+00  1.111250922E+01  2.950279396E-07  0.00000E+00  9.000E+00
      -2     1     1     2     0   512 -6.937385600E+00  1.471556878E+00  2.815802967E+02  2.816697804E+02  3.300000131E-01  0.00000E+00  9.000E+00
</event>
<event>
      5  10001  2.40292E+09  9.24685E+00 -1.00000E+00  1.99711E-01
      21    -1     0     0   514   511  0.000000000E+00  0.000000000E+00  5.233776518E+02  5.233776518E+02  0.000000000E+00  0.00000E+00  9.000E+00
      21    -1     0     0   513   514  0.000000000E+00  0.000000000E+00 -5.467973558E+00  5.467973558E+00  0.000000000E+00  0.00000E+00  9.000E+00
      21     1     1     2   515   512  2.017754585E+00 -1.444762530E+01  1.105876305E+01  1.830577643E+01  1.479348379E-06  0.00000E+00  9.000E+00
      21     1     1     2   512   511 -7.347890269E+00  6.891571101E+00  4.967249750E+02  4.968271188E+02  7.629394531E-06  0.00000E+00  9.000E+00
      21     1     1     2   513   515  5.330135684E+00  7.556054204E+00  1.012594024E+01  1.371273012E+01  4.129530925E-07  0.00000E+00  9.000E+00
</event>
<event>
      5  10001  2.40292E+09  7.81773E+00 -1.00000E+00  2.08921E-01
      21    -1     0     0   516   512  0.000000000E+00  0.000000000E+00  5.881511047E+00  5.881511047E+00  0.000000000E+00  0.00000E+00  9.000E+00
      21    -1     0     0   513   515  0.000000000E+00  0.000000000E+00 -2.834625442E+02  2.834625442E+02  0.000000000E+00  0.00000E+00  9.000E+00
      21     1     1     2   516   515 -5.064288775E-01  1.312649489E+01 -2.734372709E+02  2.737526301E+02  0.000000000E+00  0.00000E+00  9.000E+00
      21     1     1     2   513   511 -2.375844837E+00 -3.710821416E+00  9.463037553E-01  4.506697801E+00  3.338658288E-07  0.00000E+00  9.000E+00
      21     1     1     2   511   512  2.882273715E+00 -9.415673477E+00 -5.090065939E+00  1.108472733E+01  3.862822472E-07  0.00000E+00  9.000E+00
</event>
<event>
      5  10001  2.40292E+09  1.38583E+01 -1.00000E+00  1.80635E-01
       4    -1     0     0   511     0  0.000000000E+00  0.000000000E+00  8.831863621E+01  8.831863621E+01  0.000000000E+00  0.00000E+00  9.000E+00
       4    -1     0     0   512     0  0.000000000E+00  0.000000000E+00 -1.189282736E+01  1.189282736E+01  0.000000000E+00  0.00000E+00  9.000E+00
       4     1     1     2   511     0 -4.414875303E+00  9.957476083E+00 -6.134095018E+00  1.259045573E+01  1.500000000E+00  0.00000E+00  9.000E+00
       4     1     1     2   513     0  4.231181457E+00 -4.216004253E+00  8.155762590E+01  8.178981557E+01  1.500000000E+00  0.00000E+00  9.000E+00
      21     1     1     2   512   513  1.836938456E-01 -5.741471830E+00  1.002277964E+00  5.831192273E+00  2.580956828E-08  0.00000E+00  9.000E+00
</event>
<event>
      5  10001  2.40292E+09  6.27168E+00 -1.00000E+00  2.22450E-01
      21    -1     0     0   514   513  0.000000000E+00  0.000000000E+00  2.514006808E+02  2.514006808E+02  0.000000000E+00  0.00000E+00  9.000E+00
      21    -1     0     0   511   515  0.000000000E+00  0.000000000E+00 -6.580728666E+00  6.580728666E+00  0.000000000E+00  0.00000E+00  9.000E+00
      21     1     1     2   514   515  4.558679986E+00 -1.108911043E+01  1.802722012E+01  2.165018704E+01  8.920806376E-07  0.00000E+00  9.000E+00
      21     1     1     2   512   513 -5.528771043E+00  1.728530968E+01  2.289732386E+02  2.296912999E+02  3.814697266E-06  0.00000E+00  9.000E+00
      21     1     1     2   511   512  9.700910567E-01 -6.196199256E+00 -2.180506634E+00  6.639922519E+00  3.686343693E-07  0.00000E+00  9.000E+00
</event>
<event>
      5  10001  2.40292E+09  7.75578E+00 -1.00000E+00  2.09379E-01
      21    -1     0     0   516   513  0.000000000E+00  0.000000000E+00  8.904053559E+01  8.904053559E+01  0.000000000E+00  0.00000E+00  9.000E+00
      21    -1     0     0   511   517  0.000000000E+00  0.000000000E+00 -2.559597075E+01  2.559597075E+01  0.000000000E+00  0.00000E+00  9.000E+00
      21     1     1     2   516   517 -5.510154025E+00 -1.493445814E+01  1.992713051E+01  2.550471265E+01  3.371747881E-07  0.00000E+00  9.000E+00
      21     1     1     2   511   512 -7.552967899E-01  1.036320863E+01 -2.138070839E+01  2.377185853E+01  6.307962682E-07  0.00000E+00  9.000E+00
      21     1     1     2   512   513  6.265450815E+00  4.571249509E+00  6.489814272E+01  6.535993516E+01  0.000000000E+00  0.00000E+00  9.000E+00
</event>
<event>
      5  10001  2.40292E+09  1.69765E+01 -1.00000E+00  1.72420E-01
      21    -1     0     0   514   511  0.000000000E+00  0.000000000E+00  8.424155854E+01  8.424155854E+01  0.000000000E+00  0.00000E+00  9.000E+00
      21    -1     0     0   515   513  0.000000000E+00  0.000000000E+00 -9.051461760E+00  9.051461760E+00  0.000000000E+00  0.00000E+00  9.000E+00
      21     1     1     2   514   513 -6.710657264E+00 -6.905395997E+00  7.636847630E+01  7.697312250E+01  9.536743164E-07  0.00000E+00  9.000E+00
      21     1     1     2   516   511  8.250292320E+00  6.886301770E-01  2.847617286E+00  8.755024792E+00  1.884864366E-07  0.00000E+00  9.000E+00
      21     1     1     2   515   516 -1.539635056E+00  6.216765820E+00 -4.025996806E+00  7.564873010E+00  2.149076030E-07  0.00000E+00  9.000E+00
</event>
<event>
      5  10001  2.40292E+09  5.19984E+00 -1.00000E+00  2.35494E-01
      21    -1     0     0   512   513  0.000000000E+00  0.000000000E+00  2.062065133E+01  2.062065133E+01  0.000000000E+00  0.00000E+00  9.000E+00
      21    -1     0     0   515   517  0.000000000E+00  0.000000000E+00 -5.187125094E+00  5.187125094E+00  0.000000000E+00  0.00000E+00  9.000E+00
      21     1     1     2   512   517 -1.575291510E-02  9.801495966E+00  9.025873065E+00  1.332426193E+01  2.064765462E-07  0.00000E+00  9.000E+00
      21     1     1     2   515   511 -7.506098930E-01 -3.574988408E+00  2.008020343E-01  3.658453059E+00  7.972469389E-08  0.00000E+00  9.000E+00
      21     1     1     2   511   513  7.663628081E-01 -6.226507558E+00  6.206851134E+00  8.825061435E+00  1.884864366E-07  0.00000E+00  9.000E+00
</event>
<event>
      5  10001  2.40292E+09  5.83794E+00 -1.00000E+00  2.27255E-01
      21    -1     0     0   514   511  0.000000000E+00  0.000000000E+00  2.045805411E+02  2.045805411E+02  0.000000000E+00  0.00000E+00  9.000E+00
      21    -1     0     0   513   514  0.000000000E+00  0.000000000E+00 -1.437931650E+00  1.437931650E+00  0.000000000E+00  0.00000E+00  9.000E+00
      21     1     1     2   515   511  9.329250610E+00 -6.674975569E+00  1.739517679E+02  1.743295952E+02  2.697398305E-06  0.00000E+00  9.000E+00
      21     1     1     2   513   512 -5.239510951E+00  1.918758042E+00  1.817552455E+01  1.901272732E+01  0.000000000E+00  0.00000E+00  9.000E+00
      21     1     1     2   512   515 -4.089739660E+00  4.756217527E+00  1.101531706E+01  1.267615027E+01  2.920019320E-07  0.00000E+00  9.000E+00
</event>
<event>
      5  10001  2.40292E+09  5.04928E+00 -1.00000E+00  2.37687E-01
      21    -1     0     0   512   513  0.000000000E+00  0.000000000E+00  1.495230366E+01  1.495230366E+01  0.000000000E+00  0.00000E+00  9.000E+00
       4    -1     0     0   511     0  0.000000000E+00  0.000000000E+00 -1.602763741E+01  1.602763741E+01  0.000000000E+00  0.00000E+00  9.000E+00
      21     1     1     2   511   513  3.625876436E+00 -9.661714816E+00  1.036278024E+01  1.462473683E+01  2.064765462E-07  0.00000E+00  9.000E+00
      21     1     1     2   512   514 -2.576498612E-01  3.676207469E+00 -7.352043655E+00  8.223954688E+00  1.884864366E-07  0.00000E+00  9.000E+00
       4     1     1     2   514     0 -3.368226575E+00  5.985507347E+00 -4.086070332E+00  8.131249548E+00  1.500000000E+00  0.00000E+00  9.000E+00
</event>
<event>
      5  10001  2.40292E+09  4.79818E+00 -1.00000E+00  2.46048E-01
      21    -1     0     0   512   511  0.000000000E+00  0.000000000E+00  1.019581926E+02  1.019581926E+02  0.000000000E+00  0.00000E+00  9.000E+00
      21    -1     0     0   516   515  0.000000000E+00  0.000000000E+00 -3.233812332E+01  3.233812332E+01  0.000000000E+00  0.00000E+00  9.000E+00
      21     1     1     2   517   511  1.270613128E+01 -2.088577488E+00  1.973996220E+01  2.356849668E+01  2.384185791E-07  0.00000E+00  9.000E+00
      21     1     1     2   516   517 -1.151596415E+01 -2.559655139E+00 -2.920481863E+01  3.149747127E+01  4.768371582E-07  0.00000E+00  9.000E+00
      21     1     1     2   512   515 -1.190167126E+00  4.648232626E+00  7.908492575E+01  7.923034800E+01  9.536743164E-07  0.00000E+00  9.000E+00
</event>
<event>
      5  10001  2.40292E+09  2.69263E+01 -1.00000E+00  1.56337E-01
      21    -1     0     0   513   511  0.000000000E+00  0.000000000E+00  1.777625174E+01  1.777625174E+01  0.000000000E+00  0.00000E+00  9.000E+00
      21    -1     0     0   514   513  0.000000000E+00  0.000000000E+00 -2.136652057E+01  2.136652057E+01  0.000000000E+00  0.00000E+00  9.000E+00
      21     1     1     2   514   515 -1.063519905E+01 -1.807832892E+00 -2.497772980E+00  1.107314718E+01  5.161913656E-08  0.00000E+00  9.000E+00
      21     1     1     2   516   511  5.719867438E+00  6.452391151E-01 -1.349863577E+01  1.467468516E+01  2.920019320E-07  0.00000E+00  9.000E+00
      21     1     1     2   515   516  4.915331612E+00  1.162593777E+00  1.240613991E+01  1.339493997E+01  2.920019320E-07  0.00000E+00  9.000E+00
</event>
<event>
      5  10001  2.40292E+09  1.49493E+01 -1.00000E+00  1.77475E-01
      21    -1     0     0   512   511  0.000000000E+00  0.000000000E+00  8.483373047E+00  8.483373047E+00  0.000000000E+00  0.00000E+00  9.000E+00
      21    -1     0     0   517   512  0.000000000E+00  0.000000000E+00 -8.124578660E+01  8.124578660E+01  0.000000000E+00  0.00000E+00  9.000E+00
      21     1     1     2   516   511  1.389144730E+01 -1.126213689E+00 -8.279741943E-01  1.396159756E+01  2.384185791E-07  0.00000E+00  9.000E+00
      21     1     1     2   513   516 -3.943725372E+00 -3.980380937E+00 -5.612129949E+01  5.640032498E+01  1.168007728E-06  0.00000E+00  9.000E+00
      21     1     1     2   517   513 -9.947721925E+00  5.106594626E+00 -1.581313987E+01  1.936723710E+01  0.000000000E+00  0.00000E+00  9.000E+00
</event>
<event>
      5  10001  2.40292E+09  3.17574E+00 -1.00000E+00  2.89430E-01
      21    -1     0     0   514   512  0.000000000E+00  0.000000000E+00  1.812228732E+01  1.812228732E+01  0.000000000E+00  0.00000E+00  9.000E+00
      21    -1     0     0   511   515  0.000000000E+00  0.000000000E+00 -4.568450838E+01  4.568450838E+01  0.000000000E+00  0.00000E+00  9.000E+00
      21     1     1     2   514   515  6.978939502E+00 -1.164035874E+01  1.315427310E+01  1.890075261E+01  2.384185791E-07  0.00000E+00  9.000E+00
      21     1     1     2   511   513 -7.280931959E+00  8.479009384E+00 -4.015469628E+01  4.168099332E+01  0.000000000E+00  0.00000E+00  9.000E+00
      21     1     1     2   513   512  3.019924574E-01  3.161349360E+00 -5.617978820E-01  3.225049779E+00  1.825012075E-08  0.00000E+00  9.000E+00
</event>
<event>
      5  10001  2.40292E+09  3.52192E+00 -1.00000E+00  2.77094E-01
      21    -1     0     0   516   511  0.000000000E+00  0.000000000E+00  7.102806822E+01  7.102806822E+01  0.000000000E+00  0.00000E+00  9.000E+00
      21    -1     0     0   517   512  0.000000000E+00  0.000000000E+00 -4.666280773E+01  4.666280773E+01  0.000000000E+00  0.00000E+00  9.000E+00
      21     1     1     2   516   512 -1.018920840E+01  4.175657845E+00 -4.533265674E+01  4.665089339E+01  6.743495762E-07  0.00000E+00  9.000E+00
      21     1     1     2   517   514  7.316090185E+00 -9.829935242E-01  5.975231200E+01  6.020656311E+01  9.536743164E-07  0.00000E+00  9.000E+00
      21     1     1     2   514   511  2.873118219E+00 -3.192664321E+00  9.945605235E+00  1.083341946E+01  1.192092896E-07  0.00000E+00  9.000E+00
</event>
<event>
      5  10001  2.40292E+09  5.18697E+00 -1.00000E+00  2.35678E-01
      21    -1     0     0   513   512  0.000000000E+00  0.000000000E+00  5.167723432E+01  5.167723432E+01  0.000000000E+00  0.00000E+00  9.000E+00
      21    -1     0     0   515   511  0.000000000E+00  0.000000000E+00 -8.127420917E+00  8.127420917E+00  0.000000000E+00  0.00000E+00  9.000E+00
      21     1     1     2   513   511 -1.392726549E+01  4.052068528E+00  1.116420752E+00  1.454765887E+01  2.484520078E-07  0.00000E+00  9.000E+00
      21     1     1     2   516   512  8.920344177E+00 -4.897183903E+00  2.262570272E+01  2.480881646E+01  2.384185791E-07  0.00000E+00  9.000E+00
      21     1     1     2   515   516  5.006921315E+00  8.451153749E-01  1.980768993E+01  2.044817991E+01  0.000000000E+00  0.00000E+00  9.000E+00
</event>
<event>
      5  10001  2.40292E+09  5.75160E+00 -1.00000E+00  2.28281E-01
      21    -1     0     0   512   511  0.000000000E+00  0.000000000E+00  3.647353669E+02  3.647353669E+02  0.000000000E+00  0.00000E+00  9.000E+00
      21    -1     0     0   515   514  0.000000000E+00  0.000000000E+00 -1.053725001E+01  1.053725001E+01  0.000000000E+00  0.00000E+00  9.000E+00
      21     1     1     2   515   517 -2.356612761E+00 -1.109164446E+01 -2.729583907E+00  1.166313975E+01  3.371747881E-07  0.00000E+00  9.000E+00
      21     1     1     2   517   511  7.505094706E+00  8.527652950E+00  6.408044601E+00  1.304263574E+01  0.000000000E+00  0.00000E+00  9.000E+00
      21     1     1     2   512   514 -5.148481945E+00  2.563991511E+00  3.505196562E+02  3.505668414E+02  5.394796609E-06  0.00000E+00  9.000E+00
</event>
<event>
      5  10001  2.40292E+09  2.39213E+00 -1.00000E+00  3.30120E-01
      21    -1     0     0   513   515  0.000000000E+00  0.000000000E+00  6.183256318E+00  6.183256318E+00  0.000000000E+00  0.00000E+00  9.000E+00
      21    -1     0     0   516   513  0.000000000E+00  0.000000000E+00 -8.702773528E+01  8.702773528E+01  0.000000000E+00  0.00000E+00  9.000E+00
      21     1     1     2   516   514 -1.065933808E+01  3.084016685E+00 -8.041407315E+01  8.117607904E+01  1.348699152E-06  0.00000E+00  9.000E+00
      21     1     1     2   511   515  8.104093822E+00 -4.289145617E+00  4.947447637E-02  9.169272301E+00  3.933865104E-07  0.00000E+00  9.000E+00
      21     1     1     2   514   511  2.555244259E+00  1.205128932E+00 -4.798802789E-01  2.865640251E+00  1.143366788E-07  0.00000E+00  9.000E+00
</event>
<event>
      5  10001  2.40292E+09  1.25461E+01 -1.00000E+00  1.84967E-01
      21    -1     0     0   512   511  0.000000000E+00  0.000000000E+00  2.893002485E+00  2.893002485E+00  0.000000000E+00  0.00000E+00  9.000E+00
      21    -1     0     0   511   513  0.000000000E+00  0.000000000E+00 -8.243399509E+01  8.243399509E+01  0.000000000E+00  0.00000E+00  9.000E+00
      21     1     1     2   515   513  6.073579214E+00  2.960801581E+00 -4.638843388E+01  4.687794266E+01  6.743495762E-07  0.00000E+00  9.000E+00
       1     1     1     2   512     0 -6.941196803E+00  5.311282102E+00 -7.641351168E+00  1.161417575E+01  3.300000131E-01  0.00000E+00  9.000E+00
      -1     1     1     2     0   515  8.676175888E-01 -8.272083683E+00 -2.551120756E+01  2.683487917E+01  3.300000131E-01  0.00000E+00  9.000E+00
</event>
<event>
      5  10001  2.40292E+09  2.54007E+01 -1.00000E+00  1.58198E-01
      21    -1     0     0   514   513  0.000000000E+00  0.000000000E+00  1.176717227E+02  1.176717227E+02  0.000000000E+00  0.00000E+00  9.000E+00
      21    -1     0     0   511   514  0.000000000E+00  0.000000000E+00 -3.599527858E+00  3.599527858E+00  0.000000000E+00  0.00000E+00  9.000E+00
      21     1     1     2   511   515 -1.067889191E+01 -9.231183162E+00  1.711637366E+01  2.218611553E+01  0.000000000E+00  0.00000E+00  9.000E+00
      21     1     1     2   512   513 -3.589444275E+00  3.616379346E+00  2.485991046E+01  2.537671094E+01  4.768371582E-07  0.00000E+00  9.000E+00
      21     1     1     2   515   512  1.426833619E+01  5.614803815E+00  7.209591074E+01  7.370842411E+01  9.536743164E-07  0.00000E+00  9.000E+00
</event>
<event>
      5  10001  2.40292E+09  9.51995E+00 -1.00000E+00  1.98200E-01
      21    -1     0     0   516   511  0.000000000E+00  0.000000000E+00  5.835933822E+00  5.835933822E+00  0.000000000E+00  0.00000E+00  9.000E+00
      21    -1     0     0   517   516  0.000000000E+00  0.000000000E+00 -2.085957531E+01  2.085957531E+01  0.000000000E+00  0.00000E+00  9.000E+00
      21     1     1     2   512   511  3.233703254E+00 -7.951100204E+00 -3.213734709E+00  9.165419901E+00  1.519626234E-07  0.00000E+00  9.000E+00
      21     1     1     2   513   512 -2.406065876E+00  5.229680147E+00 -3.994913133E-01  5.770467983E+00  1.484517667E-07  0.00000E+00  9.000E+00
      21     1     1     2   517   513 -8.276373786E-01  2.721420057E+00 -1.141041546E+01  1.175962124E+01  1.685873940E-07  0.00000E+00  9.000E+00
</event>
<event>
      5  10001  2.40292E+09  1.73086E+01 -1.00000E+00  1.71676E-01
      -1    -1     0     0     0   514  0.000000000E+00  0.000000000E+00  3.143655891E+02  3.143655891E+02  0.000000000E+00  0.00000E+00  9.000E+00
      21    -1     0     0   514   515  0.000000000E+00  0.000000000E+00 -9.408804963E-01  9.408804963E-01  0.000000000E+00  0.00000E+00  9.000E+00
      -1     1     1     2     0   512  3.127707997E+00 -9.806902953E+00  1.724863834E+02  1.727935741E+02  3.300000131E-01  0.00000E+00  9.000E+00
       5     1     1     2   512     0  4.179142946E+00  2.797878218E+00  2.259746212E+01  2.364272942E+01  4.800000191E+00  0.00000E+00  9.000E+00
      -5     1     1     2     0   515 -7.306850943E+00  7.009024734E+00  1.183408631E+02  1.188701661E+02  4.800000191E+00  0.00000E+00  9.000E+00
</event>
<event>
      5  10001  2.40292E+09  2.55052E+01 -1.00000E+00  1.58065E-01
      -3    -1     0     0     0   511  0.000000000E+00  0.000000000E+00  1.268103807E+01  1.268103807E+01  0.000000000E+00  0.00000E+00  9.000E+00
      21    -1     0     0   513   515  0.000000000E+00  0.000000000E+00 -1.836464494E+01  1.836464494E+01  0.000000000E+00  0.00000E+00  9.000E+00
      21     1     1     2   512   515  5.977964786E+00  1.393030218E+00 -7.373976457E+00  9.594379864E+00  1.884864366E-07  0.00000E+00  9.000E+00
      21     1     1     2   513   511  7.274835272E+00 -2.867205402E+00  2.115641439E+00  8.100619343E+00  1.812804499E-07  0.00000E+00  9.000E+00
      -3     1     1     2     0   512 -1.325280006E+01  1.474175183E+00 -4.252718507E-01  1.335068380E+01  5.000000000E-01  0.00000E+00  9.000E+00
</event>
<event>
      5  10001  2.40292E+09  1.04408E+01 -1.00000E+00  1.93559E-01
      -2    -1     0     0     0   512  0.000000000E+00  0.000000000E+00  1.703431643E+02  1.703431643E+02  0.000000000E+00  0.00000E+00  9.000E+00
      21    -1     0     0   512   514  0.000000000E+00  0.000000000E+00 -5.829305928E+00  5.829305928E+00  0.000000000E+00  0.00000E+00  9.000E+00
      -2     1     1     2     0   511  3.294769168E+00  1.004095147E+01  1.577212083E+02  1.580751867E+02  3.300000131E-01  0.00000E+00  9.000E+00
      21     1     1     2   513   514 -7.855691101E+00 -8.449961091E+00  6.535578219E+00  1.325999652E+01  2.384185791E-07  0.00000E+00  9.000E+00
      21     1     1     2   511   513  4.560921933E+00 -1.590990379E+00  2.570718387E-01  4.837286967E+00  2.488984628E-07  0.00000E+00  9.000E+00
</event>
<event>
      5  10001  2.40292E+09  6.52427E+00 -1.00000E+00  2.19892E-01
      21    -1     0     0   515   512  0.000000000E+00  0.000000000E+00  1.203803969E+00  1.203803969E+00  0.000000000E+00  0.00000E+00  9.000E+00
      21    -1     0     0   511   516  0.000000000E+00  0.000000000E+00 -2.988239003E+02  2.988239003E+02  0.000000000E+00  0.00000E+00  9.000E+00
      21     1     1     2   515   516 -1.184866484E+01  3.378756873E+00 -2.462518840E+02  2.465599262E+02  2.697398305E-06  0.00000E+00  9.000E+00
       4     1     1     2   511     0  5.259594836E+00  3.725903496E-01 -1.019518904E+01  1.157557951E+01  1.500000000E+00  0.00000E+00  9.000E+00
      -4     1     1     2     0   512  6.589070009E+00 -3.751347223E+00 -4.117302333E+01  4.189219856E+01  1.500000000E+00  0.00000E+00  9.000E+00
</event>
<event>
      5  10001  2.40292E+09  7.78517E+00 -1.00000E+00  2.09161E-01
      21    -1     0     0   511   512  0.000000000E+00  0.000000000E+00  4.606579741E+02  4.606579741E+02  0.000000000E+00  0.00000E+00  9.000E+00
       1    -1     0     0   512     0  0.000000000E+00  0.000000000E+00 -3.080391049E-01  3.080391049E-01  0.000000000E+00  0.00000E+00  9.000E+00
      21     1     1     2   511   514  7.328551253E+00  5.066390950E+00  1.362812485E+02  1.365721592E+02  1.907348633E-06  0.00000E+00  9.000E+00
       1     1     1     2   513     0 -4.518918096E+00 -8.470920207E+00  1.785620630E+02  1.788202907E+02  3.300000131E-01  0.00000E+00  9.000E+00
      21     1     1     2   514   513 -2.809633158E+00  3.404529257E+00  1.455066236E+02  1.455735634E+02  1.907348633E-06  0.00000E+00  9.000E+00
</event>
<event>
      5  10001  2.40292E+09  6.03268E+00 -1.00000E+00  2.25028E-01
      21    -1     0     0   515   513  0.000000000E+00  0.000000000E+00  2.268549819E+01  2.268549819E+01  0.000000000E+00  0.00000E+00  9.000E+00
      21    -1     0     0   512   516  0.000000000E+00  0.000000000E+00 -2.855991381E+01  2.855991381E+01  0.000000000E+00  0.00000E+00  9.000E+00
      21     1     1     2   515   516  2.421729373E+00 -1.059779295E+01 -2.564086174E+01  2.785016659E+01  0.000000000E+00  0.00000E+00  9.000E+00
      21     1     1     2   511   513  1.228379211E+00  7.230293655E+00  9.601535503E+00  1.208203401E+01  2.384185791E-07  0.00000E+00  9.000E+00
      21     1     1     2   512   511 -3.650108584E+00  3.367499293E+00  1.016491062E+01  1.131321139E+01  2.665600750E-07  0.00000E+00  9.000E+00
</event>
<event>
      5  10001  2.40292E+09  2.98610E+00 -1.00000E+00  2.97341E-01
      21    -1     0     0   514   511  0.000000000E+00  0.000000000E+00  2.686161731E+01  2.686161731E+01  0.000000000E+00  0.00000E+00  9.000E+00
      21    -1     0     0   513   517  0.000000000E+00  0.000000000E+00 -2.499154255E+02  2.499154255E+02  0.000000000E+00  0.00000E+00  9.000E+00
      21     1     1     2   514   517  7.318470483E+00  6.276520396E+00 -7.060140279E+00  1.194990792E+01  3.769728732E-07  0.00000E+00  9.000E+00
      21     1     1     2   512   511 -9.907699328E+00 -7.764033348E+00  2.278450152E+01  2.603029446E+01  3.371747881E-07  0.00000E+00  9.000E+00
      21     1     1     2   513   512  2.589228845E+00  1.487512952E+00 -2.387781695E+02  2.387968405E+02  4.672030912E-06  0.00000E+00  9.000E+00
</event>
<event>
      5  10001  2.40292E+09  1.58132E+01 -1.00000E+00  1.75204E-01
      21    -1     0     0   513   511  0.000000000E+00  0.000000000E+00  1.682574330E+02  1.682574330E+02  0.000000000E+00  0.00000E+00  9.000E+00
       4    -1     0     0   512     0  0.000000000E+00  0.000000000E+00 -8.247747676E+00  8.247747676E+00  0.000000000E+00  0.00000E+00  9.000E+00
      -3     1     1     2     0   511 -1.375764603E+01  5.143685971E+00  5.047247960E+01  5.256854123E+01  5.000000000E-01  0.00000E+00  9.000E+00
       4     1     1     2   513     0  2.044497233E+01 -1.569183988E+01  1.781447901E+01  3.136616640E+01  1.500000000E+00  0.00000E+00  9.000E+00
       3     1     1     2   512     0 -6.687326305E+00  1.054815391E+01  9.172272671E+01  9.257047304E+01  5.000000000E-01  0.00000E+00  9.000E+00
</event>
<event>
      5  10001  2.40292E+09  3.88982E+00 -1.00000E+00  2.66251E-01
       1    -1     0     0   514     0  0.000000000E+00  0.000000000E+00  1.593737251E+02  1.593737251E+02  0.000000000E+00  0.00000E+00  9.000E+00
      21    -1     0     0   511   515  0.000000000E+00  0.000000000E+00 -7.274892112E+01  7.274892112E+01  0.000000000E+00  0.00000E+00  9.000E+00
      21     1     1     2   514   515 -2.500997643E+01 -2.785595947E+00  8.674014913E+00  2.661760696E+01  5.196212463E-07  0.00000E+00  9.000E+00
      21     1     1     2   511   512  2.483789943E+01  6.671600337E+00 -6.115588276E+01  6.634360177E+01  1.168007728E-06  0.00000E+00  9.000E+00
       1     1     1     2   512     0  1.720769985E-01 -3.886004389E+00  1.391066718E+02  1.391614375E+02  3.300000131E-01  0.00000E+00  9.000E+00
</event>
<event>
      5  10001  2.40292E+09  9.37178E+00 -1.00000E+00  1.99011E-01
      -5    -1     0     0     0   512  0.000000000E+00  0.000000000E+00  5.103045944E+01  5.103045944E+01  0.000000000E+00  0.00000E+00  9.000E+00
      21    -1     0     0   516   513  0.000000000E+00  0.000000000E+00 -5.288386640E+01  5.288386640E+01  0.000000000E+00  0.00000E+00  9.000E+00
      21     1     1     2   511   512 -3.585507246E-01 -1.404387910E+01  2.364136218E+01  2.750042008E+01  8.920806376E-07  0.00000E+00  9.000E+00
      21     1     1     2   516   511 -6.500447993E+00  2.036777878E+01 -4.747003372E+01  5.206252335E+01  9.536743164E-07  0.00000E+00  9.000E+00
      -5     1     1     2     0   513  6.858998718E+00 -6.323899673E+00  2.197526458E+01  2.435138241E+01  4.800000191E+00  0.00000E+00  9.000E+00
</event>
<event>
      5  10001  2.40292E+09  8.79528E+00 -1.00000E+00  2.02368E-01
      21    -1     0     0   514   512  0.000000000E+00  0.000000000E+00  7.390024200E-01  7.390024200E-01  0.000000000E+00  0.00000E+00  9.000E+00
      21    -1     0     0   515   514  0.000000000E+00  0.000000000E+00 -1.426863388E+02  1.426863388E+02  0.000000000E+00  0.00000E+00  9.000E+00
      21     1     1     2   515   513  1.277882586E-01 -8.453378267E+00 -4.818366253E+01  4.891974314E+01  0.000000000E+00  0.00000E+00  9.000E+00
      21     1     1     2   511   512 -1.674537913E-02  2.942775835E+00 -7.182133511E+01  7.188159978E+01  0.000000000E+00  0.00000E+00  9.000E+00
      21     1     1     2   513   511 -1.110428794E-01  5.510602431E+00 -2.194233870E+01  2.262399827E+01  4.768371582E-07  0.00000E+00  9.000E+00
</event>
<event>
      5  10001  2.40292E+09  1.48508E+01 -1.00000E+00  1.77746E-01
       1    -1     0     0   513     0  0.000000000E+00  0.000000000E+00  7.972965428E+01  7.972965428E+01  0.000000000E+00  0.00000E+00  9.000E+00
      21    -1     0     0   512   511  0.000000000E+00  0.000000000E+00 -5.517447896E+01  5.517447896E+01  0.000000000E+00  0.00000E+00  9.000E+00
      21     1     1     2   513   511 -1.559093327E+01 -1.116879120E+00  4.241654579E+01  4.520495522E+01  6.743495762E-07  0.00000E+00  9.000E+00
       1     1     1     2   516     0  2.884091438E+01  7.823622919E+00  2.833017745E+01  4.117906352E+01  3.300000131E-01  0.00000E+00  9.000E+00
      21     1     1     2   512   516 -1.324998111E+01 -6.706743799E+00 -4.619154792E+01  4.852011450E+01  0.000000000E+00  0.00000E+00  9.000E+00
</event>
<event>
      5  10001  2.40292E+09  1.90649E+01 -1.00000E+00  1.68061E-01
      21    -1     0     0   514   516  0.000000000E+00  0.000000000E+00  2.339495136E+02  2.339495136E+02  0.000000000E+00  0.00000E+00  9.000E+00
      21    -1     0     0   512   514  0.000000000E+00  0.000000000E+00 -5.713458419E+00  5.713458419E+00  0.000000000E+00  0.00000E+00  9.000E+00
      21     1     1     2   515   516  2.159605347E+01 -1.797768798E+01  1.515418390E+02  1.541250004E+02  1.907348633E-06  0.00000E+00  9.000E+00
      21     1     1     2   512   511 -1.133764715E+01  9.289676671E+00  1.059538842E+01  1.808597776E+01  4.129530925E-07  0.00000E+00  9.000E+00
      21     1     1     2   511   515 -1.025840631E+01  8.688011308E+00  6.609882773E+01  6.745199380E+01  9.536743164E-07  0.00000E+00  9.000E+00
</event>
<event>
      5  10001  2.40292E+09  7.69606E+00 -1.00000E+00  2.09827E-01
       1    -1     0     0   514     0  0.000000000E+00  0.000000000E+00  1.080937096E+00  1.080937096E+00  0.000000000E+00  0.00000E+00  9.000E+00
      21    -1     0     0   511   513  0.000000000E+00  0.000000000E+00 -2.960400133E+02  2.960400133E+02  0.000000000E+00  0.00000E+00  9.000E+00
      21     1     1     2   512   513 -1.097538790E+01 -5.622868944E+00 -1.231867236E+02  1.238024421E+02  3.814697266E-06  0.00000E+00  9.000E+00
       1     1     1     2   511     0  8.427079183E+00  1.288398782E+01 -1.128321287E+02  1.138780531E+02  3.300000131E-01  0.00000E+00  9.000E+00
      21     1     1     2   514   512  2.548308712E+00 -7.261118879E+00 -5.894022395E+01  5.944045528E+01  9.536743164E-07  0.00000E+00  9.000E+00
</event>
<event>
      5  10001  2.40292E+09  4.07607E+00 -1.00000E+00  2.61450E-01
      21    -1     0     0   513   511  0.000000000E+00  0.000000000E+00  4.337971171E+00  4.337971171E+00  0.000000000E+00  0.00000E+00  9.000E+00
       2    -1     0     0   514     0  0.000000000E+00  0.000000000E+00 -2.935610783E+02  2.935610783E+02  0.000000000E+00  0.00000E+00  9.000E+00
      21     1     1     2   514   511  6.985584321E+00 -1.826569380E+01 -2.430163272E+01  3.119300100E+01  1.617033478E-06  0.00000E+00  9.000E+00
       2     1     1     2   515     0 -7.399359091E+00  1.421076891E+01 -2.591244577E+02  2.596195100E+02  3.300000131E-01  0.00000E+00  9.000E+00
      21     1     1     2   513   515  4.137747698E-01  4.054924892E+00 -5.797016672E+00  7.086538488E+00  1.192092896E-07  0.00000E+00  9.000E+00
</event>
<event>
      5  10001  2.40292E+09  1.19904E+01 -1.00000E+00  1.87011E-01
      21    -1     0     0   515   514  0.000000000E+00  0.000000000E+00  1.835986420E+02  1.835986420E+02  0.000000000E+00  0.00000E+00  9.000E+00
      21    -1     0     0   512   515  0.000000000E+00  0.000000000E+00 -3.400521631E+00  3.400521631E+00  0.000000000E+00  0.00000E+00  9.000E+00
      21     1     1     2   511   514  6.698332749E+00 -6.795669415E+00  1.613720923E+02  1.616539544E+02  2.697398305E-06  0.00000E+00  9.000E+00
       3     1     1     2   512     0 -1.019151906E+01  8.224460276E+00  1.541920146E+01  2.023636779E+01  5.000000000E-01  0.00000E+00  9.000E+00
      -3     1     1     2     0   511  3.493186312E+00 -1.428790860E+00  3.406826634E+00  5.108841517E+00  5.000000000E-01  0.00000E+00  9.000E+00
</event>
<event>
      5  10001  2.40292E+09  8.12891E+00 -1.00000E+00  2.06702E-01
      21    -1     0     0   513   511  0.000000000E+00  0.000000000E+00  2.323067677E+01  2.323067677E+01  0.000000000E+00  0.00000E+00  9.000E+00
      21    -1     0     0   516   513  0.000000000E+00  0.000000000E+00 -3.233435433E+01  3.233435433E+01  0.000000000E+00  0.00000E+00  9.000E+00
      21     1     1     2   512   511 -8.111157629E+00  1.373609948E+01  1.751302544E+01  2.368918249E+01  5.331201500E-07  0.00000E+00  9.000E+00
      -2     1     1     2     0   512  2.712631001E+00 -9.134530647E+00 -1.005931468E+01  1.385989643E+01  3.300000131E-01  0.00000E+00  9.000E+00
       2     1     1     2   516     0  5.398526628E+00 -4.601568830E+00 -1.655738831E+01  1.801595219E+01  3.300000131E-01  0.00000E+00  9.000E+00
</event>
<event>
      5  10001  2.40292E+09  6.00583E+00 -1.00000E+00  2.25328E-01
      21    -1     0     0   514   512  0.000000000E+00  0.000000000E+00  1.854132369E+01  1.854132369E+01  0.000000000E+00  0.00000E+00  9.000E+00
      21    -1     0     0   511   515  0.000000000E+00  0.000000000E+00 -1.377975349E+01  1.377975349E+01  0.000000000E+00  0.00000E+00  9.000E+00
      21     1     1     2   514   515 -2.418582999E+00 -1.090601167E+01 -7.328674574E-02  1.117121324E+01  2.621354592E-07  0.00000E+00  9.000E+00
      21     1     1     2   511   516  7.392303762E+00  7.539689481E+00 -3.277760390E+00  1.105607460E+01  1.788139343E-07  0.00000E+00  9.000E+00
      21     1     1     2   516   512 -4.973720763E+00  3.366322187E+00  8.112617339E+00  1.009378935E+01  1.192092896E-07  0.00000E+00  9.000E+00
</event>
<event>
      5  10001  2.40292E+09  7.69666E+00 -1.00000E+00  2.09822E-01
      21    -1     0     0   513   511  0.000000000E+00  0.000000000E+00  2.654233510E+01  2.654233510E+01  0.000000000E+00  0.00000E+00  9.000E+00
      -1    -1     0     0     0   512  0.000000000E+00  0.000000000E+00 -3.074298057E+01  3.074298057E+01  0.000000000E+00  0.00000E+00  9.000E+00
      21     1     1     2   513   512  3.160800510E+00  1.140804518E+01 -5.547007986E+00  1.307300472E+01  2.457562462E-07  0.00000E+00  9.000E+00
      21     1     1     2   517   511 -1.079245678E+01 -1.041294406E+01  1.943689907E+01  2.454994039E+01  0.000000000E+00  0.00000E+00  9.000E+00
      -1     1     1     2     0   517  7.631656275E+00 -9.951011218E-01 -1.809053655E+01  1.966237057E+01  3.300000131E-01  0.00000E+00  9.000E+00
</event>
<event>
      5  10001  2.40292E+09  5.18629E+00 -1.00000E+00  2.35687E-01
      21    -1     0     0   514   512  0.000000000E+00  0.000000000E+00  7.824696647E+00  7.824696647E+00  0.000000000E+00  0.00000E+00  9.000E+00
      21    -1     0     0   516   515  0.000000000E+00  0.000000000E+00 -5.069934848E+01  5.069934848E+01  0.000000000E+00  0.00000E+00  9.000E+00
      21     1     1     2   514   515  8.886178164E+00 -9.771020216E+00 -3.791527079E+01  4.014977905E+01  4.768371582E-07  0.00000E+00  9.000E+00
       4     1     1     2   516     0 -5.846540597E+00  8.425527866E+00  1.964222436E+00  1.054892063E+01  1.500000000E+00  0.00000E+00  9.000E+00
      -4     1     1     2     0   512 -3.039637566E+00  1.345492350E+00 -6.923603480E+00  7.825345446E+00  1.500000000E+00  0.00000E+00  9.000E+00
</event>
<event>
      5  10001  2.40292E+09  8.90887E+00 -1.00000E+00  2.01680E-01
      21    -1     0     0   511   515  0.000000000E+00  0.000000000E+00  1.800674348E+02  1.800674348E+02  0.000000000E+00  0.00000E+00  9.000E+00
      21    -1     0     0   512   511  0.000000000E+00  0.000000000E+00 -1.645952046E+00  1.645952046E+00  0.000000000E+00  0.00000E+00  9.000E+00
      21     1     1     2   512   513 -2.902310577E+00 -1.508438928E+01  5.987416457E+01  6.181324930E+01  0.000000000E+00  0.00000E+00  9.000E+00
      21     1     1     2   514   515  5.444067936E+00  6.624840760E+00  7.320098796E+01  7.370149951E+01  9.536743164E-07  0.00000E+00  9.000E+00
      21     1     1     2   513   514 -2.541757359E+00  8.459548523E+00  4.534633025E+01  4.619863806E+01  6.743495762E-07  0.00000E+00  9.000E+00
</event>
<event>
      5  10001  2.40292E+09  4.46786E+00 -1.00000E+00  2.52542E-01
      21    -1     0     0   511   513  0.000000000E+00  0.000000000E+00  8.946181327E+00  8.946181327E+00  0.000000000E+00  0.00000E+00  9.000E+00
      21    -1     0     0   512   517  0.000000000E+00  0.000000000E+00 -1.154744421E+02  1.154744421E+02  0.000000000E+00  0.00000E+00  9.000E+00
      21     1     1     2   516   517  1.248295377E+01 -1.575551533E+01 -7.080690770E+00  2.131188823E+01  5.900558792E-07  0.00000E+00  9.000E+00
      21     1     1     2   512   513 -1.563487885E+01  1.258894483E+01 -9.371527334E+01  9.584092772E+01  1.348699152E-06  0.00000E+00  9.000E+00
      21     1     1     2   511   516  3.151925074E+00  3.166570500E+00 -5.732296620E+00  7.267807437E+00  1.192092896E-07  0.00000E+00  9.000E+00
</event>
<event>
      5  10001  2.40292E+09  9.52714E+00 -1.00000E+00  1.98161E-01
      21    -1     0     0   514   512  0.000000000E+00  0.000000000E+00  1.584973374E+01  1.584973374E+01  0.000000000E+00  0.00000E+00  9.000E+00
      21    -1     0     0   516   515  0.000000000E+00  0.000000000E+00 -3.457657596E+01  3.457657596E+01  0.000000000E+00  0.00000E+00  9.000E+00
      21     1     1     2   514   515 -6.572699192E+00  6.628870032E+00  1.177466286E+01  1.502614315E+01  1.685873940E-07  0.00000E+00  9.000E+00
      21     1     1     2   513   512  5.667287627E+00  4.710371652E-01 -2.669400778E+01  2.729304081E+01  0.000000000E+00  0.00000E+00  9.000E+00
      21     1     1     2   516   513  9.054115645E-01 -7.099907197E+00 -3.807497295E+00  8.107125752E+00  1.397852826E-07  0.00000E+00  9.000E+00
</event>
<event>
      5  10001  2.40292E+09  5.49116E+00 -1.00000E+00  2.31537E-01
      21    -1     0     0   511   513  0.000000000E+00  0.000000000E+00  5.465049448E-01  5.465049448E-01  0.000000000E+00  0.00000E+00  9.000E+00
      21    -1     0     0   516   517  0.000000000E+00  0.000000000E+00 -2.091464797E+02  2.091464797E+02  0.000000000E+00  0.00000E+00  9.000E+00
      21     1     1     2   511   517 -1.006482153E-01 -9.118204284E+00 -7.161761676E+01  7.219580881E+01  1.348699152E-06  0.00000E+00  9.000E+00
      21     1     1     2   512   513  2.007715257E+00  7.563950912E+00 -6.449250020E+01  6.496558209E+01  9.536743164E-07  0.00000E+00  9.000E+00
      21     1     1     2   516   512 -1.907067042E+00  1.554253372E+00 -7.248985776E+01  7.253159371E+01  9.536743164E-07  0.00000E+00  9.000E+00
</event>
<event>
      5  10001  2.40292E+09  1.52164E+01 -1.00000E+00  1.76752E-01
      21    -1     0     0   514   512  0.000000000E+00  0.000000000E+00  4.689150069E+02  4.689150069E+02  0.000000000E+00  0.00000E+00  9.000E+00
      21    -1     0     0   516   515  0.000000000E+00  0.000000000E+00 -3.781051589E-01  3.781051589E-01  0.000000000E+00  0.00000E+00  9.000E+00
      21     1     1     2   514   515 -6.224743902E+00  2.442745026E+00  7.112670757E+01  7.144034553E+01  1.651812370E-06  0.00000E+00  9.000E+00
      21     1     1     2   516   511  2.346189923E+00 -1.002483374E+00  3.779046819E+02  3.779132946E+02  5.394796609E-06  0.00000E+00  9.000E+00
      21     1     1     2   511   512  3.878553979E+00 -1.440261652E+00  1.950551226E+01  1.993947199E+01  4.768371582E-07  0.00000E+00  9.000E+00
</event>
<event>
      5  10001  2.40292E+09  6.23741E+00 -1.00000E+00  2.22809E-01
       4    -1     0     0   514     0  0.000000000E+00  0.000000000E+00  3.428729534E+00  3.428729534E+00  0.000000000E+00  0.00000E+00  9.000E+00
      21    -1     0     0   513   514  0.000000000E+00  0.000000000E+00 -3.681446934E+02  3.681446934E+02  0.000000000E+00  0.00000E+00  9.000E+00
      21     1     1     2   513   511 -1.325873167E+01  4.313825215E+00 -3.450592934E+02  3.453408736E+02  3.814697266E-06  0.00000E+00  9.000E+00
       4     1     1     2   515     0  1.283879224E+01  9.677958052E-02 -1.509472906E+01  1.987321811E+01  1.500000000E+00  0.00000E+00  9.000E+00
      21     1     1     2   511   515  4.199394296E-01 -4.410604796E+00 -4.561941455E+00  6.359331225E+00  2.528810911E-07  0.00000E+00  9.000E+00
</event>
<event>
      5  10001  2.40292E+09  2.28099E+01 -1.00000E+00  1.61753E-01
      21    -1     0     0   511   513  0.000000000E+00  0.000000000E+00  3.515129614E+01  3.515129614E+01  0.000000000E+00  0.00000E+00  9.000E+00
       2    -1     0     0   513     0  0.000000000E+00  0.000000000E+00 -1.301832789E+02  1.301832789E+02  0.000000000E+00  0.00000E+00  9.000E+00
      21     1     1     2   511   512  1.438515825E+01 -8.652748698E+00  2.733546587E+01  3.207850577E+01  4.768371582E-07  0.00000E+00  9.000E+00
       2     1     1     2   514     0 -3.403482949E+00  7.087846569E+00 -1.218998462E+02  1.221536027E+02  3.300000131E-01  0.00000E+00  9.000E+00
      21     1     1     2   512   514 -1.098167530E+01  1.564902129E+00 -4.676024642E-01  1.110246654E+01  2.001281979E-07  0.00000E+00  9.000E+00
</event>
<event>
      5  10001  2.40292E+09  6.85149E+00 -1.00000E+00  2.16806E-01
      21    -1     0     0   515   511  0.000000000E+00  0.000000000E+00  1.901164065E+01  1.901164065E+01  0.000000000E+00  0.00000E+00  9.000E+00
       2    -1     0     0   512     0  0.000000000E+00  0.000000000E+00 -1.639514229E+02  1.639514229E+02  0.000000000E+00  0.00000E+00  9.000E+00
      21     1     1     2   512   513  7.300159956E+00  1.185127488E+01 -1.784394398E+01  2.263076200E+01  4.129530925E-07  0.00000E+00  9.000E+00
       2     1     1     2   515     0 -1.146120156E+00 -8.839676162E+00 -1.428628349E+02  1.431410213E+02  3.300000131E-01  0.00000E+00  9.000E+00
      21     1     1     2   513   511 -6.154039800E+00 -3.011598718E+00  1.576699668E+01  1.719128026E+01  3.371747881E-07  0.00000E+00  9.000E+00
</event>
<event>
      5  10001  2.40292E+09  1.08849E+01 -1.00000E+00  1.91539E-01
      21    -1     0     0   514   513  0.000000000E+00  0.000000000E+00  9.179246791E+02  9.179246791E+02  0.000000000E+00  0.00000E+00  9.000E+00
      21    -1     0     0   515   511  0.000000000E+00  0.000000000E+00 -1.948807316E+00  1.948807316E+00  0.000000000E+00  0.00000E+00  9.000E+00
      21     1     1     2   514   511 -1.058124307E+00  1.374942067E+01  3.990286698E+02  3.992668851E+02  5.394796609E-06  0.00000E+00  9.000E+00
      21     1     1     2   512   513  1.128848090E+01 -1.003185902E+01  5.014021771E+02  5.016295558E+02  5.394796609E-06  0.00000E+00  9.000E+00
      21     1     1     2   515   512 -1.023035659E+01 -3.717561651E+00  1.554502485E+01  1.897704557E+01  9.830249847E-07  0.00000E+00  9.000E+00
</event>
<event>
      5  10001  2.40292E+09  1.22133E+01 -1.00000E+00  1.86174E-01
      -3    -1     0     0     0   512  0.000000000E+00  0.000000000E+00  1.437929331E+02  1.437929331E+02  0.000000000E+00  0.00000E+00  9.000E+00
      -4    -1     0     0     0   511  0.000000000E+00  0.000000000E+00 -1.532817540E+00  1.532817540E+00  0.000000000E+00  0.00000E+00  9.000E+00
      -4     1     1     2     0   512  3.276862403E+00  1.164591429E+01  4.571249968E+01  4.731012337E+01  1.500000000E+00  0.00000E+00  9.000E+00
      21     1     1     2   513   511  1.119356000E+00 -7.436826557E+00  2.264585983E+01  2.386198472E+01  4.768371582E-07  0.00000E+00  9.000E+00
      -3     1     1     2     0   513 -4.396218403E+00 -4.209087736E+00  7.390175609E+01  7.415364259E+01  5.000000000E-01  0.00000E+00  9.000E+00
</event>
<event>
      5  10001  2.40292E+09  7.34395E+00 -1.00000E+00  2.12582E-01
      21    -1     0     0   514   513  0.000000000E+00  0.000000000E+00  3.338155382E-01  3.338155382E-01  0.000000000E+00  0.00000E+00  9.000E+00
      21    -1     0     0   512   515  0.000000000E+00  0.000000000E+00 -8.001963087E+02  8.001963087E+02  0.000000000E+00  0.00000E+00  9.000E+00
      21     1     1     2   514   515 -1.378759813E+00 -1.411688629E+01 -3.084028695E+02  3.087288736E+02  3.814697266E-06  0.00000E+00  9.000E+00
      21     1     1     2   511   513  2.099294239E+00  1.142773464E+01 -4.720510420E+02  4.721940135E+02  5.394796609E-06  0.00000E+00  9.000E+00
      21     1     1     2   512   511 -7.205344253E-01  2.689151649E+00 -1.940858162E+01  1.960723711E+01  0.000000000E+00  0.00000E+00  9.000E+00
</event>
<event>
      5  10001  2.40292E+09  1.74472E+01 -1.00000E+00  1.71371E-01
      21    -1     0     0   512   511  0.000000000E+00  0.000000000E+00  4.105282988E+01  4.105282988E+01  0.000000000E+00  0.00000E+00  9.000E+00
      -2    -1     0     0     0   516  0.000000000E+00  0.000000000E+00 -3.160964843E+00  3.160964843E+00  0.000000000E+00  0.00000E+00  9.000E+00
      21     1     1     2   513   511  4.448633128E+00 -1.901429436E+00  1.406718364E+01  1.487586724E+01  1.685873940E-07  0.00000E+00  9.000E+00
      21     1     1     2   512   516 -2.878469371E+00 -6.984007528E+00  1.454983805E+01  1.639389320E+01  3.371747881E-07  0.00000E+00  9.000E+00
      -2     1     1     2     0   513 -1.570163757E+00  8.885436964E+00  9.274843344E+00  1.294403428E+01  3.300000131E-01  0.00000E+00  9.000E+00
</event>
<event>
      5  10001  2.40292E+09  6.56146E+00 -1.00000E+00  2.19529E-01
      21    -1     0     0   512   515  0.000000000E+00  0.000000000E+00  4.361710674E+00  4.361710674E+00  0.000000000E+00  0.00000E+00  9.000E+00
       1    -1     0     0   511     0  0.000000000E+00  0.000000000E+00 -6.038740443E+01  6.038740443E+01  0.000000000E+00  0.00000E+00  9.000E+00
      21     1     1     2   511   515 -9.341506624E+00  5.895552254E+00 -1.774147645E+01  2.089931264E+01  2.384185791E-07  0.00000E+00  9.000E+00
       1     1     1     2   514     0  3.787075282E+00 -9.386872744E+00 -3.514839118E+01  3.657832174E+01  3.300000131E-01  0.00000E+00  9.000E+00
      21     1     1     2   512   514  5.554431342E+00  3.491320490E+00 -3.135826128E+00  7.271480716E+00  4.214684851E-08  0.00000E+00  9.000E+00
</event>
<event>
      5  10001  2.40292E+09  5.34438E+01 -1.00000E+00  1.37417E-01
      21    -1     0     0   513   511  0.000000000E+00  0.000000000E+00  4.623509345E+01  4.623509345E+01  0.000000000E+00  0.00000E+00  9.000E+00
      -2    -1     0     0     0   513  0.000000000E+00  0.000000000E+00 -3.196433101E+01  3.196433101E+01  0.000000000E+00  0.00000E+00  9.000E+00
      -2     1     1     2     0   512 -1.002151235E+01  1.540096161E+01 -5.305741276E+00  1.912799307E+01  3.300000131E-01  0.00000E+00  9.000E+00
      21     1     1     2   515   511  1.892603694E+01  1.048894342E+01  2.288360352E+01  3.149400131E+01  3.371747881E-07  0.00000E+00  9.000E+00
      21     1     1     2   512   515 -8.904524586E+00 -2.588990503E+01 -3.307099812E+00  2.757743008E+01  6.529361695E-07  0.00000E+00  9.000E+00
</event>
<event>
      5  10001  2.40292E+09  1.34889E+01 -1.00000E+00  1.81791E-01
      21    -1     0     0   514   512  0.000000000E+00  0.000000000E+00  3.649692521E+02  3.649692521E+02  0.000000000E+00  0.00000E+00  9.000E+00
      21    -1     0     0   516   511  0.000000000E+00  0.000000000E+00 -2.088329002E+01  2.088329002E+01  0.000000000E+00  0.00000E+00  9.000E+00
      21     1     1     2   516   517  1.247695315E+01  1.624641934E+00  1.232968730E+02  1.239372128E+02  3.303624740E-06  0.00000E+00  9.000E+00
      21     1     1     2   517   512 -1.967503540E+01 -1.303239465E+01  2.384932499E+02  2.396580492E+02  2.697398305E-06  0.00000E+00  9.000E+00
      21     1     1     2   514   511  7.198082251E+00  1.140775272E+01 -1.770416076E+01  2.225728012E+01  1.390207266E-06  0.00000E+00  9.000E+00
</event>
<event>
      5  10001  2.40292E+09  6.23406E+00 -1.00000E+00  2.22845E-01
       1    -1     0     0   513     0  0.000000000E+00  0.000000000E+00  2.086418844E+02  2.086418844E+02  0.000000000E+00  0.00000E+00  9.000E+00
       4    -1     0     0   514     0  0.000000000E+00  0.000000000E+00 -8.835124848E+00  8.835124848E+00  0.000000000E+00  0.00000E+00  9.000E+00
      21     1     1     2   514   512  1.086467216E+01  4.909012263E+00  2.463544936E+01  2.736868407E+01  4.768371582E-07  0.00000E+00  9.000E+00
       4     1     1     2   513     0 -1.071589936E+01 -1.113901666E+01  7.205443601E-01  1.554597618E+01  1.500000000E+00  0.00000E+00  9.000E+00
       1     1     1     2   512     0 -1.487727967E-01  6.230004396E+00  1.744507659E+02  1.745623490E+02  3.300000131E-01  0.00000E+00  9.000E+00
</event>
<event>
      5  10001  2.40292E+09  3.19737E+00 -1.00000E+00  2.88585E-01
      21    -1     0     0   513   515  0.000000000E+00  0.000000000E+00  2.954689026E+01  2.954689026E+01  0.000000000E+00  0.00000E+00  9.000E+00
      -2    -1     0     0     0   511  0.000000000E+00  0.000000000E+00 -3.525910658E+01  3.525910658E+01  0.000000000E+00  0.00000E+00  9.000E+00
      -2     1     1     2     0   515 -8.977608871E+00 -7.099077843E+00 -3.243621837E+01  3.439784193E+01  3.300000131E-01  0.00000E+00  9.000E+00
      21     1     1     2   514   511  6.281754351E+00  8.818094780E+00  2.346675377E+01  2.584391158E+01  4.768371582E-07  0.00000E+00  9.000E+00
      21     1     1     2   513   514  2.695854520E+00 -1.719016938E+00  3.257248283E+00  4.564243332E+00  9.424321831E-08  0.00000E+00  9.000E+00
</event>
<event>
      5  10001  2.40292E+09  1.52958E+01 -1.00000E+00  1.76541E-01
      21    -1     0     0   512   514  0.000000000E+00  0.000000000E+00  1.710514345E+01  1.710514345E+01  0.000000000E+00  0.00000E+00  9.000E+00
      21    -1     0     0   516   512  0.000000000E+00  0.000000000E+00 -1.665054975E+01  1.665054975E+01  0.000000000E+00  0.00000E+00  9.000E+00
      21     1     1     2   516   517 -2.143328205E+00 -1.368353519E+01  5.858084309E+00  1.503828923E+01  8.429369702E-08  0.00000E+00  9.000E+00
      21     1     1     2   517   511  2.309295705E+00  5.413555099E+00  3.269244415E+00  6.732561511E+00  0.000000000E+00  0.00000E+00  9.000E+00
      21     1     1     2   511   514 -1.659674996E-01  8.269980091E+00 -8.672735032E+00  1.198484246E+01  1.192092896E-07  0.00000E+00  9.000E+00
</event>
<event>
      5  10001  2.40292E+09  1.12261E+01 -1.00000E+00  1.90069E-01
      21    -1     0     0   512   516  0.000000000E+00  0.000000000E+00  2.754546081E+02  2.754546081E+02  0.000000000E+00  0.00000E+00  9.000E+00
      21    -1     0     0   515   514  0.000000000E+00  0.000000000E+00 -2.920573471E+01  2.920573471E+01  0.000000000E+00  0.00000E+00  9.000E+00
      21     1     1     2   513   514 -3.725479401E+00  5.967957277E+00 -2.753786594E+01  2.842234634E+01  1.011524364E-06  0.00000E+00  9.000E+00
      21     1     1     2   515   516  1.483733171E+01 -4.370409648E+00  2.425946859E+02  2.430872859E+02  0.000000000E+00  0.00000E+00  9.000E+00
      21     1     1     2   512   513 -1.111185231E+01 -1.597547629E+00  3.119205338E+01  3.315071062E+01  5.840038640E-07  0.00000E+00  9.000E+00
</event>
<event>
      5  10001  2.40292E+09  4.80428E+00 -1.00000E+00  2.45936E-01
       2    -1     0     0   514     0  0.000000000E+00  0.000000000E+00  5.051219234E+02  5.051219234E+02  0.000000000E+00  0.00000E+00  9.000E+00
      21    -1     0     0   511   512  0.000000000E+00  0.000000000E+00 -4.882628279E+00  4.882628279E+00  0.000000000E+00  0.00000E+00  9.000E+00
      21     1     1     2   514   512  9.788549300E+00  2.711852155E+00  5.258540391E-01  1.017085847E+01  5.809542146E-07  0.00000E+00  9.000E+00
      21     1     1     2   511   515 -2.646223291E+00 -2.511311702E+00  2.117964191E+02  2.118278366E+02  3.814697266E-06  0.00000E+00  9.000E+00
       2     1     1     2   515     0 -7.142326009E+00 -2.005404530E-01  2.879170219E+02  2.880058566E+02  3.300000131E-01  0.00000E+00  9.000E+00
</event>
<event>
      5  10001  2.40292E+09  8.27647E+00 -1.00000E+00  2.05695E-01
      21    -1     0     0   513   515  0.000000000E+00  0.000000000E+00  4.861660752E+01  4.861660752E+01  0.000000000E+00  0.00000E+00  9.000E+00
      21    -1     0     0   516   513  0.000000000E+00  0.000000000E+00 -1.746078429E+01  1.746078429E+01  0.000000000E+00  0.00000E+00  9.000E+00
      21     1     1     2   511   515 -7.904329320E+00 -7.832699687E+00  4.545853182E+01  4.680072352E+01  6.743495762E-07  0.00000E+00  9.000E+00
      21     1     1     2   512   511  2.589309080E+00  6.053096345E+00 -4.467141707E+00  7.956120405E+00  3.209808354E-07  0.00000E+00  9.000E+00
      21     1     1     2   516   512  5.315020240E+00  1.779603341E+00 -9.835566895E+00  1.132054788E+01  2.384185791E-07  0.00000E+00  9.000E+00
</event>
<event>
      5  10001  2.40292E+09  4.05294E+00 -1.00000E+00  2.62025E-01
      21    -1     0     0   513   514  0.000000000E+00  0.000000000E+00  6.870294432E+00  6.870294432E+00  0.000000000E+00  0.00000E+00  9.000E+00
       1    -1     0     0   511     0  0.000000000E+00  0.000000000E+00 -1.249436589E+02  1.249436589E+02  0.000000000E+00  0.00000E+00  9.000E+00
      21     1     1     2   515   514 -3.908543261E+00  1.258469544E+01 -5.133997255E+01  5.300418899E+01  6.743495762E-07  0.00000E+00  9.000E+00
      21     1     1     2   511   515  7.071236143E+00 -1.005044058E+01 -7.149774755E+01  7.254613458E+01  1.348699152E-06  0.00000E+00  9.000E+00
       1     1     1     2   513     0 -3.162692882E+00 -2.534254863E+00  4.764355598E+00  6.263629798E+00  3.300000131E-01  0.00000E+00  9.000E+00
</event>
<event>
      5  10001  2.40292E+09  1.00971E+01 -1.00000E+00  1.95215E-01
      21    -1     0     0   514   515  0.000000000E+00  0.000000000E+00  1.600512512E+03  1.600512512E+03  0.000000000E+00  0.00000E+00  9.000E+00
      21    -1     0     0   516   512  0.000000000E+00  0.000000000E+00 -3.520860964E+01  3.520860964E+01  0.000000000E+00  0.00000E+00  9.000E+00
      21     1     1     2   511   515 -1.510342846E+01  1.060843572E+01  1.482101820E+03  1.482216738E+03  2.157918644E-05  0.00000E+00  9.000E+00
      21     1     1     2   516   511  6.778701556E+00 -4.894385884E+00 -3.443462461E+01  3.543514047E+01  3.724217260E-06  0.00000E+00  9.000E+00
      21     1     1     2   514   512  8.324726905E+00 -5.714049837E+00  1.176367063E+02  1.180692429E+02  1.907348633E-06  0.00000E+00  9.000E+00
</event>
<event>
      5  10001  2.40292E+09  2.49153E+00 -1.00000E+00  3.23535E-01
      21    -1     0     0   513   515  0.000000000E+00  0.000000000E+00  1.083375137E+02  1.083375137E+02  0.000000000E+00  0.00000E+00  9.000E+00
      21    -1     0     0   517   511  0.000000000E+00  0.000000000E+00 -4.023575065E+00  4.023575065E+00  0.000000000E+00  0.00000E+00  9.000E+00
      21     1     1     2   517   512  4.493593967E+00  1.062488690E+01  6.610723836E+00  1.329594968E+01  5.591411304E-07  0.00000E+00  9.000E+00
      21     1     1     2   512   515 -3.001134458E+00 -8.629823898E+00  9.480045371E+01  9.523973274E+01  0.000000000E+00  0.00000E+00  9.000E+00
      21     1     1     2   513   511 -1.492459509E+00 -1.995063002E+00  2.902761101E+00  3.825406355E+00  8.429369702E-08  0.00000E+00  9.000E+00
</event>
<event>
      5  10001  2.40292E+09  9.59436E+00 -1.00000E+00  1.97800E-01
      -3    -1     0     0     0   511  0.000000000E+00  0.000000000E+00  6.646284519E+00  6.646284519E+00  0.000000000E+00  0.00000E+00  9.000E+00
      -2    -1     0     0     0   513  0.000000000E+00  0.000000000E+00 -8.834701255E+02  8.834701255E+02  0.000000000E+00  0.00000E+00  9.000E+00
      -3     1     1     2     0   512  4.182747995E+00 -1.152495497E+01 -3.540574876E+00  1.277128178E+01  5.000000000E-01  0.00000E+00  9.000E+00
      -2     1     1     2     0   511 -1.023860762E+01  7.933662561E+00 -8.690152880E+02  8.691118753E+02  3.300000131E-01  0.00000E+00  9.000E+00
      21     1     1     2   512   513  6.055859623E+00  3.591292409E+00 -4.267978091E+00  8.233252937E+00  3.475518164E-07  0.00000E+00  9.000E+00
</event>
<event>
      5  10001  2.40292E+09  6.71394E+00 -1.00000E+00  2.18074E-01
      -4    -1     0     0     0   511  0.000000000E+00  0.000000000E+00  1.530337614E+02  1.530337614E+02  0.000000000E+00  0.00000E+00  9.000E+00
       3    -1     0     0   511     0  0.000000000E+00  0.000000000E+00 -8.697905473E+00  8.697905473E+00  0.000000000E+00  0.00000E+00  9.000E+00
      -4     1     1     2     0   513 -1.001422744E+01 -7.347545189E-01  1.489308358E+02  1.492764833E+02  1.500000000E+00  0.00000E+00  9.000E+00
      21     1     1     2   513   514  6.904590861E+00  7.206222503E-02 -7.374843146E-02  6.905360726E+00  2.799131792E-07  0.00000E+00  9.000E+00
       3     1     1     2   514     0  3.109636583E+00  6.626922939E-01 -4.521231396E+00  5.549822888E+00  5.000000000E-01  0.00000E+00  9.000E+00
</event>
<event>
      5  10001  2.40292E+09  2.11566E+01 -1.00000E+00  1.64339E-01
      21    -1     0     0   512   513  0.000000000E+00  0.000000000E+00  9.155514655E+00  9.155514655E+00  0.000000000E+00  0.00000E+00  9.000E+00
      21    -1     0     0   511   515  0.000000000E+00  0.000000000E+00 -1.505255096E+01  1.505255096E+01  0.000000000E+00  0.00000E+00  9.000E+00
      21     1     1     2   512   515  2.163688051E+00  2.476561591E+00  9.082310402E-01  3.411713194E+00  1.210576058E-07  0.00000E+00  9.000E+00
      21     1     1     2   511   516 -3.409008970E+00  1.064131369E+00  6.257608854E+00  7.204955677E+00  2.384185791E-07  0.00000E+00  9.000E+00
      21     1     1     2   516   513  1.245320918E+00 -3.540692960E+00 -1.306287620E+01  1.359139674E+01  2.384185791E-07  0.00000E+00  9.000E+00
</event>
<event>
      5  10001  2.40292E+09  5.84536E+00 -1.00000E+00  2.27168E-01
      21    -1     0     0   514   511  0.000000000E+00  0.000000000E+00  2.378784596E+00  2.378784596E+00  0.000000000E+00  0.00000E+00  9.000E+00
      21    -1     0     0   517   513  0.000000000E+00  0.000000000E+00 -4.103101454E+02  4.103101454E+02  0.000000000E+00  0.00000E+00  9.000E+00
      21     1     1     2   514   513 -5.298102243E+00  1.044576763E+01 -3.727577648E+02  3.729417316E+02  0.000000000E+00  0.00000E+00  9.000E+00
      21     1     1     2   517   512  9.228117983E+00 -8.980805981E+00 -1.840708873E+01  2.246405914E+01  1.039242493E-06  0.00000E+00  9.000E+00
      21     1     1     2   512   511 -3.930015740E+00 -1.464961651E+00 -1.676650726E+01  1.728313925E+01  3.371747881E-07  0.00000E+00  9.000E+00
</event>
<event>
      5  10001  2.40292E+09  5.43310E+00 -1.00000E+00  2.32298E-01
      21    -1     0     0   515   513  0.000000000E+00  0.000000000E+00  1.334002342E+01  1.334002342E+01  0.000000000E+00  0.00000E+00  9.000E+00
      21    -1     0     0   516   511  0.000000000E+00  0.000000000E+00 -5.196322576E+01  5.196322576E+01  0.000000000E+00  0.00000E+00  9.000E+00
      21     1     1     2   515   511 -1.951610693E+01  3.501871374E+00 -3.856731818E+01  4.336564959E+01  6.743495762E-07  0.00000E+00  9.000E+00
      21     1     1     2   514   513  1.271980879E+01 -3.496852222E+00  4.288642573E+00  1.387133614E+01  4.420398764E-07  0.00000E+00  9.000E+00
      21     1     1     2   516   514  6.796298137E+00 -5.019151992E-03 -4.344526728E+00  8.066263450E+00  1.192092896E-07  0.00000E+00  9.000E+00
</event>
<event>
      5  10001  2.40292E+09  1.07130E+01 -1.00000E+00  1.92306E-01
       1    -1     0     0   511     0  0.000000000E+00  0.000000000E+00  3.823525023E+02  3.823525023E+02  0.000000000E+00  0.00000E+00  9.000E+00
      21    -1     0     0   512   514  0.000000000E+00  0.000000000E+00 -8.111523776E+00  8.111523776E+00  0.000000000E+00  0.00000E+00  9.000E+00
      21     1     1     2   511   514 -2.435330632E+01 -1.156168801E+01  1.658506684E+01  3.165154974E+01  5.331201500E-07  0.00000E+00  9.000E+00
       1     1     1     2   513     0  8.531850863E+00  9.515730776E+00  1.694894873E+02  1.699709882E+02  3.300000131E-01  0.00000E+00  9.000E+00
      21     1     1     2   512   513  1.582145546E+01  2.045957234E+00  1.881664243E+02  1.888414881E+02  0.000000000E+00  0.00000E+00  9.000E+00
</event>
<event>
      5  10001  2.40292E+09  1.94078E+01 -1.00000E+00  1.67411E-01
      21    -1     0     0   515   513  0.000000000E+00  0.000000000E+00  2.789968757E+01  2.789968757E+01  0.000000000E+00  0.00000E+00  9.000E+00
      21    -1     0     0   512   516  0.000000000E+00  0.000000000E+00 -4.506769307E+00  4.506769307E+00  0.000000000E+00  0.00000E+00  9.000E+00
      21     1     1     2   515   516 -2.785864608E-01 -3.584490765E+00  2.875985570E+00  4.604071834E+00  1.332800375E-07  0.00000E+00  9.000E+00
      21     1     1     2   512   511 -5.598498081E-01 -2.225264277E+00  2.169448283E+01  2.181549491E+01  3.371747881E-07  0.00000E+00  9.000E+00
      21     1     1     2   511   513  8.384362689E-01  5.809755042E+00 -1.177550145E+00  5.986890125E+00  2.264780425E-07  0.00000E+00  9.000E+00
</event>
<event>
      5  10001  2.40292E+09  1.48414E+01 -1.00000E+00  1.77772E-01
       2    -1     0     0   515     0  0.000000000E+00  0.000000000E+00  6.889997944E+01  6.889997944E+01  0.000000000E+00  0.00000E+00  9.000E+00
      21    -1     0     0   514   515  0.000000000E+00  0.000000000E+00 -5.972991332E+00  5.972991332E+00  0.000000000E+00  0.00000E+00  9.000E+00
      21     1     1     2   514   512 -4.504244226E+00 -4.786439464E+00  5.346056396E+00  8.472221537E+00  1.332800375E-07  0.00000E+00  9.000E+00
       2     1     1     2   511     0  1.518427509E+01 -5.072428076E-01  5.003802008E+01  5.229466377E+01  3.300000131E-01  0.00000E+00  9.000E+00
      21     1     1     2   512   511 -1.068003087E+01  5.293682271E+00  7.542911634E+00  1.410608547E+01  3.953724850E-07  0.00000E+00  9.000E+00
</event>
<event>
      5  10001  2.40292E+09  1.45900E+01 -1.00000E+00  1.78477E-01
      21    -1     0     0   516   514  0.000000000E+00  0.000000000E+00  1.232775542E+01  1.232775542E+01  0.000000000E+00  0.00000E+00  9.000E+00
      -3    -1     0     0     0   513  0.000000000E+00  0.000000000E+00 -5.943346010E+01  5.943346010E+01  0.000000000E+00  0.00000E+00  9.000E+00
      -3     1     1     2     0   515  6.378646010E+00  2.560226540E+00 -3.791381306E+01  3.853503738E+01  5.000000000E-01  0.00000E+00  9.000E+00
      21     1     1     2   515   514 -3.707913589E+00 -1.690182273E+01 -5.788458928E+00  1.824627336E+01  0.000000000E+00  0.00000E+00  9.000E+00
      21     1     1     2   516   513 -2.670732421E+00  1.434159620E+01 -3.403432692E+00  1.497990478E+01  0.000000000E+00  0.00000E+00  9.000E+00
</event>
<event>
      5  10001  2.40292E+09  1.09052E+01 -1.00000E+00  1.91449E-01
       1    -1     0     0   513     0  0.000000000E+00  0.000000000E+00  3.395786841E+02  3.395786841E+02  0.000000000E+00  0.00000E+00  9.000E+00
      21    -1     0     0   511   512  0.000000000E+00  0.000000000E+00 -1.658945792E+00  1.658945792E+00  0.000000000E+00  0.00000E+00  9.000E+00
      21     1     1     2   513   512  8.134309805E+00  8.326193612E+00  2.158192144E+01  2.452084479E+01  5.840038640E-07  0.00000E+00  9.000E+00
       1     1     1     2   514     0 -2.073801670E+00  2.930140714E-01  1.645668571E+02  1.645805149E+02  3.300000131E-01  0.00000E+00  9.000E+00
      21     1     1     2   511   514 -6.060508135E+00 -8.619207684E+00  1.517709598E+02  1.521362703E+02  1.907348633E-06  0.00000E+00  9.000E+00
</event>
<event>
      5  10001  2.40292E+09  5.09506E+00 -1.00000E+00  2.37009E-01
      21    -1     0     0   511   514  0.000000000E+00  0.000000000E+00  1.279985474E-01  1.279985474E-01  0.000000000E+00  0.00000E+00  9.000E+00
       2    -1     0     0   515     0  0.000000000E+00  0.000000000E+00 -8.390981666E+02  8.390981666E+02  0.000000000E+00  0.00000E+00  9.000E+00
      21     1     1     2   512   514 -4.996779691E+00 -3.004028429E+00 -4.528978070E+02  4.529353327E+02  5.394796609E-06  0.00000E+00  9.000E+00
       2     1     1     2   511     0  6.946245491E+00  5.983069344E+00 -3.092249845E+02  3.093610308E+02  3.300000131E-01  0.00000E+00  9.000E+00
      21     1     1     2   515   512 -1.949465800E+00 -2.979040915E+00 -7.684737649E+01  7.692980160E+01  1.651812370E-06  0.00000E+00  9.000E+00
</event>
<event>
      5  10001  2.40292E+09  5.19106E+00 -1.00000E+00  2.35619E-01
      21    -1     0     0   513   511  0.000000000E+00  0.000000000E+00  2.807493222E+01  2.807493222E+01  0.000000000E+00  0.00000E+00  9.000E+00
      21    -1     0     0   515   513  0.000000000E+00  0.000000000E+00 -1.972609077E+02  1.972609077E+02  0.000000000E+00  0.00000E+00  9.000E+00
      21     1     1     2   516   512 -6.600529571E+00  1.132257777E+01 -4.172503618E+01  4.373495629E+01  1.168007728E-06  0.00000E+00  9.000E+00
      21     1     1     2   515   516  4.505356996E+00 -6.573115664E+00 -1.541781930E+02  1.543839995E+02  1.907348633E-06  0.00000E+00  9.000E+00
      21     1     1     2   512   511  2.095172575E+00 -4.749462106E+00  2.671725370E+01  2.721688417E+01  5.840038640E-07  0.00000E+00  9.000E+00
</event>
<event>
      5  10001  2.40292E+09  5.37987E+00 -1.00000E+00  2.33007E-01
      21    -1     0     0   512   511  0.000000000E+00  0.000000000E+00  1.611025190E+02  1.611025190E+02  0.000000000E+00  0.00000E+00  9.000E+00
       2    -1     0     0   511     0  0.000000000E+00  0.000000000E+00 -4.656644640E+00  4.656644640E+00  0.000000000E+00  0.00000E+00  9.000E+00
      21     1     1     2   512   514 -9.842198629E+00  3.143552368E+00  1.525381157E+02  1.528876304E+02  2.697398305E-06  0.00000E+00  9.000E+00
      21     1     1     2   514   513  3.679121231E+00  5.863894415E-02 -1.589050353E+00  4.008048475E+00  1.134838627E-07  0.00000E+00  9.000E+00
       2     1     1     2   513     0  6.163077398E+00 -3.202191312E+00  5.496808981E+00  8.863484709E+00  3.300000131E-01  0.00000E+00  9.000E+00
</event>
<event>
      5  10001  2.40292E+09  7.56635E+00 -1.00000E+00  2.10818E-01
      -5    -1     0     0     0   515  0.000000000E+00  0.000000000E+00  1.422367529E+00  1.422367529E+00  0.000000000E+00  0.00000E+00  9.000E+00
      21    -1     0     0   512   513  0.000000000E+00  0.000000000E+00 -4.466886434E+02  4.466886434E+02  0.000000000E+00  0.00000E+00  9.000E+00
      -5     1     1     2     0   513 -9.788440756E+00 -6.122315321E-01 -2.205096204E+01  2.460636764E+01  4.800000191E+00  0.00000E+00  9.000E+00
      21     1     1     2   511   515  3.079875717E+00 -7.458008893E-01 -3.380095684E+02  3.380244225E+02  0.000000000E+00  0.00000E+00  9.000E+00
      21     1     1     2   512   511  6.708565038E+00  1.358032421E+00 -8.520574550E+01  8.548022089E+01  9.536743164E-07  0.00000E+00  9.000E+00
</event>
<event>
      5  10001  2.40292E+09  4.11267E+00 -1.00000E+00  2.60554E-01
      -3    -1     0     0     0   514  0.000000000E+00  0.000000000E+00  7.273362092E+01  7.273362092E+01  0.000000000E+00  0.00000E+00  9.000E+00
      21    -1     0     0   515   511  0.000000000E+00  0.000000000E+00 -1.011600356E+01  1.011600356E+01  0.000000000E+00  0.00000E+00  9.000E+00
      -3     1     1     2     0   513  1.003146650E+01 -6.781497039E+00  5.428943152E+01  5.562563615E+01  5.000000000E-01  0.00000E+00  9.000E+00
      21     1     1     2   515   514 -1.298408748E+01  1.113412774E+01 -3.140037262E-01  1.710713087E+01  1.816628179E-07  0.00000E+00  9.000E+00
      21     1     1     2   513   511  2.952620978E+00 -4.352630701E+00  8.642189556E+00  1.011685747E+01  1.685873940E-07  0.00000E+00  9.000E+00
</event>
<event>
      5  10001  2.40292E+09  4.98343E+00 -1.00000E+00  2.42740E-01
      21    -1     0     0   512   511  0.000000000E+00  0.000000000E+00  7.030553520E+00  7.030553520E+00  0.000000000E+00  0.00000E+00  9.000E+00
       1    -1     0     0   513     0  0.000000000E+00  0.000000000E+00 -3.094460183E+02  3.094460183E+02  0.000000000E+00  0.00000E+00  9.000E+00
      21     1     1     2   512   516 -1.001453802E+01 -7.903472581E+00  5.925098898E-01  1.277133190E+01  2.344270456E-07  0.00000E+00  9.000E+00
      21     1     1     2   513   511  5.056012786E+00  7.406638811E+00 -6.196825512E+01  6.261378607E+01  9.536743164E-07  0.00000E+00  9.000E+00
       1     1     1     2   516     0  4.958525234E+00  4.968337698E-01 -2.410397196E+02  2.410914539E+02  3.300000131E-01  0.00000E+00  9.000E+00
</event>
<event>
      5  10001  2.40292E+09  8.12412E+00 -1.00000E+00  2.06735E-01
      -4    -1     0     0     0   511  0.000000000E+00  0.000000000E+00  1.279124410E+01  1.279124410E+01  0.000000000E+00  0.00000E+00  9.000E+00
       2    -1     0     0   513     0  0.000000000E+00  0.000000000E+00 -5.220855317E+02  5.220855317E+02  0.000000000E+00  0.00000E+00  9.000E+00
      -4     1     1     2     0   512  3.262758035E+00  1.836142332E+01  4.991592573E+00  1.936371485E+01  1.500000000E+00  0.00000E+00  9.000E+00
       2     1     1     2   512     0 -5.227004463E+00 -2.624373009E+01 -3.471931122E+02  3.482229473E+02  3.300000131E-01  0.00000E+00  9.000E+00
      21     1     1     2   513   511  1.964246429E+00  7.882306763E+00 -1.670927680E+02  1.672901137E+02  1.907348633E-06  0.00000E+00  9.000E+00
</event>
<event>
      5  10001  2.40292E+09  1.32742E+01 -1.00000E+00  1.82484E-01
       2    -1     0     0   512     0  0.000000000E+00  0.000000000E+00  1.285160083E+01  1.285160083E+01  0.000000000E+00  0.00000E+00  9.000E+00
      21    -1     0     0   514   515  0.000000000E+00  0.000000000E+00 -5.399236799E+01  5.399236799E+01  0.000000000E+00  0.00000E+00  9.000E+00
      21     1     1     2   512   515  1.429623048E+01  2.599850217E+00 -4.717707714E+01  4.936413713E+01  6.743495762E-07  0.00000E+00  9.000E+00
      21     1     1     2   514   516 -2.407769994E+00  2.406869158E+00  2.050756711E+00  3.974415500E+00  1.519626234E-07  0.00000E+00  9.000E+00
       2     1     1     2   516     0 -1.188846048E+01 -5.006719375E+00  3.985553263E+00  1.350541619E+01  3.300000131E-01  0.00000E+00  9.000E+00
</event>
<event>
      5  10001  2.40292E+09  9.08176E+00 -1.00000E+00  2.00659E-01
      21    -1     0     0   511   512  0.000000000E+00  0.000000000E+00  1.347398650E+02  1.347398650E+02  0.000000000E+00  0.00000E+00  9.000E+00
      21    -1     0     0   513   511  0.000000000E+00  0.000000000E+00 -8.466832204E+01  8.466832204E+01  0.000000000E+00  0.00000E+00  9.000E+00
      21     1     1     2   514   516 -1.246738771E+00 -1.240576739E+01 -1.069175240E+00  1.251401446E+01  6.828569911E-08  0.00000E+00  9.000E+00
      21     1     1     2   513   514 -3.167944182E+00  2.034232167E+01 -7.635174119E+01  7.907865897E+01  9.536743164E-07  0.00000E+00  9.000E+00
      21     1     1     2   516   512  4.414682953E+00 -7.936554282E+00  1.274924594E+02  1.278155136E+02  1.348699152E-06  0.00000E+00  9.000E+00
</event>
<event>
      5  10001  2.40292E+09  9.29530E+00 -1.00000E+00  1.99438E-01
      -2    -1     0     0     0   512  0.000000000E+00  0.000000000E+00  5.272454124E+02  5.272454124E+02  0.000000000E+00  0.00000E+00  9.000E+00
      21    -1     0     0   514   511  0.000000000E+00  0.000000000E+00 -2.449710250E+00  2.449710250E+00  0.000000000E+00  0.00000E+00  9.000E+00
      -2     1     1     2     0   513 -1.445324253E+01 -1.022703438E+01  4.196787126E+02  4.200521624E+02  3.300000131E-01  0.00000E+00  9.000E+00
      21     1     1     2   514   512  1.107882606E+01  6.204992003E+00  1.625902302E+01  2.063003011E+01  9.536743164E-07  0.00000E+00  9.000E+00
      21     1     1     2   513   511  3.374416467E+00  4.022042377E+00  8.885796650E+01  8.901293008E+01  1.348699152E-06  0.00000E+00  9.000E+00
</event>
<event>
      5  10001  2.40292E+09  5.61095E+00 -1.00000E+00  2.30009E-01
      21    -1     0     0   515   513  0.000000000E+00  0.000000000E+00  3.106267423E+01  3.106267423E+01  0.000000000E+00  0.00000E+00  9.000E+00
      21    -1     0     0   516   515  0.000000000E+00  0.000000000E+00 -2.944977329E+01  2.944977329E+01  0.000000000E+00  0.00000E+00  9.000E+00
      21     1     1     2   516   511  8.211182584E+00  5.778367235E+00 -2.698395831E+01  2.879144063E+01  5.840038640E-07  0.00000E+00  9.000E+00
      21     1     1     2   512   513 -2.967775932E+00 -2.396704059E+00  2.307794890E+01  2.339110108E+01  3.371747881E-07  0.00000E+00  9.000E+00
      21     1     1     2   511   512 -5.243406652E+00 -3.381663176E+00  5.518910363E+00  8.329905807E+00  1.788139343E-07  0.00000E+00  9.000E+00
</event>
<event>
      5  10001  2.40292E+09  3.21035E+00 -1.00000E+00  2.88083E-01
      21    -1     0     0   514   512  0.000000000E+00  0.000000000E+00  4.070758003E+01  4.070758003E+01  0.000000000E+00  0.00000E+00  9.000E+00
      21    -1     0     0   511   517  0.000000000E+00  0.000000000E+00 -6.782900689E+00  6.782900689E+00  0.000000000E+00  0.00000E+00  9.000E+00
      21     1     1     2   514   517 -6.724197685E+00  7.236675991E+00  3.507123068E+01  3.643590997E+01  8.259061849E-07  0.00000E+00  9.000E+00
      21     1     1     2   513   512  3.334547364E+00 -4.117875548E+00 -3.000561035E+00  6.089291558E+00  1.332800375E-07  0.00000E+00  9.000E+00
      21     1     1     2   511   513  3.389650321E+00 -3.118800444E+00  1.854009697E+00  4.965279193E+00  5.960464478E-08  0.00000E+00  9.000E+00
</event>
<event>
      5  10001  2.40292E+09  1.88886E+00 -1.00000E+00  3.74838E-01
       2    -1     0     0   514     0  0.000000000E+00  0.000000000E+00  6.269999852E+02  6.269999852E+02  0.000000000E+00  0.00000E+00  9.000E+00
      21    -1     0     0   511   512  0.000000000E+00  0.000000000E+00 -5.683817103E-01  5.683817103E-01  0.000000000E+00  0.00000E+00  9.000E+00
       2     1     1     2   511     0 -3.751905421E+00 -8.396114507E+00  4.534174003E+02  4.535107710E+02  3.300000131E-01  0.00000E+00  9.000E+00
       4     1     1     2   514     0  5.349483394E+00  9.384577035E+00  1.691860894E+02  1.695372234E+02  1.500000000E+00  0.00000E+00  9.000E+00
      -4     1     1     2     0   512 -1.597577973E+00 -9.884625283E-01  3.828113724E+00  4.520372577E+00  1.500000000E+00  0.00000E+00  9.000E+00
</event>
<event>
      5  10001  2.40292E+09  1.06163E+01 -1.00000E+00  1.92745E-01
      21    -1     0     0   513   512  0.000000000E+00  0.000000000E+00  4.494445631E+00  4.494445631E+00  0.000000000E+00  0.00000E+00  9.000E+00
      21    -1     0     0   511   515  0.000000000E+00  0.000000000E+00 -2.144119457E+02  2.144119457E+02  0.000000000E+00  0.00000E+00  9.000E+00
      21     1     1     2   513   515 -4.576866892E-01  1.745623414E+01 -1.627443518E+01  2.387020796E+01  3.371747881E-07  0.00000E+00  9.000E+00
      21     1     1     2   514   512  5.721535767E+00 -9.002306061E+00 -1.445607976E+02  1.449537915E+02  2.697398305E-06  0.00000E+00  9.000E+00
      21     1     1     2   511   514 -5.263849078E+00 -8.453928081E+00 -4.908226727E+01  5.008239179E+01  6.743495762E-07  0.00000E+00  9.000E+00
</event>
<event>
      5  10001  2.40292E+09  7.27544E+00 -1.00000E+00  2.13142E-01
      21    -1     0     0   514   512  0.000000000E+00  0.000000000E+00  1.686569879E+01  1.686569879E+01  0.000000000E+00  0.00000E+00  9.000E+00
       1    -1     0     0   512     0  0.000000000E+00  0.000000000E+00 -2.650759539E+01  2.650759539E+01  0.000000000E+00  0.00000E+00  9.000E+00
      21     1     1     2   514   511 -4.893502331E+00  8.909403339E+00  1.406621512E+01  1.735460287E+01  0.000000000E+00  0.00000E+00  9.000E+00
      21     1     1     2   511   513 -2.828617039E-01 -2.145785593E+00 -4.043781498E+00  4.586564658E+00  8.429369702E-08  0.00000E+00  9.000E+00
       1     1     1     2   513     0  5.176364034E+00 -6.763617746E+00 -1.966433022E+01  2.143212665E+01  3.300000131E-01  0.00000E+00  9.000E+00
</event>
<event>
      5  10001  2.40292E+09  4.93424E+00 -1.00000E+00  2.43597E-01
      21    -1     0     0   514   512  0.000000000E+00  0.000000000E+00  2.325008271E+01  2.325008271E+01  0.000000000E+00  0.00000E+00  9.000E+00
       2    -1     0     0   511     0  0.000000000E+00  0.000000000E+00 -2.346446643E+01  2.346446643E+01  0.000000000E+00  0.00000E+00  9.000E+00
      21     1     1     2   511   512  5.523283475E+00  8.643951620E+00  9.601700041E+00  1.405052325E+01  1.192092896E-07  0.00000E+00  9.000E+00
       2     1     1     2   513     0 -1.036030838E+01 -7.670591285E+00 -1.857428028E+01  2.261165072E+01  3.300000131E-01  0.00000E+00  9.000E+00
      21     1     1     2   514   513  4.837024905E+00 -9.733603348E-01  8.758196514E+00  1.005237516E+01  2.064765462E-07  0.00000E+00  9.000E+00
</event>
<event>
      5  10001  2.40292E+09  7.61825E+00 -1.00000E+00  2.10418E-01
       2    -1     0     0   515     0  0.000000000E+00  0.000000000E+00  9.731442893E-01  9.731442893E-01  0.000000000E+00  0.00000E+00  9.000E+00
      21    -1     0     0   514   513  0.000000000E+00  0.000000000E+00 -2.936177004E+02  2.936177004E+02  0.000000000E+00  0.00000E+00  9.000E+00
      21     1     1     2   515   513 -8.460385800E+00  8.925808137E+00 -2.333573350E+02  2.336811802E+02  2.697398305E-06  0.00000E+00  9.000E+00
       2     1     1     2   511     0  7.477199808E-01 -4.677316160E+00 -1.426582220E+01  1.503525706E+01  3.300000131E-01  0.00000E+00  9.000E+00
      21     1     1     2   514   511  7.712665819E+00 -4.248491977E+00 -4.502139887E+01  4.587440740E+01  9.536743164E-07  0.00000E+00  9.000E+00
</event>
<event>
      5  10001  2.40292E+09  7.82599E+00 -1.00000E+00  2.08860E-01
      21    -1     0     0   512   511  0.000000000E+00  0.000000000E+00  1.139074725E+01  1.139074725E+01  0.000000000E+00  0.00000E+00  9.000E+00
      21    -1     0     0   514   513  0.000000000E+00  0.000000000E+00 -8.187605880E+02  8.187605880E+02  0.000000000E+00  0.00000E+00  9.000E+00
      21     1     1     2   512   516 -1.251644460E+01 -9.316845405E+00  4.586398851E+00  1.626345745E+01  5.022376641E-07  0.00000E+00  9.000E+00
      21     1     1     2   514   511  4.690861485E+00  9.396316247E+00 -2.819268923E+01  3.008525663E+01  3.371747881E-07  0.00000E+00  9.000E+00
      21     1     1     2   516   513  7.825583112E+00 -7.947084209E-02 -7.837635504E+02  7.838026212E+02  1.078959322E-05  0.00000E+00  9.000E+00
</event>
<event>
      5  10001  2.40292E+09  7.20284E+00 -1.00000E+00  2.13745E-01
      21    -1     0     0   515   511  0.000000000E+00  0.000000000E+00  4.533101212E+00  4.533101212E+00  0.000000000E+00  0.00000E+00  9.000E+00
      21    -1     0     0   517   515  0.000000000E+00  0.000000000E+00 -3.209546140E+01  3.209546140E+01  0.000000000E+00  0.00000E+00  9.000E+00
      21     1     1     2   513   511  1.320892490E+00  1.020847466E+01 -7.027741872E+00  1.246382236E+01  1.884864366E-07  0.00000E+00  9.000E+00
      21     1     1     2   517   512  2.688854626E+00 -5.293127524E+00 -1.316044841E+01  1.443760855E+01  2.384185791E-07  0.00000E+00  9.000E+00
      21     1     1     2   512   513 -4.009747116E+00 -4.915347140E+00 -7.374169903E+00  9.727131705E+00  8.429369702E-08  0.00000E+00  9.000E+00
</event>
<event>
      5  10001  2.40292E+09  9.04942E+00 -1.00000E+00  2.00848E-01
      21    -1     0     0   514   516  0.000000000E+00  0.000000000E+00  2.716769715E+01  2.716769715E+01  0.000000000E+00  0.00000E+00  9.000E+00
      21    -1     0     0   511   513  0.000000000E+00  0.000000000E+00 -5.756541645E+01  5.756541645E+01  0.000000000E+00  0.00000E+00  9.000E+00
      21     1     1     2   514   513  9.785810593E+00 -4.961532456E+00 -5.553175831E+01  5.660525660E+01  6.743495762E-07  0.00000E+00  9.000E+00
      21     1     1     2   511   515 -3.886645999E+00  4.338594112E+00  7.335982958E+00  9.367286798E+00  0.000000000E+00  0.00000E+00  9.000E+00
      21     1     1     2   515   516 -5.899164594E+00  6.229383445E-01  1.779805606E+01  1.876057021E+01  4.768371582E-07  0.00000E+00  9.000E+00
</event>
<event>
      5  10001  2.40292E+09  2.85562E+00 -1.00000E+00  3.03377E-01
      21    -1     0     0   513   511  0.000000000E+00  0.000000000E+00  5.847889656E+02  5.847889656E+02  0.000000000E+00  0.00000E+00  9.000E+00
      21    -1     0     0   517   516  0.000000000E+00  0.000000000E+00 -1.882044322E+01  1.882044322E+01  0.000000000E+00  0.00000E+00  9.000E+00
      21     1     1     2   512   516 -1.323394766E+01  4.421906429E+00 -1.556022988E+01  2.090003304E+01  4.460403188E-07  0.00000E+00  9.000E+00
      21     1     1     2   517   511  1.038167633E+01 -4.560167190E+00  5.422440193E+01  5.539729319E+01  9.536743164E-07  0.00000E+00  9.000E+00
      21     1     1     2   513   512  2.852271328E+00  1.382607607E-01  5.273043504E+02  5.273120826E+02  7.629394531E-06  0.00000E+00  9.000E+00
</event>
<event>
      5  10001  2.40292E+09  1.64977E+01 -1.00000E+00  1.73531E-01
      21    -1     0     0   514   516  0.000000000E+00  0.000000000E+00  2.720995519E+01  2.720995519E+01  0.000000000E+00  0.00000E+00  9.000E+00
      21    -1     0     0   515   511  0.000000000E+00  0.000000000E+00 -8.565233284E+02  8.565233284E+02  0.000000000E+00  0.00000E+00  9.000E+00
      21     1     1     2   515   512 -1.217655714E+01 -2.327093212E+01 -7.601169390E+02  7.605705528E+02  0.000000000E+00  0.00000E+00  9.000E+00
      21     1     1     2   512   516  4.290167107E+00  3.776160989E+01  1.235261957E+01  3.996163066E+01  2.437239683E-06  0.00000E+00  9.000E+00
      21     1     1     2   514   511  7.886390034E+00 -1.449067776E+01 -8.154905377E+01  8.320110012E+01  1.651812370E-06  0.00000E+00  9.000E+00
</event>
<event>
      5  10001  2.40292E+09  1.00025E+01 -1.00000E+00  1.95686E-01
       2    -1     0     0   511     0  0.000000000E+00  0.000000000E+00  1.383531128E+03  1.383531128E+03  0.000000000E+00  0.00000E+00  9.000E+00
      21    -1     0     0   515   511  0.000000000E+00  0.000000000E+00 -4.186455500E+00  4.186455500E+00  0.000000000E+00  0.00000E+00  9.000E+00
      21     1     1     2   512   513  8.181300822E-01 -1.018279309E+01  3.126454305E+00  1.068332011E+01  1.975514104E-06  0.00000E+00  9.000E+00
       2     1     1     2   513     0 -6.827024092E+00  1.817912083E+01  1.302024889E+03  1.302169731E+03  3.300000131E-01  0.00000E+00  9.000E+00
      21     1     1     2   515   512  6.008894010E+00 -7.996327739E+00  7.419332885E+01  7.486453172E+01  1.348699152E-06  0.00000E+00  9.000E+00
</event>
<event>
      5  10001  2.40292E+09  3.19920E+00 -1.00000E+00  2.88514E-01
      21    -1     0     0   514   513  0.000000000E+00  0.000000000E+00  1.331979574E+02  1.331979574E+02  0.000000000E+00  0.00000E+00  9.000E+00
       2    -1     0     0   515     0  0.000000000E+00  0.000000000E+00 -3.941696525E+00  3.941696525E+00  0.000000000E+00  0.00000E+00  9.000E+00
      21     1     1     2   514   512  9.967449732E+00  7.360090799E+00  1.032083042E+02  1.039493869E+02  1.348699152E-06  0.00000E+00  9.000E+00
      21     1     1     2   515   513 -6.834557332E+00 -6.713271034E+00  2.788627262E+01  2.948598621E+01  5.840038640E-07  0.00000E+00  9.000E+00
       2     1     1     2   512     0 -3.132892399E+00 -6.468197648E-01 -1.838315938E+00  3.704280779E+00  3.300000131E-01  0.00000E+00  9.000E+00
</event>
<event>
      5  10001  2.40292E+09  5.29222E+00 -1.00000E+00  2.34200E-01
      21    -1     0     0   513   515  0.000000000E+00  0.000000000E+00  5.555161692E+01  5.555161692E+01  0.000000000E+00  0.00000E+00  9.000E+00
      21    -1     0     0   512   516  0.000000000E+00  0.000000000E+00 -1.358257383E+01  1.358257383E+01  0.000000000E+00  0.00000E+00  9.000E+00
      21     1     1     2   511   516  7.515504221E+00  3.594972111E+00  4.569008656E+01  4.644341329E+01  6.743495762E-07  0.00000E+00  9.000E+00
      21     1     1     2   512   515 -9.776179774E+00 -8.380045758E+00 -8.606961039E+00  1.548801589E+01  2.384185791E-07  0.00000E+00  9.000E+00
      21     1     1     2   513   511  2.260675552E+00  4.785073647E+00  4.885917567E+00  7.202761570E+00  1.332800375E-07  0.00000E+00  9.000E+00
</event>
<event>
      5  10001  2.40292E+09  6.30182E+00 -1.00000E+00  2.22136E-01
      21    -1     0     0   514   511  0.000000000E+00  0.000000000E+00  2.630193519E+01  2.630193519E+01  0.000000000E+00  0.00000E+00  9.000E+00
      21    -1     0     0   517   514  0.000000000E+00  0.000000000E+00 -3.067335543E+01  3.067335543E+01  0.000000000E+00  0.00000E+00  9.000E+00
      21     1     1     2   512   511  1.471511973E+01  1.255777133E+01  1.779067137E+01  2.628193975E+01  4.129530925E-07  0.00000E+00  9.000E+00
       3     1     1     2   517     0 -6.868372732E+00 -7.677816066E+00 -1.754411199E+01  2.035114908E+01  5.000000000E-01  0.00000E+00  9.000E+00
      -3     1     1     2     0   512 -7.846747000E+00 -4.879955262E+00 -4.617979619E+00  1.034220178E+01  5.000000000E-01  0.00000E+00  9.000E+00
</event>
<event>
      5  10001  2.40292E+09  2.92793E+00 -1.00000E+00  2.99967E-01
      21    -1     0     0   513   515  0.000000000E+00  0.000000000E+00  5.481138597E-01  5.481138597E-01  0.000000000E+00  0.00000E+00  9.000E+00
      21    -1     0     0   511   512  0.000000000E+00  0.000000000E+00 -2.299697562E+02  2.299697562E+02  0.000000000E+00  0.00000E+00  9.000E+00
      21     1     1     2   513   512  2.851556176E+00 -9.307771746E+00 -1.571767731E+02  1.574779477E+02  1.907348633E-06  0.00000E+00  9.000E+00
      21     1     1     2   511   514 -3.849253898E+00  6.079816817E+00 -4.264514543E+01  4.324799830E+01  4.768371582E-07  0.00000E+00  9.000E+00
      21     1     1     2   514   515  9.976977214E-01  3.227954929E+00 -2.959972373E+01  2.979192405E+01  3.371747881E-07  0.00000E+00  9.000E+00
</event>
<event>
      5  10001  2.40292E+09  1.13621E+01 -1.00000E+00  1.89503E-01
       1    -1     0     0   513     0  0.000000000E+00  0.000000000E+00  8.012061726E+01  8.012061726E+01  0.000000000E+00  0.00000E+00  9.000E+00
      21    -1     0     0   511   513  0.000000000E+00  0.000000000E+00 -1.976561674E+01  1.976561674E+01  0.000000000E+00  0.00000E+00  9.000E+00
      -2     1     1     2     0   514 -9.390587751E+00  5.877838091E+00  1.118100897E+01  1.574344246E+01  3.300000131E-01  0.00000E+00  9.000E+00
       1     1     1     2   514     0  1.178765171E+01  5.227349514E+00  6.409835749E+01  6.538334841E+01  3.300000131E-01  0.00000E+00  9.000E+00
       2     1     1     2   511     0 -2.397063957E+00 -1.110518761E+01 -1.492436595E+01  1.875944313E+01  3.300000131E-01  0.00000E+00  9.000E+00
</event>
<event>
      5  10001  2.40292E+09  7.46114E+00 -1.00000E+00  2.11642E-01
      21    -1     0     0   512   514  0.000000000E+00  0.000000000E+00  1.050978971E+02  1.050978971E+02  0.000000000E+00  0.00000E+00  9.000E+00
      21    -1     0     0   511   515  0.000000000E+00  0.000000000E+00 -9.159877917E+00  9.159877917E+00  0.000000000E+00  0.00000E+00  9.000E+00
      21     1     1     2   512   515  9.955211463E+00 -8.942898270E+00 -3.026053715E+00  1.372000969E+01  4.616955931E-07  0.00000E+00  9.000E+00
      21     1     1     2   513   514 -2.458487734E+00  7.002636984E+00  7.470444462E+01  7.507219946E+01  9.536743164E-07  0.00000E+00  9.000E+00
      21     1     1     2   511   513 -7.496723729E+00  1.940261286E+00  2.425962825E+01  2.546556584E+01  3.371747881E-07  0.00000E+00  9.000E+00
</event>
<event>
      5  10001  2.40292E+09  8.08006E+00 -1.00000E+00  2.07041E-01
      21    -1     0     0   516   513  0.000000000E+00  0.000000000E+00  1.477809680E+00  1.477809680E+00  0.000000000E+00  0.00000E+00  9.000E+00
      21    -1     0     0   511   516  0.000000000E+00  0.000000000E+00 -2.495008457E+02  2.495008457E+02  0.000000000E+00  0.00000E+00  9.000E+00
      21     1     1     2   511   517  1.036471048E+01  2.118108073E-01 -2.118117882E+02  2.120653336E+02  0.000000000E+00  0.00000E+00  9.000E+00
      21     1     1     2   512   513 -9.140837693E+00 -3.552075711E+00 -3.161584931E+01  3.310187431E+01  4.768371582E-07  0.00000E+00  9.000E+00
      21     1     1     2   517   512 -1.223872783E+00  3.340264903E+00 -4.595398450E+00  5.811447421E+00  1.192092896E-07  0.00000E+00  9.000E+00
</event>
<event>
      5  10001  2.40292E+09  1.18227E+01 -1.00000E+00  1.87657E-01
      -1    -1     0     0     0   512  0.000000000E+00  0.000000000E+00  8.604275165E+01  8.604275165E+01  0.000000000E+00  0.00000E+00  9.000E+00
      21    -1     0     0   515   514  0.000000000E+00  0.000000000E+00 -3.248884446E+02  3.248884446E+02  0.000000000E+00  0.00000E+00  9.000E+00
      21     1     1     2   515   511  2.904492464E+00  8.267565260E+00 -3.188981364E+02  3.190185106E+02  9.344061824E-06  0.00000E+00  9.000E+00
      21     1     1     2   511   512  4.851629393E+00 -1.719046203E+01  9.223056426E+00  2.010261332E+01  1.300419821E-06  0.00000E+00  9.000E+00
      -1     1     1     2     0   514 -7.756121857E+00  8.922896769E+00  7.082938705E+01  7.181007230E+01  3.300000131E-01  0.00000E+00  9.000E+00
</event>
<event>
      5  10001  2.40292E+09  3.90839E+00 -1.00000E+00  2.65753E-01
      21    -1     0     0   513   512  0.000000000E+00  0.000000000E+00  5.329466313E+01  5.329466313E+01  0.000000000E+00  0.00000E+00  9.000E+00
      21    -1     0     0   511   513  0.000000000E+00  0.000000000E+00 -1.799621476E+01  1.799621476E+01  0.000000000E+00  0.00000E+00  9.000E+00
      21     1     1     2   514   512  5.522713221E+00  8.034620115E+00  4.347280843E+01  4.455267168E+01  4.768371582E-07  0.00000E+00  9.000E+00
      21     1     1     2   516   514 -9.180584456E+00 -9.411388447E+00  4.167544745E+00  1.379223668E+01  1.192092896E-07  0.00000E+00  9.000E+00
      21     1     1     2   511   516  3.657871235E+00  1.376768332E+00 -1.234190479E+01  1.294596953E+01  3.371747881E-07  0.00000E+00  9.000E+00
</event>
<event>
      5  10001  2.40292E+09  6.97238E+00 -1.00000E+00  2.15725E-01
      21    -1     0     0   515   512  0.000000000E+00  0.000000000E+00  2.627269410E+01  2.627269410E+01  0.000000000E+00  0.00000E+00  9.000E+00
       2    -1     0     0   513     0  0.000000000E+00  0.000000000E+00 -1.826244632E+01  1.826244632E+01  0.000000000E+00  0.00000E+00  9.000E+00
      21     1     1     2   515   511 -1.149469336E+01  6.016800510E+00  1.829163388E+01  2.242573820E+01  4.768371582E-07  0.00000E+00  9.000E+00
       2     1     1     2   511     0  9.946830047E+00  7.810838421E-01 -1.128367313E+01  1.506584545E+01  3.300000131E-01  0.00000E+00  9.000E+00
      21     1     1     2   513   512  1.547863318E+00 -6.797884352E+00  1.002287031E+00  7.043556759E+00  1.611807022E-07  0.00000E+00  9.000E+00
</event>
<event>
      5  10001  2.40292E+09  4.18596E+00 -1.00000E+00  2.58801E-01
       2    -1     0     0   516     0  0.000000000E+00  0.000000000E+00  1.300886891E+02  1.300886891E+02  0.000000000E+00  0.00000E+00  9.000E+00
      21    -1     0     0   514   516  0.000000000E+00  0.000000000E+00 -3.275418449E+00  3.275418449E+00  0.000000000E+00  0.00000E+00  9.000E+00
      -1     1     1     2     0   512  1.173707651E+01  8.251370413E+00  8.260643340E+01  8.384375837E+01  3.300000131E-01  0.00000E+00  9.000E+00
       1     1     1     2   514     0 -1.060786235E+01 -4.222178502E+00  1.037957675E+01  1.543366608E+01  3.300000131E-01  0.00000E+00  9.000E+00
       2     1     1     2   512     0 -1.129214154E+00 -4.029191912E+00  3.382726050E+01  3.408668310E+01  3.300000131E-01  0.00000E+00  9.000E+00
</event>
<event>
      5  10001  2.40292E+09  4.97348E+00 -1.00000E+00  2.42912E-01
       2    -1     0     0   512     0  0.000000000E+00  0.000000000E+00  1.510765180E+03  1.510765180E+03  0.000000000E+00  0.00000E+00  9.000E+00
      21    -1     0     0   511   513  0.000000000E+00  0.000000000E+00 -5.827034412E-01  5.827034412E-01  0.000000000E+00  0.00000E+00  9.000E+00
      21     1     1     2   512   513 -6.535934701E+00  9.182901277E+00  5.787946773E+01  5.896674404E+01  9.536743164E-07  0.00000E+00  9.000E+00
       2     1     1     2   514     0  1.737688815E+00 -8.241441663E+00  1.206820315E+03  1.206849751E+03  3.300000131E-01  0.00000E+00  9.000E+00
      21     1     1     2   511   514  4.798245887E+00 -9.414596138E-01  2.454826938E+02  2.455313880E+02  2.697398305E-06  0.00000E+00  9.000E+00
</event>
<event>
      5  10001  2.40292E+09  6.26101E+00 -1.00000E+00  2.22561E-01
      21    -1     0     0   515   516  0.000000000E+00  0.000000000E+00  6.498972043E+00  6.498972043E+00  0.000000000E+00  0.00000E+00  9.000E+00
      21    -1     0     0   511   515  0.000000000E+00  0.000000000E+00 -5.832130653E+01  5.832130653E+01  0.000000000E+00  0.00000E+00  9.000E+00
      21     1     1     2   514   516 -9.932476184E+00  1.064609133E+00  1.057113047E+00  1.004514628E+01  1.718485742E-07  0.00000E+00  9.000E+00
      21     1     1     2   512   514  8.287366854E+00 -5.162423639E+00 -3.935458099E+01  4.054767703E+01  4.768371582E-07  0.00000E+00  9.000E+00
      21     1     1     2   511   512  1.645109330E+00  4.097814506E+00 -1.352486655E+01  1.422745527E+01  1.685873940E-07  0.00000E+00  9.000E+00
</event>
<event>
      5  10001  2.40292E+09  7.13500E+00 -1.00000E+00  2.14317E-01
      21    -1     0     0   513   514  0.000000000E+00  0.000000000E+00  4.825641930E+02  4.825641930E+02  0.000000000E+00  0.00000E+00  9.000E+00
      21    -1     0     0   511   513  0.000000000E+00  0.000000000E+00 -2.899440877E-01  2.899440877E-01  0.000000000E+00  0.00000E+00  9.000E+00
      21     1     1     2   512   514  6.907204767E+00 -8.498151858E+00  1.601718873E+02  1.605458238E+02  2.697398305E-06  0.00000E+00  9.000E+00
      -2     1     1     2     0   512 -2.188661593E+00  5.886390832E-01  5.800111895E+01  5.804632146E+01  3.300000131E-01  0.00000E+00  9.000E+00
       2     1     1     2   511     0 -4.718543174E+00  7.909512775E+00  2.641012427E+02  2.642619918E+02  3.300000131E-01  0.00000E+00  9.000E+00
</event>
<event>
      5  10001  2.40292E+09  1.55808E+01 -1.00000E+00  1.75797E-01
       1    -1     0     0   511     0  0.000000000E+00  0.000000000E+00  1.325686170E+02  1.325686170E+02  0.000000000E+00  0.00000E+00  9.000E+00
      21    -1     0     0   515   513  0.000000000E+00  0.000000000E+00 -1.713739354E+01  1.713739354E+01  0.000000000E+00  0.00000E+00  9.000E+00
      21     1     1     2   511   513 -1.938212630E+01  1.675123040E+01 -5.037064058E+00  2.610828516E+01  7.839767002E-07  0.00000E+00  9.000E+00
       1     1     1     2   512     0  1.454986137E+00 -5.211609655E+00  3.947008950E+01  3.984061652E+01  3.300000131E-01  0.00000E+00  9.000E+00
      21     1     1     2   515   512  1.792714016E+01 -1.153962075E+01  8.099819805E+01  8.375710888E+01  9.536743164E-07  0.00000E+00  9.000E+00
</event>
<event>
      5  10001  2.40292E+09  2.42825E+01 -1.00000E+00  1.59666E-01
      21    -1     0     0   514   516  0.000000000E+00  0.000000000E+00  7.636505879E+01  7.636505879E+01  0.000000000E+00  0.00000E+00  9.000E+00
      21    -1     0     0   511   514  0.000000000E+00  0.000000000E+00 -8.135373623E+01  8.135373623E+01  0.000000000E+00  0.00000E+00  9.000E+00
      21     1     1     2   512   516 -8.987983058E+00  2.642539655E+00  4.767124996E+01  4.858307245E+01  0.000000000E+00  0.00000E+00  9.000E+00
      21     1     1     2   515   512  9.354596443E+00  2.163715153E+01  2.100396888E+01  3.157279699E+01  7.152557373E-07  0.00000E+00  9.000E+00
      21     1     1     2   511   515 -3.666133846E-01 -2.427969118E+01 -7.366389628E+01  7.756292558E+01  0.000000000E+00  0.00000E+00  9.000E+00
</event>
<event>
      5  10001  2.40292E+09  9.00876E+00 -1.00000E+00  2.01086E-01
      21    -1     0     0   513   515  0.000000000E+00  0.000000000E+00  6.473389788E+01  6.473389788E+01  0.000000000E+00  0.00000E+00  9.000E+00
      21    -1     0     0   511   517  0.000000000E+00  0.000000000E+00 -1.846249164E+02  1.846249164E+02  0.000000000E+00  0.00000E+00  9.000E+00
      21     1     1     2   513   517  4.012568205E+00  1.375830903E+01  6.263138672E+01  6.425015466E+01  1.651812370E-06  0.00000E+00  9.000E+00
      21     1     1     2   511   512 -1.086276757E+00 -5.672322173E+00 -1.689028383E+02  1.690015504E+02  3.303624740E-06  0.00000E+00  9.000E+00
      21     1     1     2   512   515 -2.926291448E+00 -8.085986854E+00 -1.361956695E+01  1.610710927E+01  3.371747881E-07  0.00000E+00  9.000E+00
</event>
<event>
      5  10001  2.40292E+09  1.39714E+01 -1.00000E+00  1.80291E-01
       3    -1     0     0   512     0  0.000000000E+00  0.000000000E+00  9.975933970E+01  9.975933970E+01  0.000000000E+00  0.00000E+00  9.000E+00
      -4    -1     0     0     0   512  0.000000000E+00  0.000000000E+00 -2.093199731E+01  2.093199731E+01  0.000000000E+00  0.00000E+00  9.000E+00
      21     1     1     2   511   513  2.717093825E+00  4.058354948E+00 -4.992451481E+00  6.984083013E+00  4.730972012E-07  0.00000E+00  9.000E+00
       3     1     1     2   513     0 -1.012124988E+01  6.256473575E-02  9.723912040E+01  9.776574119E+01  5.000000000E-01  0.00000E+00  9.000E+00
      -4     1     1     2     0   511  7.404156052E+00 -4.120919684E+00 -1.341932653E+01  1.594151280E+01  1.500000000E+00  0.00000E+00  9.000E+00
</event>
<event>
      5  10001  2.40292E+09  4.77326E+00 -1.00000E+00  2.46511E-01
       1    -1     0     0   513     0  0.000000000E+00  0.000000000E+00  4.747493197E+02  4.747493197E+02  0.000000000E+00  0.00000E+00  9.000E+00
      21    -1     0     0   514   512  0.000000000E+00  0.000000000E+00 -9.010827330E-01  9.010827330E-01  0.000000000E+00  0.00000E+00  9.000E+00
      21     1     1     2   513   512  4.186681047E+00  9.186610213E+00  3.009673945E+01  3.174485519E+01  1.066240300E-06  0.00000E+00  9.000E+00
      21     1     1     2   514   515 -2.589495280E-01 -7.300868069E+00  2.653057215E+02  2.654062840E+02  3.814697266E-06  0.00000E+00  9.000E+00
       1     1     1     2   515     0 -3.927731519E+00 -1.885742144E+00  1.784457760E+02  1.784992632E+02  3.300000131E-01  0.00000E+00  9.000E+00
</event>
<event>
      5  10001  2.40292E+09  8.56060E+00 -1.00000E+00  2.03834E-01
      21    -1     0     0   511   512  0.000000000E+00  0.000000000E+00  4.331605044E+00  4.331605044E+00  0.000000000E+00  0.00000E+00  9.000E+00
      21    -1     0     0   517   516  0.000000000E+00  0.000000000E+00 -7.740022444E+02  7.740022444E+02  0.000000000E+00  0.00000E+00  9.000E+00
      21     1     1     2   511   516  7.828922922E+00 -1.013411117E+01 -7.138533863E+02  7.139682411E+02  7.629394531E-06  0.00000E+00  9.000E+00
      21     1     1     2   513   512 -1.118336728E+01  7.752235152E+00 -6.865702316E+00  1.524148031E+01  7.396741894E-07  0.00000E+00  9.000E+00
      21     1     1     2   517   513  3.354444361E+00  2.381876018E+00 -4.895155075E+01  4.912412799E+01  0.000000000E+00  0.00000E+00  9.000E+00
</event>
<event>
      5  10001  2.40292E+09  4.42588E+00 -1.00000E+00  2.53429E-01
      21    -1     0     0   514   515  0.000000000E+00  0.000000000E+00  2.969021054E+02  2.969021054E+02  0.000000000E+00  0.00000E+00  9.000E+00
      -3    -1     0     0     0   512  0.000000000E+00  0.000000000E+00 -1.253487706E+00  1.253487706E+00  0.000000000E+00  0.00000E+00  9.000E+00
      -3     1     1     2     0   511 -1.508487828E+00  1.063493632E+01  3.198278126E+01  3.374204652E+01  5.000000000E-01  0.00000E+00  9.000E+00
      21     1     1     2   511   515 -2.916281899E+00 -1.067675699E+01  2.442175025E+02  2.444681705E+02  0.000000000E+00  0.00000E+00  9.000E+00
      21     1     1     2   514   512  4.424769727E+00  4.182066849E-02  1.944833390E+01  1.994537610E+01  0.000000000E+00  0.00000E+00  9.000E+00
</event>
<event>
      5  10001  2.40292E+09  2.16319E+00 -1.00000E+00  3.47694E-01
      21    -1     0     0   516   515  0.000000000E+00  0.000000000E+00  8.903715694E+00  8.903715694E+00  0.000000000E+00  0.00000E+00  9.000E+00
       1    -1     0     0   515     0  0.000000000E+00  0.000000000E+00 -2.801905449E+02  2.801905449E+02  0.000000000E+00  0.00000E+00  9.000E+00
      21     1     1     2   511   513  1.313951393E+00 -1.080332717E+01 -2.016162411E+01  2.291133853E+01  0.000000000E+00  0.00000E+00  9.000E+00
       1     1     1     2   513     0 -3.317610252E+00  1.161856908E+01 -2.583544092E+02  2.586370185E+02  3.300000131E-01  0.00000E+00  9.000E+00
      21     1     1     2   516   511  2.003658859E+00 -8.152419108E-01  7.229204122E+00  7.545903553E+00  2.384185791E-07  0.00000E+00  9.000E+00
</event>
<event>
      5  10001  2.40292E+09  5.50266E+00 -1.00000E+00  2.31388E-01
      21    -1     0     0   512   511  0.000000000E+00  0.000000000E+00  6.745451448E+01  6.745451448E+01  0.000000000E+00  0.00000E+00  9.000E+00
      21    -1     0     0   514   512  0.000000000E+00  0.000000000E+00 -2.848250161E+01  2.848250161E+01  0.000000000E+00  0.00000E+00  9.000E+00
      21     1     1     2   515   511 -1.298928152E+01  4.049136296E+00  6.477211475E+01  6.618567661E+01  9.536743164E-07  0.00000E+00  9.000E+00
      21     1     1     2   513   515  5.007954312E+00 -4.341543730E+00 -1.416399248E+01  1.563800790E+01  4.768371582E-07  0.00000E+00  9.000E+00
      21     1     1     2   514   513  7.981327212E+00  2.924074333E-01 -1.163610940E+01  1.411333158E+01  1.685873940E-07  0.00000E+00  9.000E+00
</event>
<event>
      5  10001  2.40292E+09  2.41169E+00 -1.00000E+00  3.28780E-01
      21    -1     0     0   516   513  0.000000000E+00  0.000000000E+00  1.167746461E+01  1.167746461E+01  0.000000000E+00  0.00000E+00  9.000E+00
      21    -1     0     0   511   512  0.000000000E+00  0.000000000E+00 -3.226468094E+01  3.226468094E+01  0.000000000E+00  0.00000E+00  9.000E+00
      21     1     1     2   516   517 -3.597701509E+00  1.107024565E+01 -7.982035698E+00  1.411405997E+01  2.665600750E-07  0.00000E+00  9.000E+00
      21     1     1     2   511   513  1.271772486E+00 -1.170766662E+01  4.460402068E+00  1.259293649E+01  2.308477966E-07  0.00000E+00  9.000E+00
      21     1     1     2   517   512  2.325929023E+00  6.374209725E-01 -1.706558270E+01  1.723514909E+01  3.371747881E-07  0.00000E+00  9.000E+00
</event>
<event>
      5  10001  2.40292E+09  5.66764E+00 -1.00000E+00  2.29304E-01
      21    -1     0     0   514   511  0.000000000E+00  0.000000000E+00  1.492317055E+00  1.492317055E+00  0.000000000E+00  0.00000E+00  9.000E+00
      21    -1     0     0   513   515  0.000000000E+00  0.000000000E+00 -3.526535130E+02  3.526535130E+02  0.000000000E+00  0.00000E+00  9.000E+00
      21     1     1     2   514   515 -5.243090506E+00 -1.130260540E+01 -3.337471038E+01  3.562457270E+01  6.743495762E-07  0.00000E+00  9.000E+00
      21     1     1     2   517   511 -3.094368307E-01  1.243908980E+01 -1.179677265E+02  1.186221362E+02  2.697398305E-06  0.00000E+00  9.000E+00
      21     1     1     2   513   517  5.552527336E+00 -1.136484404E+00 -1.998187590E+02  1.998991211E+02  2.697398305E-06  0.00000E+00  9.000E+00
</event>
<event>
      5  10001  2.40292E+09  9.39787E+00 -1.00000E+00  1.98867E-01
      21    -1     0     0   512   514  0.000000000E+00  0.000000000E+00  1.817512919E+01  1.817512919E+01  0.000000000E+00  0.00000E+00  9.000E+00
      21    -1     0     0   513   512  0.000000000E+00  0.000000000E+00 -6.791420223E+01  6.791420223E+01  0.000000000E+00  0.00000E+00  9.000E+00
      21     1     1     2   516   511 -1.945714316E+01  2.580593706E-01  4.429156631E+00  1.995656391E+01  1.576990671E-07  0.00000E+00  9.000E+00
      21     1     1     2   513   516  1.027174224E+01 -2.245125318E+00 -5.563615536E+01  5.662094188E+01  9.536743164E-07  0.00000E+00  9.000E+00
      21     1     1     2   511   514  9.185400913E+00  1.987065948E+00  1.467925685E+00  9.511825630E+00  8.161702119E-08  0.00000E+00  9.000E+00
</event>
<event>
      5  10001  2.40292E+09  5.62472E+00 -1.00000E+00  2.29836E-01
      21    -1     0     0   515   511  0.000000000E+00  0.000000000E+00  2.020537685E+00  2.020537685E+00  0.000000000E+00  0.00000E+00  9.000E+00
       2    -1     0     0   514     0  0.000000000E+00  0.000000000E+00 -9.603556926E+02  9.603556926E+02  0.000000000E+00  0.00000E+00  9.000E+00
      21     1     1     2   514   517  1.209657429E+01  9.840890374E+00 -4.003998065E+02  4.007033507E+02  7.629394531E-06  0.00000E+00  9.000E+00
      21     1     1     2   517   511 -1.440138815E+01 -4.710221326E+00 -2.910849001E+01  3.281600762E+01  7.539457465E-07  0.00000E+00  9.000E+00
       2     1     1     2   515     0  2.304813859E+00 -5.130669048E+00 -5.288268584E+02  5.288568719E+02  3.300000131E-01  0.00000E+00  9.000E+00
</event>
<event>
      5  10001  2.40292E+09  6.66337E+00 -1.00000E+00  2.18550E-01
       1    -1     0     0   515     0  0.000000000E+00  0.000000000E+00  5.023843588E+01  5.023843588E+01  0.000000000E+00  0.00000E+00  9.000E+00
      21    -1     0     0   512   513  0.000000000E+00  0.000000000E+00 -2.885471606E+00  2.885471606E+00  0.000000000E+00  0.00000E+00  9.000E+00
      21     1     1     2   511   513 -4.460238116E+00  4.942000946E+00  1.835433840E+01  1.952431396E+01  2.384185791E-07  0.00000E+00  9.000E+00
       1     1     1     2   512     0  8.761393237E+00 -6.309930857E+00  2.606978747E+01  2.821914168E+01  3.300000131E-01  0.00000E+00  9.000E+00
      21     1     1     2   515   511 -4.301155121E+00  1.367929912E+00  2.928838406E+00  5.380451843E+00  8.429369702E-08  0.00000E+00  9.000E+00
</event>
<event>
      5  10001  2.40292E+09  7.24644E+00 -1.00000E+00  2.13382E-01
      21    -1     0     0   514   512  0.000000000E+00  0.000000000E+00  1.983189435E+01  1.983189435E+01  0.000000000E+00  0.00000E+00  9.000E+00
      21    -1     0     0   516   511  0.000000000E+00  0.000000000E+00 -6.478574583E+01  6.478574583E+01  0.000000000E+00  0.00000E+00  9.000E+00
      21     1     1     2   514   511  1.414990985E+00  1.369241417E+01 -5.782595868E+01  5.944178583E+01  6.743495762E-07  0.00000E+00  9.000E+00
      21     1     1     2   516   513 -1.202489765E+00 -7.706304659E+00  1.644532320E+01  1.820114744E+01  9.536743164E-07  0.00000E+00  9.000E+00
      21     1     1     2   513   512 -2.125012195E-01 -5.986109513E+00 -3.573216011E+00  6.974706914E+00  1.264405455E-07  0.00000E+00  9.000E+00
</event>
<event>
      5  10001  2.40292E+09  1.58471E+01 -1.00000E+00  1.75119E-01
      21    -1     0     0   515   512  0.000000000E+00  0.000000000E+00  1.038124910E+01  1.038124910E+01  0.000000000E+00  0.00000E+00  9.000E+00
       1    -1     0     0   512     0  0.000000000E+00  0.000000000E+00 -7.150694272E+01  7.150694272E+01  0.000000000E+00  0.00000E+00  9.000E+00
      21     1     1     2   515   511 -5.974314505E+00 -5.696979548E-02  6.432391206E+00  8.779028192E+00  4.986882368E-07  0.00000E+00  9.000E+00
       1     1     1     2   513     0  1.168794426E+00  9.970986031E+00 -5.690155572E+01  5.778133423E+01  3.300000131E-01  0.00000E+00  9.000E+00
      21     1     1     2   511   513  4.805520080E+00 -9.914016235E+00 -1.065652911E+01  1.532782939E+01  0.000000000E+00  0.00000E+00  9.000E+00
</event>
<event>
      5  10001  2.40292E+09  8.09121E+00 -1.00000E+00  2.06963E-01
      -4    -1     0     0     0   512  0.000000000E+00  0.000000000E+00  6.692581192E+01  6.692581192E+01  0.000000000E+00  0.00000E+00  9.000E+00
       2    -1     0     0   512     0  0.000000000E+00  0.000000000E+00 -5.561163255E+01  5.561163255E+01  0.000000000E+00  0.00000E+00  9.000E+00
      -4     1     1     2     0   514  1.813014397E+00 -3.826671945E+01  4.985370686E+01  6.289094471E+01  1.500000000E+00  0.00000E+00  9.000E+00
       2     1     1     2   515     0  2.564690163E+00  3.419531539E+01 -4.076180505E+01  5.326847925E+01  3.300000131E-01  0.00000E+00  9.000E+00
      21     1     1     2   514   515 -4.377704560E+00  4.071404060E+00  2.222277565E+00  6.378020524E+00  8.429369702E-08  0.00000E+00  9.000E+00
</event>
<event>
      5  10001  2.40292E+09  9.91208E+00 -1.00000E+00  1.96143E-01
      21    -1     0     0   511   514  0.000000000E+00  0.000000000E+00  2.890447157E+00  2.890447157E+00  0.000000000E+00  0.00000E+00  9.000E+00
      21    -1     0     0   512   513  0.000000000E+00  0.000000000E+00 -1.232416004E+02  1.232416004E+02  0.000000000E+00  0.00000E+00  9.000E+00
      21     1     1     2   511   513  3.420719877E+00 -1.612556950E+01 -3.222853017E+01  3.619963361E+01  4.768371582E-07  0.00000E+00  9.000E+00
      21     1     1     2   512   516 -2.438718436E+00  6.156996009E+00 -1.976872031E+01  2.084845918E+01  4.768371582E-07  0.00000E+00  9.000E+00
      21     1     1     2   516   514 -9.820014410E-01  9.968573488E+00 -6.835390271E+01  6.908395472E+01  9.536743164E-07  0.00000E+00  9.000E+00
</event>
<event>
      5  10001  2.40292E+09  6.17690E+00 -1.00000E+00  2.23453E-01
      21    -1     0     0   511   512  0.000000000E+00  0.000000000E+00  3.301325998E+02  3.301325998E+02  0.000000000E+00  0.00000E+00  9.000E+00
       5    -1     0     0   514     0  0.000000000E+00  0.000000000E+00 -1.445531753E+00  1.445531753E+00  0.000000000E+00  0.00000E+00  9.000E+00
      21     1     1     2   514   512  6.477779822E+00 -1.489840826E+01  8.306187283E+01  8.463568348E+01  2.132480600E-06  0.00000E+00  9.000E+00
       5     1     1     2   515     0 -1.048897302E+01  1.034211811E+01  1.002007585E+02  1.013913702E+02  4.800000191E+00  0.00000E+00  9.000E+00
      21     1     1     2   511   515  4.011193202E+00  4.556290152E+00  1.454244367E+02  1.455510778E+02  1.907348633E-06  0.00000E+00  9.000E+00
</event>
<event>
      5  10001  2.40292E+09  9.93021E+00 -1.00000E+00  1.96051E-01
      21    -1     0     0   513   514  0.000000000E+00  0.000000000E+00  1.376798432E+02  1.376798432E+02  0.000000000E+00  0.00000E+00  9.000E+00
      21    -1     0     0   512   516  0.000000000E+00  0.000000000E+00 -4.778697744E+02  4.778697744E+02  0.000000000E+00  0.00000E+00  9.000E+00
      21     1     1     2   513   516  3.838693320E+00 -1.272306280E+01 -4.772006175E+02  4.773856316E+02  1.078959322E-05  0.00000E+00  9.000E+00
      21     1     1     2   512   517  2.264523407E+00  1.117541477E+01  8.048461133E+01  8.128831787E+01  2.523185073E-06  0.00000E+00  9.000E+00
      21     1     1     2   517   514 -6.103216727E+00  1.547648030E+00  5.652607504E+01  5.687566816E+01  1.168007728E-06  0.00000E+00  9.000E+00
</event>
<event>
      5  10001  2.40292E+09  2.01725E+00 -1.00000E+00  3.61127E-01
      21    -1     0     0   511   514  0.000000000E+00  0.000000000E+00  1.323236172E+01  1.323236172E+01  0.000000000E+00  0.00000E+00  9.000E+00
      -1    -1     0     0     0   511  0.000000000E+00  0.000000000E+00 -9.694650693E+00  9.694650693E+00  0.000000000E+00  0.00000E+00  9.000E+00
      -1     1     1     2     0   513  1.064791150E+01  1.711035815E+00  4.136968531E+00  1.155547798E+01  3.300000131E-01  0.00000E+00  9.000E+00
       2     1     1     2   513     0 -8.074037830E+00 -5.468735777E-01 -1.779176081E+00  8.292377531E+00  3.300000131E-01  0.00000E+00  9.000E+00
      -2     1     1     2     0   514 -2.573873666E+00 -1.164162237E+00  1.179918578E+00  3.079156901E+00  3.300000131E-01  0.00000E+00  9.000E+00
</event>
<event>
      5  10001  2.40292E+09  1.04627E+01 -1.00000E+00  1.93456E-01
      21    -1     0     0   513   514  0.000000000E+00  0.000000000E+00  2.417747571E+01  2.417747571E+01  0.000000000E+00  0.00000E+00  9.000E+00
       1    -1     0     0   514     0  0.000000000E+00  0.000000000E+00 -3.247352748E+01  3.247352748E+01  0.000000000E+00  0.00000E+00  9.000E+00
      21     1     1     2   513   511 -6.614149390E+00  1.092436300E-01  5.995777036E+00  8.927947613E+00  1.884864366E-07  0.00000E+00  9.000E+00
       1     1     1     2   512     0  1.007381581E+01  3.133876347E+00 -2.974309962E+01  3.156047878E+01  3.300000131E-01  0.00000E+00  9.000E+00
      21     1     1     2   511   512 -3.459666418E+00 -3.243119977E+00  1.545127081E+01  1.616257679E+01  2.384185791E-07  0.00000E+00  9.000E+00
</event>
<event>
      5  10001  2.40292E+09  3.75859E+00 -1.00000E+00  2.69893E-01
      21    -1     0     0   515   512  0.000000000E+00  0.000000000E+00  1.392282030E+02  1.392282030E+02  0.000000000E+00  0.00000E+00  9.000E+00
      21    -1     0     0   511   513  0.000000000E+00  0.000000000E+00 -2.225503413E+01  2.225503413E+01  0.000000000E+00  0.00000E+00  9.000E+00
      21     1     1     2   515   516  9.531743343E+00  3.212365337E+00  2.003118519E+00  1.025601804E+01  1.460009660E-07  0.00000E+00  9.000E+00
      21     1     1     2   511   512 -1.322296446E+01 -2.503933980E+00  1.325593864E+02  1.332407873E+02  0.000000000E+00  0.00000E+00  9.000E+00
      21     1     1     2   516   513  3.691221119E+00 -7.084313567E-01 -1.758933602E+01  1.798643183E+01  3.371747881E-07  0.00000E+00  9.000E+00
</event>
<event>
      5  10001  2.40292E+09  3.11374E+00 -1.00000E+00  2.91914E-01
      21    -1     0     0   514   511  0.000000000E+00  0.000000000E+00  5.630398556E+01  5.630398556E+01  0.000000000E+00  0.00000E+00  9.000E+00
      21    -1     0     0   512   514  0.000000000E+00  0.000000000E+00 -1.083540577E+01  1.083540577E+01  0.000000000E+00  0.00000E+00  9.000E+00
      21     1     1     2   517   513  6.940606902E+00  1.223685850E+01 -3.639567550E+00  1.453131729E+01  3.976125736E-07  0.00000E+00  9.000E+00
      21     1     1     2   513   511 -5.615460423E+00 -9.419175933E+00  4.810148287E+01  4.933565572E+01  9.536743164E-07  0.00000E+00  9.000E+00
      21     1     1     2   512   517 -1.325146479E+00 -2.817682572E+00  1.006664470E+00  3.272418314E+00  7.146345859E-08  0.00000E+00  9.000E+00
</event>
<event>
      5  10001  2.40292E+09  6.67689E+00 -1.00000E+00  2.18422E-01
      21    -1     0     0   515   511  0.000000000E+00  0.000000000E+00  4.660065282E+01  4.660065282E+01  0.000000000E+00  0.00000E+00  9.000E+00
      21    -1     0     0   512   515  0.000000000E+00  0.000000000E+00 -1.625216444E+01  1.625216444E+01  0.000000000E+00  0.00000E+00  9.000E+00
      21     1     1     2   516   511 -1.032631227E+01 -7.132281708E+00  4.235110289E+01  4.417146232E+01  8.259061849E-07  0.00000E+00  9.000E+00
      21     1     1     2   512   513  3.901546746E+00  9.054859797E-01 -7.860200206E+00  8.821831961E+00  2.384185791E-07  0.00000E+00  9.000E+00
      21     1     1     2   513   516  6.424765528E+00  6.226795728E+00 -4.142414307E+00  9.859522981E+00  1.192092896E-07  0.00000E+00  9.000E+00
</event>
<event>
      5  10001  2.40292E+09  4.96149E+00 -1.00000E+00  2.43121E-01
      21    -1     0     0   514   515  0.000000000E+00  0.000000000E+00  1.988062342E+00  1.988062342E+00  0.000000000E+00  0.00000E+00  9.000E+00
      21    -1     0     0   511   516  0.000000000E+00  0.000000000E+00 -1.027148019E+02  1.027148019E+02  0.000000000E+00  0.00000E+00  9.000E+00
      21     1     1     2   514   516 -1.120718407E+01  3.892487987E+00 -3.683837107E+01  3.870165398E+01  4.768371582E-07  0.00000E+00  9.000E+00
      21     1     1     2   511   512  7.887297837E+00 -7.579598163E+00 -5.164436284E+01  5.279015049E+01  0.000000000E+00  0.00000E+00  9.000E+00
      21     1     1     2   512   515  3.319886236E+00  3.687110176E+00 -1.224400565E+01  1.321105978E+01  1.685873940E-07  0.00000E+00  9.000E+00
</event>
<event>
      5  10001  2.40292E+09  1.10491E+01 -1.00000E+00  1.90823E-01
       1    -1     0     0   514     0  0.000000000E+00  0.000000000E+00  1.240141127E+02  1.240141127E+02  0.000000000E+00  0.00000E+00  9.000E+00
      21    -1     0     0   513   514  0.000000000E+00  0.000000000E+00 -3.037106891E+01  3.037106891E+01  0.000000000E+00  0.00000E+00  9.000E+00
      21     1     1     2   511   512  4.136240416E+00  3.395395989E+00 -1.667488118E+01  1.751253440E+01  5.331201500E-07  0.00000E+00  9.000E+00
       1     1     1     2   512     0 -9.053957270E+00 -1.640713305E+01  1.190056344E+02  1.204724785E+02  3.300000131E-01  0.00000E+00  9.000E+00
      21     1     1     2   513   511  4.917716854E+00  1.301173706E+01 -8.687709395E+00  1.640016875E+01  1.685873940E-07  0.00000E+00  9.000E+00
</event>
<event>
      5  10001  2.40292E+09  1.65511E+01 -1.00000E+00  1.73405E-01
      21    -1     0     0   515   512  0.000000000E+00  0.000000000E+00  9.708706522E+01  9.708706522E+01  0.000000000E+00  0.00000E+00  9.000E+00
      21    -1     0     0   513   511  0.000000000E+00  0.000000000E+00 -3.877659624E+00  3.877659624E+00  0.000000000E+00  0.00000E+00  9.000E+00
      21     1     1     2   515   511  1.147958975E+01 -2.859784315E+00  7.137743783E+01  7.235121270E+01  0.000000000E+00  0.00000E+00  9.000E+00
      21     1     1     2   513   514 -2.215415711E+00  7.713434620E+00  9.991418171E+00  1.281536490E+01  2.064765462E-07  0.00000E+00  9.000E+00
      21     1     1     2   514   512 -9.264174037E+00 -4.853650305E+00  1.184054959E+01  1.579814725E+01  2.384185791E-07  0.00000E+00  9.000E+00
</event>
<event>
      5  10001  2.40292E+09  4.70944E+00 -1.00000E+00  2.47714E-01
      21    -1     0     0   513   512  0.000000000E+00  0.000000000E+00  2.288706103E+01  2.288706103E+01  0.000000000E+00  0.00000E+00  9.000E+00
       2    -1     0     0   511     0  0.000000000E+00  0.000000000E+00 -5.436051790E+01  5.436051790E+01  0.000000000E+00  0.00000E+00  9.000E+00
      21     1     1     2   513   514  3.553822911E-01  1.041067824E+01  1.952975265E+01  2.213413104E+01  0.000000000E+00  0.00000E+00  9.000E+00
       2     1     1     2   514     0 -3.488691522E+00 -1.392637757E+01 -4.622618375E+01  4.840541214E+01  3.300000131E-01  0.00000E+00  9.000E+00
      21     1     1     2   511   512  3.133309231E+00  3.515699323E+00 -4.777025771E+00  6.708035754E+00  8.429369702E-08  0.00000E+00  9.000E+00
</event>
<event>
      5  10001  2.40292E+09  7.23378E+00 -1.00000E+00  2.13487E-01
       3    -1     0     0   515     0  0.000000000E+00  0.000000000E+00  2.212452252E+02  2.212452252E+02  0.000000000E+00  0.00000E+00  9.000E+00
      21    -1     0     0   511   512  0.000000000E+00  0.000000000E+00 -5.106836643E+00  5.106836643E+00  0.000000000E+00  0.00000E+00  9.000E+00
      21     1     1     2   515   512  1.637408380E+01  4.766202265E+00  3.969779988E+01  4.320581697E+01  8.259061849E-07  0.00000E+00  9.000E+00
      21     1     1     2   511   514 -1.523344976E+01  2.376543610E+00  1.489330477E+01  2.143633546E+01  4.460403188E-07  0.00000E+00  9.000E+00
       3     1     1     2   514     0 -1.140634037E+00 -7.142745875E+00  1.615472839E+02  1.617099094E+02  5.000000000E-01  0.00000E+00  9.000E+00
</event>
<event>
      5  10001  2.40292E+09  1.72720E+01 -1.00000E+00  1.71757E-01
       1    -1     0     0   511     0  0.000000000E+00  0.000000000E+00  4.099644085E+01  4.099644085E+01  0.000000000E+00  0.00000E+00  9.000E+00
      21    -1     0     0   513   514  0.000000000E+00  0.000000000E+00 -1.558705367E+01  1.558705367E+01  0.000000000E+00  0.00000E+00  9.000E+00
      21     1     1     2   511   514  1.300296450E+01 -6.496550304E+00 -9.516453955E+00  1.737369125E+01  0.000000000E+00  0.00000E+00  9.000E+00
      21     1     1     2   513   512 -1.186971390E+00  5.503774692E+00  7.957835484E+00  9.748209196E+00  0.000000000E+00  0.00000E+00  9.000E+00
       1     1     1     2   512     0 -1.181599311E+01  9.927756126E-01  2.696800565E+01  2.946159407E+01  3.300000131E-01  0.00000E+00  9.000E+00
</event>
<event>
      5  10001  2.40292E+09  6.28718E+00 -1.00000E+00  2.22288E-01
      21    -1     0     0   515   513  0.000000000E+00  0.000000000E+00  2.178680727E+01  2.178680727E+01  0.000000000E+00  0.00000E+00  9.000E+00
      21    -1     0     0   516   515  0.000000000E+00  0.000000000E+00 -9.014182816E+00  9.014182816E+00  0.000000000E+00  0.00000E+00  9.000E+00
      21     1     1     2   516   517  3.887321779E-01 -9.673331867E+00 -3.787988821E+00  1.039583193E+01  1.192092896E-07  0.00000E+00  9.000E+00
      21     1     1     2   517   511 -3.576514181E+00  4.837198133E+00  9.836586655E+00  1.153032421E+01  2.384185791E-07  0.00000E+00  9.000E+00
      21     1     1     2   511   513  3.187782003E+00  4.836133734E+00  6.724026615E+00  8.874833942E+00  1.884864366E-07  0.00000E+00  9.000E+00
</event>
<event>
      5  10001  2.40292E+09  8.81333E+00 -1.00000E+00  2.02258E-01
      21    -1     0     0   512   516  0.000000000E+00  0.000000000E+00  2.566815586E+00  2.566815586E+00  0.000000000E+00  0.00000E+00  9.000E+00
      21    -1     0     0   513   512  0.000000000E+00  0.000000000E+00 -7.894765550E+01  7.894765550E+01  0.000000000E+00  0.00000E+00  9.000E+00
      21     1     1     2   513   514 -4.377022882E+00 -7.727153097E+00 -5.945776674E+01  6.011732903E+01  6.743495762E-07  0.00000E+00  9.000E+00
      21     1     1     2   514   515 -3.798097653E-01  7.873490000E+00 -1.311683372E+01  1.530318356E+01  2.920019320E-07  0.00000E+00  9.000E+00
      21     1     1     2   515   516  4.756832647E+00 -1.463369031E-01 -3.806239451E+00  6.093958490E+00  1.115100797E-07  0.00000E+00  9.000E+00
</event>
<event>
      5  10001  2.40292E+09  5.73403E+00 -1.00000E+00  2.28493E-01
       3    -1     0     0   512     0  0.000000000E+00  0.000000000E+00  1.252783928E+02  1.252783928E+02  0.000000000E+00  0.00000E+00  9.000E+00
       2    -1     0     0   513     0  0.000000000E+00  0.000000000E+00 -1.274614822E+01  1.274614822E+01  0.000000000E+00  0.00000E+00  9.000E+00
       2     1     1     2   511     0  1.435813707E+00  1.250938719E+01 -8.808479634E+00  1.537024861E+01  3.300000131E-01  0.00000E+00  9.000E+00
       3     1     1     2   513     0 -6.411396606E+00 -9.660131776E+00  9.436899741E+01  9.507987076E+01  5.000000000E-01  0.00000E+00  9.000E+00
      21     1     1     2   512   511  4.975582899E+00 -2.849255419E+00  2.697172682E+01  2.757442165E+01  4.768371582E-07  0.00000E+00  9.000E+00
</event>
<event>
      5  10001  2.40292E+09  7.17474E+00 -1.00000E+00  2.13981E-01
      21    -1     0     0   514   511  0.000000000E+00  0.000000000E+00  5.570348008E+01  5.570348008E+01  0.000000000E+00  0.00000E+00  9.000E+00
      21    -1     0     0   515   514  0.000000000E+00  0.000000000E+00 -1.191444302E+02  1.191444302E+02  0.000000000E+00  0.00000E+00  9.000E+00
      21     1     1     2   513   511  7.523381975E+00  8.139588868E+00  5.401856289E+01  5.514398716E+01  1.168007728E-06  0.00000E+00  9.000E+00
      21     1     1     2   515   516 -1.274071785E+00 -9.734129537E+00 -1.067633322E+02  1.072137381E+02  1.348699152E-06  0.00000E+00  9.000E+00
      21     1     1     2   516   513 -6.249310191E+00  1.594540668E+00 -1.069618080E+01  1.249018501E+01  2.384185791E-07  0.00000E+00  9.000E+00
</event>
<event>
      5  10001  2.40292E+09  7.44445E+00 -1.00000E+00  2.11774E-01
      21    -1     0     0   514   511  0.000000000E+00  0.000000000E+00  1.937552301E+02  1.937552301E+02  0.000000000E+00  0.00000E+00  9.000E+00
      21    -1     0     0   517   512  0.000000000E+00  0.000000000E+00 -5.277530817E+02  5.277530817E+02  0.000000000E+00  0.00000E+00  9.000E+00
      21     1     1     2   517   513  5.799333990E+00 -8.069666107E+00 -5.162509850E+02  5.163466194E+02  1.078959322E-05  0.00000E+00  9.000E+00
      21     1     1     2   513   511 -1.309470997E+01  6.587306575E+00 -6.661157722E+00  1.610077822E+01  1.658252209E-06  0.00000E+00  9.000E+00
      21     1     1     2   514   512  7.295375981E+00  1.482359532E+00  1.889142912E+02  1.890609143E+02  3.814697266E-06  0.00000E+00  9.000E+00
</event>
<event>
      5  10001  2.40292E+09  1.61169E+01 -1.00000E+00  1.74449E-01
      21    -1     0     0   515   513  0.000000000E+00  0.000000000E+00  1.157392299E+02  1.157392299E+02  0.000000000E+00  0.00000E+00  9.000E+00
      21    -1     0     0   516   515  0.000000000E+00  0.000000000E+00 -1.394360908E+01  1.394360908E+01  0.000000000E+00  0.00000E+00  9.000E+00
      21     1     1     2   516   512 -9.656521627E+00 -4.505005066E+00 -9.602971422E+00  1.434435571E+01  5.960464478E-07  0.00000E+00  9.000E+00
      21     1     1     2   512   511 -1.530940495E-01  9.842172916E+00  9.493935949E+01  9.544827807E+01  1.348699152E-06  0.00000E+00  9.000E+00
      21     1     1     2   511   513  9.809615676E+00 -5.337167849E+00  1.645923277E+01  1.989020522E+01  3.371747881E-07  0.00000E+00  9.000E+00
</event>
<event>
      5  10001  2.40292E+09  8.16007E+00 -1.00000E+00  2.06487E-01
       4    -1     0     0   512     0  0.000000000E+00  0.000000000E+00  3.478297986E+01  3.478297986E+01  0.000000000E+00  0.00000E+00  9.000E+00
      21    -1     0     0   515   514  0.000000000E+00  0.000000000E+00 -2.216726379E+01  2.216726379E+01  0.000000000E+00  0.00000E+00  9.000E+00
      21     1     1     2   512   514  8.169526116E+00  7.669019895E+00  4.515527636E+00  1.208077038E+01  3.039252468E-07  0.00000E+00  9.000E+00
       4     1     1     2   511     0 -3.102794252E+00 -1.405628284E+01  2.341100531E+01  2.752329176E+01  1.500000000E+00  0.00000E+00  9.000E+00
      21     1     1     2   515   511 -5.066731864E+00  6.387262949E+00 -1.531081688E+01  1.734618151E+01  1.685873940E-07  0.00000E+00  9.000E+00
</event>
<event>
      5  10001  2.40292E+09  4.84212E+00 -1.00000E+00  2.45244E-01
       2    -1     0     0   512     0  0.000000000E+00  0.000000000E+00  3.356634870E+01  3.356634870E+01  0.000000000E+00  0.00000E+00  9.000E+00
      21    -1     0     0   511   512  0.000000000E+00  0.000000000E+00 -6.586277740E+00  6.586277740E+00  0.000000000E+00  0.00000E+00  9.000E+00
      21     1     1     2   511   513  4.813853677E+00  8.249285052E+00 -8.573403490E-01  9.589521550E+00  2.698715072E-07  0.00000E+00  9.000E+00
       2     1     1     2   514     0 -3.818823832E+00 -4.298771554E+00  2.485662136E+01  2.551515976E+01  3.300000131E-01  0.00000E+00  9.000E+00
      21     1     1     2   513   514 -9.950298453E-01 -3.950513497E+00  2.980789953E+00  5.047945129E+00  1.115100797E-07  0.00000E+00  9.000E+00
</event>
<event>
      5  10001  2.40292E+09  2.66379E+00 -1.00000E+00  3.13309E-01
      21    -1     0     0   513   512  0.000000000E+00  0.000000000E+00  5.820433205E+00  5.820433205E+00  0.000000000E+00  0.00000E+00  9.000E+00
       2    -1     0     0   511     0  0.000000000E+00  0.000000000E+00 -3.653133638E+02  3.653133638E+02  0.000000000E+00  0.00000E+00  9.000E+00
       2     1     1     2   513     0  8.948906298E+00 -2.482179801E+00 -2.977835409E+02  2.979284985E+02  3.300000131E-01  0.00000E+00  9.000E+00
       4     1     1     2   511     0 -1.009337980E+01  4.883725802E+00 -6.653749997E+01  6.749234028E+01  1.500000000E+00  0.00000E+00  9.000E+00
      -4     1     1     2     0   512  1.144473500E+00 -2.401546001E+00  4.828110233E+00  5.712958184E+00  1.500000000E+00  0.00000E+00  9.000E+00
</event>
<event>
      5  10001  2.40292E+09  5.91288E+00 -1.00000E+00  2.26384E-01
      21    -1     0     0   511   512  0.000000000E+00  0.000000000E+00  1.233461404E+02  1.233461404E+02  0.000000000E+00  0.00000E+00  9.000E+00
      -1    -1     0     0     0   514  0.000000000E+00  0.000000000E+00 -9.471912585E+00  9.471912585E+00  0.000000000E+00  0.00000E+00  9.000E+00
      -1     1     1     2     0   513  2.040464229E+01 -1.689731015E+00  1.173496552E+01  2.360133330E+01  3.300000131E-01  0.00000E+00  9.000E+00
      21     1     1     2   513   512 -1.463721370E+01  3.871279962E-01  1.213167871E+01  1.901513926E+01  4.129530925E-07  0.00000E+00  9.000E+00
      21     1     1     2   511   514 -5.767428592E+00  1.302603018E+00  9.000758358E+01  9.020158042E+01  9.536743164E-07  0.00000E+00  9.000E+00
</event>
<event>
      5  10001  2.40292E+09  3.93639E+00 -1.00000E+00  2.65012E-01
      -1    -1     0     0     0   515  0.000000000E+00  0.000000000E+00  5.522090890E+02  5.522090890E+02  0.000000000E+00  0.00000E+00  9.000E+00
      21    -1     0     0   511   513  0.000000000E+00  0.000000000E+00 -5.709152770E+01  5.709152770E+01  0.000000000E+00  0.00000E+00  9.000E+00
      -1     1     1     2     0   512  8.542709919E+00 -6.899210216E+00  4.455495270E+02  4.456849413E+02  3.300000131E-01  0.00000E+00  9.000E+00
      21     1     1     2   511   515 -9.225442234E+00  3.022481074E+00  1.063024762E+02  1.067448388E+02  2.697398305E-06  0.00000E+00  9.000E+00
      21     1     1     2   512   513  6.827323145E-01  3.876729142E+00 -5.673444190E+01  5.687083655E+01  1.507891493E-06  0.00000E+00  9.000E+00
</event>
<event>
      5  10001  2.40292E+09  1.07690E+01 -1.00000E+00  1.92054E-01
      21    -1     0     0   514   511  0.000000000E+00  0.000000000E+00  3.993113645E+01  3.993113645E+01  0.000000000E+00  0.00000E+00  9.000E+00
      21    -1     0     0   512   516  0.000000000E+00  0.000000000E+00 -1.773691294E+01  1.773691294E+01  0.000000000E+00  0.00000E+00  9.000E+00
      21     1     1     2   514   516 -8.613711556E+00 -1.408654824E+01  2.867195259E+01  3.308636778E+01  4.768371582E-07  0.00000E+00  9.000E+00
      21     1     1     2   512   515  6.119774053E+00  6.274665419E+00 -1.187884348E+01  1.476245179E+01  4.129530925E-07  0.00000E+00  9.000E+00
      21     1     1     2   515   511  2.493937503E+00  7.811882819E+00  5.401114394E+00  9.819229814E+00  1.460009660E-07  0.00000E+00  9.000E+00
</event>
<event>
      5  10001  2.40292E+09  1.44194E+01 -1.00000E+00  1.78966E-01
      21    -1     0     0   514   512  0.000000000E+00  0.000000000E+00  2.572046751E+02  2.572046751E+02  0.000000000E+00  0.00000E+00  9.000E+00
      21    -1     0     0   517   511  0.000000000E+00  0.000000000E+00 -1.859532014E+01  1.859532014E+01  0.000000000E+00  0.00000E+00  9.000E+00
      21     1     1     2   513   511 -1.021988718E+00  2.527425012E+01  9.535357830E+00  2.703248470E+01  5.462855929E-07  0.00000E+00  9.000E+00
      21     1     1     2   517   512  4.062154888E+00 -1.117900220E+01 -5.951526806E+00  1.330007007E+01  5.196212463E-07  0.00000E+00  9.000E+00
      21     1     1     2   514   513 -3.040166169E+00 -1.409524792E+01  2.350255239E+02  2.354674405E+02  2.697398305E-06  0.00000E+00  9.000E+00
</event>
<event>
      5  10001  2.40292E+09  1.03357E+01 -1.00000E+00  1.94056E-01
      21    -1     0     0   515   512  0.000000000E+00  0.000000000E+00  2.023793934E+01  2.023793934E+01  0.000000000E+00  0.00000E+00  9.000E+00
       2    -1     0     0   514     0  0.000000000E+00  0.000000000E+00 -8.290469628E+01  8.290469628E+01  0.000000000E+00  0.00000E+00  9.000E+00
      21     1     1     2   514   511  8.118401223E+00  7.547267478E+00  1.108371907E+01  1.567541110E+01  2.064765462E-07  0.00000E+00  9.000E+00
       2     1     1     2   515     0 -1.651966919E+01 -1.727021356E+01 -7.016853171E+01  7.412753529E+01  3.300000131E-01  0.00000E+00  9.000E+00
      21     1     1     2   511   512  8.401267963E+00  9.722946078E+00 -3.581944300E+00  1.333968923E+01  1.884864366E-07  0.00000E+00  9.000E+00
</event>
<event>
      5  10001  2.40292E+09  2.13865E+00 -1.00000E+00  3.49814E-01
      21    -1     0     0   513   514  0.000000000E+00  0.000000000E+00  1.711613381E+01  1.711613381E+01  0.000000000E+00  0.00000E+00  9.000E+00
      21    -1     0     0   511   512  0.000000000E+00  0.000000000E+00 -1.085035861E+01  1.085035861E+01  0.000000000E+00  0.00000E+00  9.000E+00
      21     1     1     2   513   512  4.124646399E+00  1.272924173E+01  3.545722218E+00  1.384263157E+01  1.884864366E-07  0.00000E+00  9.000E+00
      21     1     1     2   511   515 -3.918032055E+00 -9.437017769E+00  3.374566215E+00  1.076085390E+01  1.460009660E-07  0.00000E+00  9.000E+00
      21     1     1     2   515   514 -2.066143440E-01 -3.292223958E+00 -6.545132352E-01  3.363006936E+00  4.885672423E-08  0.00000E+00  9.000E+00
</event>
<event>
      5  10001  2.40292E+09  4.13435E+00 -1.00000E+00  2.60029E-01
      21    -1     0     0   516   511  0.000000000E+00  0.000000000E+00  5.323470566E+01  5.323470566E+01  0.000000000E+00  0.00000E+00  9.000E+00
      21    -1     0     0   517   514  0.000000000E+00  0.000000000E+00 -5.931419234E+00  5.931419234E+00  0.000000000E+00  0.00000E+00  9.000E+00
      21     1     1     2   516   514 -1.250235615E+01 -1.205839763E+00  2.933704063E+00  1.289843317E+01  2.269677253E-07  0.00000E+00  9.000E+00
      21     1     1     2   512   511  5.539264134E+00 -1.305249803E+00  2.066446210E+01  2.143378451E+01  4.768371582E-07  0.00000E+00  9.000E+00
      21     1     1     2   517   512  6.963092011E+00  2.511089565E+00  2.370512026E+01  2.483390721E+01  3.371747881E-07  0.00000E+00  9.000E+00
</event>
<event>
      5  10001  2.40292E+09  7.49570E+00 -1.00000E+00  2.11369E-01
      21    -1     0     0   513   512  0.000000000E+00  0.000000000E+00  1.859813005E+01  1.859813005E+01  0.000000000E+00  0.00000E+00  9.000E+00
      21    -1     0     0   517   515  0.000000000E+00  0.000000000E+00 -1.222584438E+02  1.222584438E+02  0.000000000E+00  0.00000E+00  9.000E+00
      21     1     1     2   513   515 -1.642553769E+01 -1.636079087E+01  8.143790779E+00  2.457224236E+01  8.429369702E-07  0.00000E+00  9.000E+00
      21     1     1     2   511   512  1.159854223E+01  1.819817373E+01 -1.072464573E+02  1.093960799E+02  1.907348633E-06  0.00000E+00  9.000E+00
      21     1     1     2   517   511  4.826995466E+00 -1.837382859E+00 -4.557647258E+00  6.888251558E+00  1.032382731E-07  0.00000E+00  9.000E+00
</event>
<event>
      5  10001  2.40292E+09  7.38063E+00 -1.00000E+00  2.12285E-01
       3    -1     0     0   511     0  0.000000000E+00  0.000000000E+00  1.112308689E+01  1.112308689E+01  0.000000000E+00  0.00000E+00  9.000E+00
       2    -1     0     0   512     0  0.000000000E+00  0.000000000E+00 -5.255563500E+02  5.255563500E+02  0.000000000E+00  0.00000E+00  9.000E+00
      21     1     1     2   511   514  1.003083120E+01  1.208370930E+01 -7.659525882E+01  7.818866464E+01  0.000000000E+00  0.00000E+00  9.000E+00
       2     1     1     2   514     0 -6.421637237E+00 -5.645889574E+00 -4.467933387E+02  4.468752733E+02  3.300000131E-01  0.00000E+00  9.000E+00
       3     1     1     2   512     0 -3.609193967E+00 -6.437819722E+00  8.955334340E+00  1.161549900E+01  5.000000000E-01  0.00000E+00  9.000E+00
</event>
<event>
      5  10001  2.40292E+09  5.73377E+00 -1.00000E+00  2.28496E-01
      21    -1     0     0   513   511  0.000000000E+00  0.000000000E+00  7.577934233E+01  7.577934233E+01  0.000000000E+00  0.00000E+00  9.000E+00
      21    -1     0     0   512   515  0.000000000E+00  0.000000000E+00 -9.210032041E+00  9.210032041E+00  0.000000000E+00  0.00000E+00  9.000E+00
      21     1     1     2   513   515  5.964312613E+00  4.688386481E+00  5.860809619E+01  5.909706364E+01  1.507891493E-06  0.00000E+00  9.000E+00
      21     1     1     2   512   514 -8.898997362E+00 -9.614213040E+00 -3.073991483E+00  1.345639885E+01  1.460009660E-07  0.00000E+00  9.000E+00
      21     1     1     2   514   511  2.934684749E+00  4.925826559E+00  1.103520558E+01  1.243591187E+01  2.064765462E-07  0.00000E+00  9.000E+00
</event>
<event>
      5  10001  2.40292E+09  1.46671E+01 -1.00000E+00  1.78259E-01
      21    -1     0     0   516   512  0.000000000E+00  0.000000000E+00  9.890672708E+00  9.890672708E+00  0.000000000E+00  0.00000E+00  9.000E+00
      21    -1     0     0   511   516  0.000000000E+00  0.000000000E+00 -1.363016636E+02  1.363016636E+02  0.000000000E+00  0.00000E+00  9.000E+00
      21     1     1     2   511   517  7.449233147E+00 -6.660615776E+00 -1.321142693E+02  1.324916414E+02  2.697398305E-06  0.00000E+00  9.000E+00
      21     1     1     2   517   513  4.547567086E-01 -8.611400918E-01  1.919205176E+00  2.152141824E+00  2.448510636E-07  0.00000E+00  9.000E+00
      21     1     1     2   513   512 -7.903989856E+00  7.521755867E+00  3.784073300E+00  1.154855306E+01  7.952251473E-07  0.00000E+00  9.000E+00
</event>
<event>
      5  10001  2.40292E+09  6.65128E+00 -1.00000E+00  2.18665E-01
      21    -1     0     0   516   515  0.000000000E+00  0.000000000E+00  7.785631503E+02  7.785631503E+02  0.000000000E+00  0.00000E+00  9.000E+00
      21    -1     0     0   512   514  0.000000000E+00  0.000000000E+00 -3.570620831E+00  3.570620831E+00  0.000000000E+00  0.00000E+00  9.000E+00
      21     1     1     2   512   511  1.569719085E+01 -2.712676209E+00  1.733727768E+01  2.354446029E+01  7.907449699E-07  0.00000E+00  9.000E+00
      21     1     1     2   511   515 -1.389572742E+01  9.115347516E+00  1.534206214E+02  1.543180737E+02  2.697398305E-06  0.00000E+00  9.000E+00
      21     1     1     2   516   514 -1.801463438E+00 -6.402671307E+00  6.042346304E+02  6.042712371E+02  7.629394531E-06  0.00000E+00  9.000E+00
</event>
<event>
      5  10001  2.40292E+09  6.96470E+00 -1.00000E+00  2.15793E-01
      21    -1     0     0   513   512  0.000000000E+00  0.000000000E+00  2.351947804E+01  2.351947804E+01  0.000000000E+00  0.00000E+00  9.000E+00
      21    -1     0     0   517   513  0.000000000E+00  0.000000000E+00 -2.759516465E+01  2.759516465E+01  0.000000000E+00  0.00000E+00  9.000E+00
      21     1     1     2   514   512 -1.675181107E+00  1.036894323E+01  2.060710510E+01  2.312950488E+01  2.384185791E-07  0.00000E+00  9.000E+00
      21     1     1     2   511   514  4.898579528E+00 -5.727734769E+00 -1.397131459E+01  1.587452860E+01  4.129530925E-07  0.00000E+00  9.000E+00
      21     1     1     2   517   511 -3.223398421E+00 -4.641208461E+00 -1.071147713E+01  1.211060921E+01  1.685873940E-07  0.00000E+00  9.000E+00
</event>
<event>
      5  10001  2.40292E+09  6.76879E+00 -1.00000E+00  2.17563E-01
      21    -1     0     0   515   511  0.000000000E+00  0.000000000E+00  1.057304761E+00  1.057304761E+00  0.000000000E+00  0.00000E+00  9.000E+00
       1    -1     0     0   512     0  0.000000000E+00  0.000000000E+00 -9.019554485E+02  9.019554485E+02  0.000000000E+00  0.00000E+00  9.000E+00
      21     1     1     2   512   511 -1.211848590E+01 -2.243681883E+00 -3.748794086E+01  3.946184891E+01  1.784161275E-06  0.00000E+00  9.000E+00
       1     1     1     2   513     0  6.069346002E+00 -2.161032551E+00 -5.992972818E+02  5.993320014E+02  3.300000131E-01  0.00000E+00  9.000E+00
      21     1     1     2   515   513  6.049139898E+00  4.404714433E+00 -2.641129210E+02  2.642189029E+02  0.000000000E+00  0.00000E+00  9.000E+00
</event>
<event>
      5  10001  2.40292E+09  3.47062E+00 -1.00000E+00  2.78775E-01
      21    -1     0     0   514   512  0.000000000E+00  0.000000000E+00  1.078416953E+01  1.078416953E+01  0.000000000E+00  0.00000E+00  9.000E+00
      21    -1     0     0   516   514  0.000000000E+00  0.000000000E+00 -7.987549406E+01  7.987549406E+01  0.000000000E+00  0.00000E+00  9.000E+00
      21     1     1     2   513   512  1.115943001E+01 -9.445988696E+00  4.374130327E+00  1.526081901E+01  5.397430145E-07  0.00000E+00  9.000E+00
      21     1     1     2   516   511 -7.508720996E+00  7.875617944E+00 -6.645767174E+01  6.734261935E+01  0.000000000E+00  0.00000E+00  9.000E+00
      21     1     1     2   511   513 -3.650709016E+00  1.570370751E+00 -7.007783122E+00  8.056225227E+00  2.064765462E-07  0.00000E+00  9.000E+00
</event>
<event>
      5  10001  2.40292E+09  4.84761E+00 -1.00000E+00  2.45144E-01
      21    -1     0     0   515   514  0.000000000E+00  0.000000000E+00  1.830431501E+01  1.830431501E+01  0.000000000E+00  0.00000E+00  9.000E+00
      21    -1     0     0   512   513  0.000000000E+00  0.000000000E+00 -7.412785492E+01  7.412785492E+01  0.000000000E+00  0.00000E+00  9.000E+00
      21     1     1     2   515   513 -2.442029466E+00 -7.370516090E+00 -6.942810373E+01  6.986093045E+01  9.536743164E-07  0.00000E+00  9.000E+00
      21     1     1     2   512   516  5.490462746E+00  1.113965116E+01  6.631858959E+00  1.407901141E+01  1.460009660E-07  0.00000E+00  9.000E+00
      21     1     1     2   516   514 -3.048433280E+00 -3.769135067E+00  6.972704861E+00  8.492228076E+00  8.429369702E-08  0.00000E+00  9.000E+00
</event>
<event>
      5  10001  2.40292E+09  7.11132E+00 -1.00000E+00  2.14519E-01
      21    -1     0     0   511   512  0.000000000E+00  0.000000000E+00  1.582052659E+01  1.582052659E+01  0.000000000E+00  0.00000E+00  9.000E+00
      21    -1     0     0   513   511  0.000000000E+00  0.000000000E+00 -6.056643396E+02  6.056643396E+02  0.000000000E+00  0.00000E+00  9.000E+00
      21     1     1     2   514   517  1.083164360E+01  5.955422111E+00 -8.964762447E+01  9.049579067E+01  1.651812370E-06  0.00000E+00  9.000E+00
      21     1     1     2   517   512 -1.594461024E+01 -1.089794233E+01  9.305329998E+00  2.143793155E+01  5.196212463E-07  0.00000E+00  9.000E+00
      21     1     1     2   513   514  5.112966640E+00  4.942520215E+00 -5.095015186E+02  5.095511440E+02  1.078959322E-05  0.00000E+00  9.000E+00
</event>
<event>
      5  10001  2.40292E+09  9.52673E+00 -1.00000E+00  1.98163E-01
      21    -1     0     0   511   516  0.000000000E+00  0.000000000E+00  2.298274509E+02  2.298274509E+02  0.000000000E+00  0.00000E+00  9.000E+00
      21    -1     0     0   513   514  0.000000000E+00  0.000000000E+00 -1.848821707E+00  1.848821707E+00  0.000000000E+00  0.00000E+00  9.000E+00
      21     1     1     2   515   514  1.066846496E+01 -1.227081851E+01  1.144018772E+02  1.155516276E+02  2.697398305E-06  0.00000E+00  9.000E+00
      21     1     1     2   513   516 -3.136910890E+00  6.436920955E+00  1.112078739E+01  1.322671817E+01  6.078504936E-07  0.00000E+00  9.000E+00
      21     1     1     2   511   515 -7.531554068E+00  5.833897555E+00  1.024559646E+02  1.028979268E+02  1.348699152E-06  0.00000E+00  9.000E+00
</event>
<event>
      5  10001  2.40292E+09  1.22829E+01 -1.00000E+00  1.85918E-01
      21    -1     0     0   512   513  0.000000000E+00  0.000000000E+00  5.707426979E+00  5.707426979E+00  0.000000000E+00  0.00000E+00  9.000E+00
      21    -1     0     0   517   515  0.000000000E+00  0.000000000E+00 -2.915609345E+01  2.915609345E+01  0.000000000E+00  0.00000E+00  9.000E+00
      21     1     1     2   512   515 -6.602948320E+00  7.174639847E+00 -6.788669642E+00  1.188109502E+01  2.064765462E-07  0.00000E+00  9.000E+00
      21     1     1     2   514   513  1.698447970E-01 -7.564932658E+00 -3.516931540E+00  8.344211217E+00  2.269677253E-07  0.00000E+00  9.000E+00
      21     1     1     2   517   514  6.433103523E+00  3.902928112E-01 -1.314306529E+01  1.463821419E+01  2.920019320E-07  0.00000E+00  9.000E+00
</event>
<event>
      5  10001  2.40292E+09  8.83989E+00 -1.00000E+00  2.02096E-01
      -4    -1     0     0     0   511  0.000000000E+00  0.000000000E+00  1.716537038E+02  1.716537038E+02  0.000000000E+00  0.00000E+00  9.000E+00
      21    -1     0     0   512   515  0.000000000E+00  0.000000000E+00 -3.611889091E+00  3.611889091E+00  0.000000000E+00  0.00000E+00  9.000E+00
      -4     1     1     2     0   513 -1.690095107E+00  1.241036265E+01  1.430138540E+02  1.435690982E+02  1.500000000E+00  0.00000E+00  9.000E+00
      21     1     1     2   512   511 -5.787936521E+00 -7.712801773E+00  1.796091637E+01  2.038582932E+01  0.000000000E+00  0.00000E+00  9.000E+00
      21     1     1     2   513   515  7.478031627E+00 -4.697560881E+00  7.067044330E+00  1.131066536E+01  0.000000000E+00  0.00000E+00  9.000E+00
</event>
<event>
      5  10001  2.40292E+09  9.97807E+00 -1.00000E+00  1.95809E-01
      21    -1     0     0   514   512  0.000000000E+00  0.000000000E+00  2.286191071E+01  2.286191071E+01  0.000000000E+00  0.00000E+00  9.000E+00
      21    -1     0     0   513   516  0.000000000E+00  0.000000000E+00 -4.364692054E+01  4.364692054E+01  0.000000000E+00  0.00000E+00  9.000E+00
      21     1     1     2   514   516 -1.193474973E+01  9.166003216E-01  1.969085447E+01  2.304361423E+01  4.768371582E-07  0.00000E+00  9.000E+00
      21     1     1     2   513   511  4.194678758E+00  4.182455891E+00 -2.215500581E+01  2.293321935E+01  0.000000000E+00  0.00000E+00  9.000E+00
      21     1     1     2   511   512  7.740070969E+00 -5.099056213E+00 -1.832085849E+01  2.053199768E+01  4.129530925E-07  0.00000E+00  9.000E+00
</event>
<event>
      5  10001  2.40292E+09  5.67139E+00 -1.00000E+00  2.29258E-01
      21    -1     0     0   515   511  0.000000000E+00  0.000000000E+00  6.678604363E+01  6.678604363E+01  0.000000000E+00  0.00000E+00  9.000E+00
      21    -1     0     0   512   514  0.000000000E+00  0.000000000E+00 -1.522589381E+01  1.522589381E+01  0.000000000E+00  0.00000E+00  9.000E+00
      21     1     1     2   513   511 -5.822307514E+00 -1.377287325E+01  5.326328208E+01  5.532240523E+01  6.743495762E-07  0.00000E+00  9.000E+00
      21     1     1     2   512   513  1.726566770E+00  9.849919778E+00  9.713957898E+00  1.394141063E+01  3.953724850E-07  0.00000E+00  9.000E+00
      21     1     1     2   515   514  4.095740744E+00  3.922953474E+00 -1.141709016E+01  1.274812158E+01  2.384185791E-07  0.00000E+00  9.000E+00
</event>
<event>
      5  10001  2.40292E+09  4.61910E+00 -1.00000E+00  2.49467E-01
      21    -1     0     0   516   512  0.000000000E+00  0.000000000E+00  1.702982010E+01  1.702982010E+01  0.000000000E+00  0.00000E+00  9.000E+00
      21    -1     0     0   517   516  0.000000000E+00  0.000000000E+00 -6.843152095E+01  6.843152095E+01  0.000000000E+00  0.00000E+00  9.000E+00
      21     1     1     2   517   514  1.043638453E+01 -3.216714802E+00 -6.089250259E+01  6.186406265E+01  6.743495762E-07  0.00000E+00  9.000E+00
      21     1     1     2   514   511 -1.476300874E+01  1.599170792E+00  2.264816011E+00  1.502109070E+01  3.039252468E-07  0.00000E+00  9.000E+00
      21     1     1     2   511   512  4.326624210E+00  1.617544010E+00  7.225985726E+00  8.576187695E+00  0.000000000E+00  0.00000E+00  9.000E+00
</event>
<event>
      5  10001  2.40292E+09  1.22201E+01 -1.00000E+00  1.86149E-01
      21    -1     0     0   513   514  0.000000000E+00  0.000000000E+00  6.232806710E+01  6.232806710E+01  0.000000000E+00  0.00000E+00  9.000E+00
      21    -1     0     0   515   512  0.000000000E+00  0.000000000E+00 -2.011386079E+01  2.011386079E+01  0.000000000E+00  0.00000E+00  9.000E+00
      21     1     1     2   513   512 -1.397620963E+00 -1.956222612E+01 -1.265868050E+01  2.334258399E+01  5.331201500E-07  0.00000E+00  9.000E+00
      21     1     1     2   515   516 -3.203504212E+00  1.011008960E+01  1.950065326E+01  2.219801407E+01  3.371747881E-07  0.00000E+00  9.000E+00
      21     1     1     2   516   514  4.601125175E+00  9.452136522E+00  3.537223355E+01  3.690132984E+01  4.768371582E-07  0.00000E+00  9.000E+00
</event>
<event>
      5  10001  2.40292E+09  7.54735E+00 -1.00000E+00  2.10966E-01
      21    -1     0     0   511   512  0.000000000E+00  0.000000000E+00  4.677035380E+01  4.677035380E+01  0.000000000E+00  0.00000E+00  9.000E+00
      21    -1     0     0   517   514  0.000000000E+00  0.000000000E+00 -1.800761102E+02  1.800761102E+02  0.000000000E+00  0.00000E+00  9.000E+00
      21     1     1     2   511   514  2.613114343E+00  1.234550326E+01  4.562567210E+01  4.733858650E+01  6.743495762E-07  0.00000E+00  9.000E+00
      21     1     1     2   513   512 -1.848125706E+00 -8.932063925E+00 -8.063924937E+01  8.115347112E+01  0.000000000E+00  0.00000E+00  9.000E+00
      21     1     1     2   517   513 -7.649886372E-01 -3.413439336E+00 -9.829217910E+01  9.835440635E+01  0.000000000E+00  0.00000E+00  9.000E+00
</event>
<event>
      5  10001  2.40292E+09  6.83458E+00 -1.00000E+00  2.16960E-01
      21    -1     0     0   515   512  0.000000000E+00  0.000000000E+00  6.635957156E+01  6.635957156E+01  0.000000000E+00  0.00000E+00  9.000E+00
      21    -1     0     0   516   515  0.000000000E+00  0.000000000E+00 -2.816794483E+00  2.816794483E+00  0.000000000E+00  0.00000E+00  9.000E+00
      21     1     1     2   513   512 -4.051744459E+00  9.438329841E+00  4.353400319E+01  4.472927606E+01  6.743495762E-07  0.00000E+00  9.000E+00
      21     1     1     2   511   513 -9.846650576E-01 -8.315914123E+00  9.024412278E+00  1.231113358E+01  2.920019320E-07  0.00000E+00  9.000E+00
      21     1     1     2   516   511  5.036409517E+00 -1.122415718E+00  1.098436161E+01  1.213595641E+01  1.685873940E-07  0.00000E+00  9.000E+00
</event>
<event>
      5  10001  2.40292E+09  5.90025E+00 -1.00000E+00  2.26529E-01
      -1    -1     0     0     0   514  0.000000000E+00  0.000000000E+00  1.497359503E+02  1.497359503E+02  0.000000000E+00  0.00000E+00  9.000E+00
      21    -1     0     0   514   515  0.000000000E+00  0.000000000E+00 -9.062575972E-01  9.062575972E-01  0.000000000E+00  0.00000E+00  9.000E+00
      -1     1     1     2     0   513 -8.000808672E+00 -6.204385328E+00  8.660786694E+01  8.719827322E+01  3.300000131E-01  0.00000E+00  9.000E+00
      21     1     1     2   513   512  2.842457113E+00  6.418319685E+00  2.994005785E+01  3.075193415E+01  5.840038640E-07  0.00000E+00  9.000E+00
      21     1     1     2   512   515  5.158351559E+00 -2.139343561E-01  3.228176787E+01  3.269200048E+01  0.000000000E+00  0.00000E+00  9.000E+00
</event>
<event>
      5  10001  2.40292E+09  1.03094E+01 -1.00000E+00  1.94182E-01
      21    -1     0     0   511   513  0.000000000E+00  0.000000000E+00  1.387771082E+01  1.387771082E+01  0.000000000E+00  0.00000E+00  9.000E+00
      21    -1     0     0   514   511  0.000000000E+00  0.000000000E+00 -3.095404464E+01  3.095404464E+01  0.000000000E+00  0.00000E+00  9.000E+00
      21     1     1     2   514   515 -5.877481070E+00 -9.173386059E+00 -2.437475836E+01  2.669877601E+01  3.371747881E-07  0.00000E+00  9.000E+00
      21     1     1     2   515   516  6.938236639E+00  9.532117433E-01  6.905515368E+00  9.835338468E+00  1.460009660E-07  0.00000E+00  9.000E+00
      21     1     1     2   516   513 -1.060755569E+00  8.220174316E+00  3.929091665E-01  8.297640976E+00  2.181124861E-07  0.00000E+00  9.000E+00
</event>
<event>
      5  10001  2.40292E+09  6.17788E+00 -1.00000E+00  2.23442E-01
      21    -1     0     0   512   511  0.000000000E+00  0.000000000E+00  1.104024486E+01  1.104024486E+01  0.000000000E+00  0.00000E+00  9.000E+00
      21    -1     0     0   514   513  0.000000000E+00  0.000000000E+00 -3.931628087E+01  3.931628087E+01  0.000000000E+00  0.00000E+00  9.000E+00
      21     1     1     2   512   513 -1.008179649E+01 -5.505185427E+00 -5.687345124E+00  1.281778380E+01  2.920019320E-07  0.00000E+00  9.000E+00
      21     1     1     2   514   515  1.275576194E+01 -6.402441005E-02 -2.705779704E+01  2.991384199E+01  4.768371582E-07  0.00000E+00  9.000E+00
      21     1     1     2   515   511 -2.673965455E+00  5.569209837E+00  4.469106152E+00  7.624899951E+00  1.976862425E-07  0.00000E+00  9.000E+00
</event>
<event>
      5  10001  2.40292E+09  2.39087E+01 -1.00000E+00  1.60178E-01
      21    -1     0     0   515   511  0.000000000E+00  0.000000000E+00  9.983256858E+00  9.983256858E+00  0.000000000E+00  0.00000E+00  9.000E+00
      -3    -1     0     0     0   516  0.000000000E+00  0.000000000E+00 -5.007335573E+01  5.007335573E+01  0.000000000E+00  0.00000E+00  9.000E+00
      -3     1     1     2     0   512  1.317990197E+00 -6.935968803E+00 -1.031823733E+01  1.251242514E+01  5.000000000E-01  0.00000E+00  9.000E+00
      21     1     1     2   515   516 -1.126878122E+01  1.164889634E+01 -3.239714117E+01  3.622508761E+01  6.743495762E-07  0.00000E+00  9.000E+00
      21     1     1     2   512   511  9.950791023E+00 -4.712927535E+00  2.625279630E+00  1.131909983E+01  2.107342426E-07  0.00000E+00  9.000E+00
</event>
<event>
      5  10001  2.40292E+09  5.87624E+00 -1.00000E+00  2.26807E-01
      21    -1     0     0   515   516  0.000000000E+00  0.000000000E+00  1.965765693E+02  1.965765693E+02  0.000000000E+00  0.00000E+00  9.000E+00
      21    -1     0     0   511   513  0.000000000E+00  0.000000000E+00 -4.206217629E+00  4.206217629E+00  0.000000000E+00  0.00000E+00  9.000E+00
      21     1     1     2   514   516 -3.237273947E+00 -1.107552012E+01  1.257489133E+02  1.262772200E+02  1.907348633E-06  0.00000E+00  9.000E+00
      21     1     1     2   511   514  6.789755500E+00  6.394701573E+00  1.900808977E+00  9.518721696E+00  3.002500784E-07  0.00000E+00  9.000E+00
      21     1     1     2   515   513 -3.552481553E+00  4.680818549E+00  6.472062932E+01  6.498684518E+01  9.536743164E-07  0.00000E+00  9.000E+00
</event>
<event>
      5  10001  2.40292E+09  2.68640E+00 -1.00000E+00  3.12065E-01
      21    -1     0     0   512   514  0.000000000E+00  0.000000000E+00  2.162709814E+00  2.162709814E+00  0.000000000E+00  0.00000E+00  9.000E+00
      21    -1     0     0   514   513  0.000000000E+00  0.000000000E+00 -9.253627122E+01  9.253627122E+01  0.000000000E+00  0.00000E+00  9.000E+00
      -2     1     1     2     0   511 -4.818805984E+00  6.627068081E+00 -5.787768915E+01  5.845575014E+01  3.300000131E-01  0.00000E+00  9.000E+00
       2     1     1     2   512     0  3.851720139E+00 -9.416529240E+00 -1.293074195E+01  1.645660227E+01  3.300000131E-01  0.00000E+00  9.000E+00
      21     1     1     2   511   513  9.670858454E-01  2.789461158E+00 -1.956513030E+01  1.978662863E+01  3.371747881E-07  0.00000E+00  9.000E+00
</event>
<event>
      5  10001  2.40292E+09  2.04158E+01 -1.00000E+00  1.65594E-01
      21    -1     0     0   515   514  0.000000000E+00  0.000000000E+00  2.464671570E+00  2.464671570E+00  0.000000000E+00  0.00000E+00  9.000E+00
       4    -1     0     0   511     0  0.000000000E+00  0.000000000E+00 -1.364995443E+02  1.364995443E+02  0.000000000E+00  0.00000E+00  9.000E+00
      21     1     1     2   511   514  1.054515897E+01 -7.843112581E+00 -4.469211318E+01  4.658432969E+01  6.743495762E-07  0.00000E+00  9.000E+00
      21     1     1     2   515   512 -1.263518552E+00  8.428579624E+00 -1.357436190E+01  1.602812324E+01  2.384185791E-07  0.00000E+00  9.000E+00
       4     1     1     2   512     0 -9.281640421E+00 -5.854670429E-01 -7.576839768E+01  7.635176296E+01  1.500000000E+00  0.00000E+00  9.000E+00
</event>
<event>
      5  10001  2.40292E+09  5.63550E+00 -1.00000E+00  2.29702E-01
      21    -1     0     0   513   514  0.000000000E+00  0.000000000E+00  5.794750750E+00  5.794750750E+00  0.000000000E+00  0.00000E+00  9.000E+00
      21    -1     0     0   516   513  0.000000000E+00  0.000000000E+00 -1.165340911E+02  1.165340911E+02  0.000000000E+00  0.00000E+00  9.000E+00
      21     1     1     2   517   511 -8.737727062E+00  5.560335249E+00 -7.050728419E+00  1.252908510E+01  6.194296387E-07  0.00000E+00  9.000E+00
      21     1     1     2   516   517  1.104685493E+01 -4.196381477E-01 -1.035748251E+02  1.041631101E+02  1.907348633E-06  0.00000E+00  9.000E+00
      21     1     1     2   511   514 -2.309127866E+00 -5.140697102E+00 -1.137867958E-01  5.636646665E+00  7.430763638E-08  0.00000E+00  9.000E+00
</event>
<event>
      5  10001  2.40292E+09  5.39385E+00 -1.00000E+00  2.32820E-01
      21    -1     0     0   512   511  0.000000000E+00  0.000000000E+00  9.681816398E+01  9.681816398E+01  0.000000000E+00  0.00000E+00  9.000E+00
      21    -1     0     0   514   512  0.000000000E+00  0.000000000E+00 -3.491380872E+00  3.491380872E+00  0.000000000E+00  0.00000E+00  9.000E+00
      21     1     1     2   514   515  1.113979505E+01 -2.013359238E+00  8.113653312E+00  1.392767099E+01  0.000000000E+00  0.00000E+00  9.000E+00
      21     1     1     2   513   511 -7.138909664E+00 -1.538539030E+00  6.706899717E+01  6.746540976E+01  9.536743164E-07  0.00000E+00  9.000E+00
      21     1     1     2   515   513 -4.000885384E+00  3.551898268E+00  1.814413263E+01  1.891646410E+01  0.000000000E+00  0.00000E+00  9.000E+00
</event>
<event>
      5  10001  2.40292E+09  6.89076E+00 -1.00000E+00  2.16452E-01
      21    -1     0     0   513   511  0.000000000E+00  0.000000000E+00  1.578155051E+02  1.578155051E+02  0.000000000E+00  0.00000E+00  9.000E+00
      21    -1     0     0   516   512  0.000000000E+00  0.000000000E+00 -6.581731519E+00  6.581731519E+00  0.000000000E+00  0.00000E+00  9.000E+00
      21     1     1     2   513   512 -2.388139877E-01  1.783185086E+01  2.283209610E+01  2.897130562E+01  4.768371582E-07  0.00000E+00  9.000E+00
       5     1     1     2   516     0 -5.573053014E+00 -1.434597030E+01  1.598527809E+01  2.270319143E+01  4.800000191E+00  0.00000E+00  9.000E+00
      -5     1     1     2     0   511  5.811867001E+00 -3.485880556E+00  1.124163994E+02  1.127227395E+02  4.800000191E+00  0.00000E+00  9.000E+00
</event>
<event>
      5  10001  2.40292E+09  5.24289E+00 -1.00000E+00  2.34887E-01
       2    -1     0     0   512     0  0.000000000E+00  0.000000000E+00  1.080153482E+03  1.080153482E+03  0.000000000E+00  0.00000E+00  9.000E+00
      21    -1     0     0   513   512  0.000000000E+00  0.000000000E+00 -1.301176576E+01  1.301176576E+01  0.000000000E+00  0.00000E+00  9.000E+00
      21     1     1     2   515   514  1.130332026E+00 -1.004483932E+01  2.099446611E+01  2.330115994E+01  2.870939870E-06  0.00000E+00  9.000E+00
       2     1     1     2   514     0 -3.615422637E+00  1.466134592E+01  1.057369585E+03  1.057477458E+03  3.300000131E-01  0.00000E+00  9.000E+00
      21     1     1     2   513   515  2.485090611E+00 -4.616506600E+00 -1.122233457E+01  1.238662996E+01  7.444617746E-07  0.00000E+00  9.000E+00
</event>
<event>
      5  10001  2.40292E+09  1.29088E+01 -1.00000E+00  1.83704E-01
      21    -1     0     0   511   514  0.000000000E+00  0.000000000E+00  1.753011771E+02  1.753011771E+02  0.000000000E+00  0.00000E+00  9.000E+00
      21    -1     0     0   513   512  0.000000000E+00  0.000000000E+00 -1.335128338E+01  1.335128338E+01  0.000000000E+00  0.00000E+00  9.000E+00
      21     1     1     2   511   515  1.678927448E-01 -7.973005550E+00  1.572848510E+02  1.574868927E+02  2.697398305E-06  0.00000E+00  9.000E+00
      21     1     1     2   513   514 -1.191814170E+01  1.331797342E+01  3.425685597E+00  1.819741299E+01  9.137219022E-07  0.00000E+00  9.000E+00
      21     1     1     2   515   512  1.175024895E+01 -5.344967873E+00  1.239357058E+00  1.296815476E+01  9.771344847E-08  0.00000E+00  9.000E+00
</event>
<event>
      5  10001  2.40292E+09  8.15934E+00 -1.00000E+00  2.06492E-01
       1    -1     0     0   513     0  0.000000000E+00  0.000000000E+00  1.228044003E+02  1.228044003E+02  0.000000000E+00  0.00000E+00  9.000E+00
      21    -1     0     0   516   511  0.000000000E+00  0.000000000E+00 -2.381117873E+01  2.381117873E+01  0.000000000E+00  0.00000E+00  9.000E+00
      21     1     1     2   513   512  2.447464297E+00 -1.451524593E+01 -3.770251731E+00  1.519530335E+01  3.885747436E-07  0.00000E+00  9.000E+00
       1     1     1     2   516     0 -6.963898327E+00  7.720006919E+00  1.156777019E+02  1.161444532E+02  3.300000131E-01  0.00000E+00  9.000E+00
      21     1     1     2   512   511  4.516434030E+00  6.795239007E+00 -1.291422866E+01  1.527582244E+01  1.685873940E-07  0.00000E+00  9.000E+00
</event>
<event>
      5  10001  2.40292E+09  6.68460E+00 -1.00000E+00  2.18350E-01
      21    -1     0     0   514   511  0.000000000E+00  0.000000000E+00  1.676657672E+01  1.676657672E+01  0.000000000E+00  0.00000E+00  9.000E+00
      21    -1     0     0   512   515  0.000000000E+00  0.000000000E+00 -2.510056850E+01  2.510056850E+01  0.000000000E+00  0.00000E+00  9.000E+00
      21     1     1     2   514   515  1.847639206E+01  1.916708753E+00  3.476538664E+00  1.889807284E+01  4.480271452E-07  0.00000E+00  9.000E+00
      21     1     1     2   512   513 -9.892349222E+00  1.915885203E+00 -4.383142079E+00  1.098822660E+01  2.598106231E-07  0.00000E+00  9.000E+00
      21     1     1     2   513   511 -8.584042836E+00 -3.832593956E+00 -7.427388367E+00  1.198084579E+01  8.429369702E-08  0.00000E+00  9.000E+00
</event>
<event>
      5  10001  2.40292E+09  4.40109E+00 -1.00000E+00  2.53960E-01
       3    -1     0     0   512     0  0.000000000E+00  0.000000000E+00  6.227641074E+00  6.227641074E+00  0.000000000E+00  0.00000E+00  9.000E+00
       1    -1     0     0   513     0  0.000000000E+00  0.000000000E+00 -1.049744147E+03  1.049744147E+03  0.000000000E+00  0.00000E+00  9.000E+00
      21     1     1     2   512   516 -4.264700280E+00 -1.166161431E+01 -9.832511322E+01  9.910604829E+01  0.000000000E+00  0.00000E+00  9.000E+00
       3     1     1     2   513     0  1.050679175E+00  8.655106155E+00  2.562817419E+00  9.101253892E+00  5.000000000E-01  0.00000E+00  9.000E+00
       1     1     1     2   516     0  3.214021104E+00  3.006508152E+00 -9.477542100E+02  9.477644858E+02  3.300000131E-01  0.00000E+00  9.000E+00
</event>
<event>
      5  10001  2.40292E+09  6.88618E+00 -1.00000E+00  2.16493E-01
      21    -1     0     0   511   513  0.000000000E+00  0.000000000E+00  1.436298337E+01  1.436298337E+01  0.000000000E+00  0.00000E+00  9.000E+00
      21    -1     0     0   515   514  0.000000000E+00  0.000000000E+00 -1.210032793E+02  1.210032793E+02  0.000000000E+00  0.00000E+00  9.000E+00
      21     1     1     2   511   514 -3.719244655E+00 -9.608980367E+00 -1.184106852E+02  1.188581325E+02  1.348699152E-06  0.00000E+00  9.000E+00
      21     1     1     2   512   513  2.338916720E+00  5.797034798E+00  3.189605840E+00  7.017815136E+00  4.214684851E-08  0.00000E+00  9.000E+00
      21     1     1     2   515   512  1.380327935E+00  3.811945569E+00  8.580783474E+00  9.490315024E+00  5.591411304E-07  0.00000E+00  9.000E+00
</event>
<event>
      5  10001  2.40292E+09  2.86406E+01 -1.00000E+00  1.54416E-01
      21    -1     0     0   516   512  0.000000000E+00  0.000000000E+00  4.189342606E+01  4.189342606E+01  0.000000000E+00  0.00000E+00  9.000E+00
      21    -1     0     0   515   517  0.000000000E+00  0.000000000E+00 -4.024047797E+01  4.024047797E+01  0.000000000E+00  0.00000E+00  9.000E+00
      21     1     1     2   516   517 -2.674147590E+01 -8.393151910E+00  2.447468123E+01  3.720969704E+01  0.000000000E+00  0.00000E+00  9.000E+00
      21     1     1     2   511   512  1.877539437E+01  9.570902406E+00 -3.757448573E-01  2.107744745E+01  1.227651317E-07  0.00000E+00  9.000E+00
      21     1     1     2   515   511  7.966081529E+00 -1.177750496E+00 -2.244598828E+01  2.384675955E+01  2.384185791E-07  0.00000E+00  9.000E+00
</event>
<event>
      5  10001  2.40292E+09  4.85235E+00 -1.00000E+00  2.45058E-01
      21    -1     0     0   513   514  0.000000000E+00  0.000000000E+00  5.481897056E+02  5.481897056E+02  0.000000000E+00  0.00000E+00  9.000E+00
      -1    -1     0     0     0   513  0.000000000E+00  0.000000000E+00 -5.572748966E+00  5.572748966E+00  0.000000000E+00  0.00000E+00  9.000E+00
      -1     1     1     2     0   512  1.024339049E+01 -1.272146020E+01  7.015062140E+00  1.777871186E+01  3.300000131E-01  0.00000E+00  9.000E+00
      -5     1     1     2     0   514 -1.212735687E+00  2.350651420E+00  1.165234236E+02  1.166522376E+02  4.800000191E+00  0.00000E+00  9.000E+00
       5     1     1     2   512     0 -9.030654806E+00  1.037080878E+01  4.190784708E+02  4.193315050E+02  4.800000191E+00  0.00000E+00  9.000E+00
</event>
<event>
      5  10001  2.40292E+09  4.54935E+00 -1.00000E+00  2.50863E-01
       2    -1     0     0   512     0  0.000000000E+00  0.000000000E+00  1.392883966E+03  1.392883966E+03  0.000000000E+00  0.00000E+00  9.000E+00
      21    -1     0     0   511   513  0.000000000E+00  0.000000000E+00 -1.387590688E-01  1.387590688E-01  0.000000000E+00  0.00000E+00  9.000E+00
      21     1     1     2   512   513 -4.036478016E+00  1.016782255E+01  2.796853414E+02  2.798992104E+02  5.394796609E-06  0.00000E+00  9.000E+00
       2     1     1     2   514     0  3.296594927E+00 -3.732248708E+00  6.374458672E+02  6.374654027E+02  3.300000131E-01  0.00000E+00  9.000E+00
      21     1     1     2   511   514  7.398830887E-01 -6.435573838E+00  4.756139983E+02  4.756581119E+02  5.394796609E-06  0.00000E+00  9.000E+00
</event>
<event>
      5  10001  2.40292E+09  1.33969E+01 -1.00000E+00  1.82086E-01
      21    -1     0     0   515   513  0.000000000E+00  0.000000000E+00  6.767323782E+00  6.767323782E+00  0.000000000E+00  0.00000E+00  9.000E+00
      21    -1     0     0   511   516  0.000000000E+00  0.000000000E+00 -3.179282501E+01  3.179282501E+01  0.000000000E+00  0.00000E+00  9.000E+00
      21     1     1     2   515   516 -1.187392842E+01 -1.240747388E+00 -1.639892171E+01  2.028433543E+01  2.384185791E-07  0.00000E+00  9.000E+00
      21     1     1     2   512   513  3.505229878E+00  5.532552039E+00 -4.809484013E+00  8.125694126E+00  1.032382731E-07  0.00000E+00  9.000E+00
      21     1     1     2   511   512  8.368698544E+00 -4.291804652E+00 -3.817095496E+00  1.015011924E+01  5.960464478E-08  0.00000E+00  9.000E+00
</event>
<event>
      5  10001  2.40292E+09  3.24234E+00 -1.00000E+00  2.86863E-01
       2    -1     0     0   511     0  0.000000000E+00  0.000000000E+00  5.200398240E+02  5.200398240E+02  0.000000000E+00  0.00000E+00  9.000E+00
      -2    -1     0     0     0   512  0.000000000E+00  0.000000000E+00 -5.943545288E+00  5.943545288E+00  0.000000000E+00  0.00000E+00  9.000E+00
      21     1     1     2   511   512 -8.763512044E-01 -1.162289949E+01  1.870757902E+02  1.874385528E+02  4.672030912E-06  0.00000E+00  9.000E+00
       2     1     1     2   514     0  3.406499401E+00  9.595423973E+00  3.322374285E+02  3.323935833E+02  3.300000131E-01  0.00000E+00  9.000E+00
      -2     1     1     2     0   514 -2.530148197E+00  2.027475517E+00 -5.216940026E+00  6.151233219E+00  3.300000131E-01  0.00000E+00  9.000E+00
</event>
<event>
      5  10001  2.40292E+09  1.59608E+01 -1.00000E+00  1.74834E-01
      21    -1     0     0   513   512  0.000000000E+00  0.000000000E+00  3.926018023E+01  3.926018023E+01  0.000000000E+00  0.00000E+00  9.000E+00
      21    -1     0     0   516   515  0.000000000E+00  0.000000000E+00 -3.167808042E+00  3.167808042E+00  0.000000000E+00  0.00000E+00  9.000E+00
      21     1     1     2   513   515 -1.249566315E+00  4.510052816E+00  9.723543894E+00  1.079116760E+01  1.685873940E-07  0.00000E+00  9.000E+00
      21     1     1     2   511   512  1.832131268E+00 -1.834671763E+00 -1.913379436E+00  3.222382089E+00  1.908279728E-07  0.00000E+00  9.000E+00
      21     1     1     2   516   511 -5.825649530E-01 -2.675381052E+00  2.828220773E+01  2.841443858E+01  4.768371582E-07  0.00000E+00  9.000E+00
</event>
<event>
      5  10001  2.40292E+09  3.12443E+00 -1.00000E+00  2.91479E-01
      21    -1     0     0   514   511  0.000000000E+00  0.000000000E+00  3.057985731E+01  3.057985731E+01  0.000000000E+00  0.00000E+00  9.000E+00
      21    -1     0     0   512   517  0.000000000E+00  0.000000000E+00 -4.208977753E+01  4.208977753E+01  0.000000000E+00  0.00000E+00  9.000E+00
      21     1     1     2   514   517 -1.193402650E+01  5.245447391E+00  2.734856299E+01  3.029652792E+01  6.743495762E-07  0.00000E+00  9.000E+00
      21     1     1     2   516   511  1.050319273E+01 -8.022997743E+00 -3.497369113E+01  3.738776032E+01  6.743495762E-07  0.00000E+00  9.000E+00
      21     1     1     2   512   516  1.430833763E+00  2.777550352E+00 -3.884792077E+00  4.985346597E+00  5.960464478E-08  0.00000E+00  9.000E+00
</event>
<event>
      5  10001  2.40292E+09  3.93690E+00 -1.00000E+00  2.64998E-01
      21    -1     0     0   513   516  0.000000000E+00  0.000000000E+00  8.825128932E+00  8.825128932E+00  0.000000000E+00  0.00000E+00  9.000E+00
      21    -1     0     0   512   515  0.000000000E+00  0.000000000E+00 -7.310278342E+01  7.310278342E+01  0.000000000E+00  0.00000E+00  9.000E+00
      21     1     1     2   513   515 -1.413712612E+01  3.713649924E+00 -6.461372527E+01  6.624638121E+01  9.536743164E-07  0.00000E+00  9.000E+00
      21     1     1     2   511   516  9.106761125E+00 -8.925676168E-02  1.863943057E+00  9.295985622E+00  2.259872986E-07  0.00000E+00  9.000E+00
      21     1     1     2   512   511  5.030364998E+00 -3.624393162E+00 -1.527872273E+00  6.385545512E+00  1.444721179E-07  0.00000E+00  9.000E+00
</event>
<event>
      5  10001  2.40292E+09  9.34950E+00 -1.00000E+00  1.99135E-01
      21    -1     0     0   514   511  0.000000000E+00  0.000000000E+00  5.424648978E+00  5.424648978E+00  0.000000000E+00  0.00000E+00  9.000E+00
       1    -1     0     0   512     0  0.000000000E+00  0.000000000E+00 -2.078990902E+02  2.078990902E+02  0.000000000E+00  0.00000E+00  9.000E+00
      21     1     1     2   514   517 -2.396193386E+01  6.936535338E+00 -1.329810402E+02  1.353005797E+02  1.907348633E-06  0.00000E+00  9.000E+00
      21     1     1     2   512   511  1.676500978E+01 -9.695487547E-01 -1.434161680E+01  2.208364893E+01  3.769728732E-07  0.00000E+00  9.000E+00
       1     1     1     2   517     0  7.196924085E+00 -5.966986584E+00 -5.515178419E+01  5.593951059E+01  3.300000131E-01  0.00000E+00  9.000E+00
</event>
<event>
      5  10001  2.40292E+09  2.61957E+00 -1.00000E+00  3.15804E-01
      21    -1     0     0   511   512  0.000000000E+00  0.000000000E+00  1.829413115E+01  1.829413115E+01  0.000000000E+00  0.00000E+00  9.000E+00
      21    -1     0     0   516   515  0.000000000E+00  0.000000000E+00 -2.329875494E+01  2.329875494E+01  0.000000000E+00  0.00000E+00  9.000E+00
      21     1     1     2   513   515 -7.100494073E+00  8.245494359E+00  1.259252580E+01  1.664262297E+01  5.057621821E-07  0.00000E+00  9.000E+00
      21     1     1     2   516   512  5.017303961E+00 -9.833721336E+00 -1.900320258E+01  2.197719552E+01  5.840038640E-07  0.00000E+00  9.000E+00
      21     1     1     2   511   513  2.083190112E+00  1.588226977E+00  1.406052994E+00  2.973067607E+00  6.989264130E-08  0.00000E+00  9.000E+00
</event>
<event>
      5  10001  2.40292E+09  5.47341E+00 -1.00000E+00  2.31768E-01
      21    -1     0     0   513   514  0.000000000E+00  0.000000000E+00  1.082637261E+01  1.082637261E+01  0.000000000E+00  0.00000E+00  9.000E+00
      21    -1     0     0   512   513  0.000000000E+00  0.000000000E+00 -4.667206070E+01  4.667206070E+01  0.000000000E+00  0.00000E+00  9.000E+00
      -5     1     1     2     0   511 -7.746462891E-01 -9.116156270E+00 -3.939027156E+00  1.105713882E+01  4.800000191E+00  0.00000E+00  9.000E+00
      21     1     1     2   511   514  3.111326146E+00  1.381802092E+01 -4.297269346E-01  1.417048756E+01  1.736960296E-07  0.00000E+00  9.000E+00
       5     1     1     2   512     0 -2.336679857E+00 -4.701864648E+00 -3.147693401E+01  3.227080693E+01  4.800000191E+00  0.00000E+00  9.000E+00
</event>
<event>
      5  10001  2.40292E+09  3.09979E+01 -1.00000E+00  1.52025E-01
      21    -1     0     0   515   511  0.000000000E+00  0.000000000E+00  3.492017543E+01  3.492017543E+01  0.000000000E+00  0.00000E+00  9.000E+00
      21    -1     0     0   512   516  0.000000000E+00  0.000000000E+00 -8.547621064E+00  8.547621064E+00  0.000000000E+00  0.00000E+00  9.000E+00
      21     1     1     2   515   516 -3.386202464E+00  3.962056349E+00  1.133164112E+01  1.247278429E+01  2.384185791E-07  0.00000E+00  9.000E+00
      21     1     1     2   513   511  8.209963019E-01 -4.066832389E+00  2.261770075E+01  2.299507660E+01  0.000000000E+00  0.00000E+00  9.000E+00
      21     1     1     2   512   513  2.565206162E+00  1.047760400E-01 -7.576787505E+00  7.999935597E+00  2.230201594E-07  0.00000E+00  9.000E+00
</event>
<event>
      5  10001  2.40292E+09  2.08612E+01 -1.00000E+00  1.64831E-01
      21    -1     0     0   512   511  0.000000000E+00  0.000000000E+00  1.493691702E+02  1.493691702E+02  0.000000000E+00  0.00000E+00  9.000E+00
       2    -1     0     0   513     0  0.000000000E+00  0.000000000E+00 -1.206176250E+00  1.206176250E+00  0.000000000E+00  0.00000E+00  9.000E+00
      21     1     1     2   513   511 -6.599264778E+00 -3.867031200E+00  2.012992601E+01  2.153411588E+01  4.129530925E-07  0.00000E+00  9.000E+00
       2     1     1     2   514     0 -3.594298055E+00  4.039993078E+00  3.056322022E+01  3.103964969E+01  3.300000131E-01  0.00000E+00  9.000E+00
      21     1     1     2   512   514  1.019356283E+01 -1.729618778E-01  9.746984767E+01  9.800158083E+01  1.348699152E-06  0.00000E+00  9.000E+00
</event>
<event>
      5  10001  2.40292E+09  7.94038E+00 -1.00000E+00  2.08030E-01
      21    -1     0     0   515   513  0.000000000E+00  0.000000000E+00  7.394323633E+00  7.394323633E+00  0.000000000E+00  0.00000E+00  9.000E+00
      21    -1     0     0   511   516  0.000000000E+00  0.000000000E+00 -2.082850751E+01  2.082850751E+01  0.000000000E+00  0.00000E+00  9.000E+00
      21     1     1     2   515   516  3.023115989E+00  8.045039326E+00 -5.243727391E-01  8.610276117E+00  2.303663616E-07  0.00000E+00  9.000E+00
       5     1     1     2   511     0 -2.304879024E+00 -2.540868162E+00 -1.021238969E+01  1.179412495E+01  4.800000191E+00  0.00000E+00  9.000E+00
      -5     1     1     2     0   513 -7.182369648E-01 -5.504171165E+00 -2.697421446E+00  7.818430075E+00  4.800000191E+00  0.00000E+00  9.000E+00
</event>
<event>
      5  10001  2.40292E+09  7.41437E+00 -1.00000E+00  2.12014E-01
      21    -1     0     0   512   514  0.000000000E+00  0.000000000E+00  9.029390247E+00  9.029390247E+00  0.000000000E+00  0.00000E+00  9.000E+00
      21    -1     0     0   513   512  0.000000000E+00  0.000000000E+00 -9.825869836E+01  9.825869836E+01  0.000000000E+00  0.00000E+00  9.000E+00
      21     1     1     2   511   514 -7.012625400E+00 -1.263730663E+01  2.113804840E+00  1.460638918E+01  3.710359215E-07  0.00000E+00  9.000E+00
      21     1     1     2   513   515  4.979548211E+00  6.638064140E+00 -3.437095153E+01  3.535847996E+01  0.000000000E+00  0.00000E+00  9.000E+00
      21     1     1     2   515   511  2.033077190E+00  5.999242490E+00 -5.697216142E+01  5.732321946E+01  0.000000000E+00  0.00000E+00  9.000E+00
</event>
<event>
      5  10001  2.40292E+09  5.59784E+00 -1.00000E+00  2.30173E-01
      -3    -1     0     0     0   511  0.000000000E+00  0.000000000E+00  3.356798701E+00  3.356798701E+00  0.000000000E+00  0.00000E+00  9.000E+00
      21    -1     0     0   515   512  0.000000000E+00  0.000000000E+00 -7.457234318E+01  7.457234318E+01  0.000000000E+00  0.00000E+00  9.000E+00
      -3     1     1     2     0   512  3.841187478E+00 -9.533520898E+00 -7.485196406E+00  1.272481462E+01  5.000000000E-01  0.00000E+00  9.000E+00
       2     1     1     2   515     0 -1.603282908E-01  6.700363222E+00 -5.401951788E+01  5.443471121E+01  3.300000131E-01  0.00000E+00  9.000E+00
      -2     1     1     2     0   511 -3.680859187E+00  2.833157677E+00 -9.710830191E+00  1.076961605E+01  3.300000131E-01  0.00000E+00  9.000E+00
</event>
<event>
      5  10001  2.40292E+09  1.52729E+01 -1.00000E+00  1.76602E-01
      21    -1     0     0   514   511  0.000000000E+00  0.000000000E+00  3.196851484E+01  3.196851484E+01  0.000000000E+00  0.00000E+00  9.000E+00
       2    -1     0     0   511     0  0.000000000E+00  0.000000000E+00 -8.354674236E+00  8.354674236E+00  0.000000000E+00  0.00000E+00  9.000E+00
      21     1     1     2   514   512  4.192122345E+00  4.117227226E+00  1.538478723E+00  6.073908672E+00  1.548574097E-07  0.00000E+00  9.000E+00
       2     1     1     2   513     0 -5.058691781E-01 -1.416926997E+01  7.154645016E+00  1.588464543E+01  3.300000131E-01  0.00000E+00  9.000E+00
      21     1     1     2   512   513 -3.686253167E+00  1.005204275E+01  1.492071687E+01  1.836463497E+01  2.384185791E-07  0.00000E+00  9.000E+00
</event>
<event>
      5  10001  2.40292E+09  6.09073E+00 -1.00000E+00  2.24387E-01
      21    -1     0     0   515   512  0.000000000E+00  0.000000000E+00  1.841698248E+01  1.841698248E+01  0.000000000E+00  0.00000E+00  9.000E+00
      21    -1     0     0   511   516  0.000000000E+00  0.000000000E+00 -8.928736415E+01  8.928736415E+01  0.000000000E+00  0.00000E+00  9.000E+00
      21     1     1     2   515   516 -3.952216266E+00  1.077719587E+01 -8.586723270E+01  8.663111229E+01  0.000000000E+00  0.00000E+00  9.000E+00
      21     1     1     2   514   512  4.500568832E+00 -3.882751188E+00  1.227927327E+01  1.364226626E+01  7.348554138E-07  0.00000E+00  9.000E+00
      21     1     1     2   511   514 -5.483525651E-01 -6.894444677E+00  2.717577759E+00  7.430968094E+00  1.576990671E-07  0.00000E+00  9.000E+00
</event>
<event>
      5  10001  2.40292E+09  4.64011E+00 -1.00000E+00  2.49054E-01
      21    -1     0     0   513   514  0.000000000E+00  0.000000000E+00  2.939692183E+00  2.939692183E+00  0.000000000E+00  0.00000E+00  9.000E+00
      21    -1     0     0   511   517  0.000000000E+00  0.000000000E+00 -1.111556220E+02  1.111556220E+02  0.000000000E+00  0.00000E+00  9.000E+00
      21     1     1     2   513   517  3.643263485E+00  1.177215128E+01 -9.511187430E+01  9.590685871E+01  0.000000000E+00  0.00000E+00  9.000E+00
      21     1     1     2   512   514 -5.147431139E-01 -3.767285320E+00 -5.658656539E+00  6.817462356E+00  8.429369702E-08  0.00000E+00  9.000E+00
      21     1     1     2   511   512 -3.128520371E+00 -8.004865956E+00 -7.445398995E+00  1.137099314E+01  3.862822472E-07  0.00000E+00  9.000E+00
</event>
<event>
      5  10001  2.40292E+09  1.53264E+01 -1.00000E+00  1.76460E-01
      21    -1     0     0   514   511  0.000000000E+00  0.000000000E+00  4.314390292E+01  4.314390292E+01  0.000000000E+00  0.00000E+00  9.000E+00
      -1    -1     0     0     0   515  0.000000000E+00  0.000000000E+00 -6.099333007E+01  6.099333007E+01  0.000000000E+00  0.00000E+00  9.000E+00
      -1     1     1     2     0   513  9.728861084E+00 -5.903900754E+00 -5.165096338E+01  5.289080922E+01  3.300000131E-01  0.00000E+00  9.000E+00
      21     1     1     2   513   511  2.554995510E+00  1.506901633E+01  3.243953714E+01  3.585982188E+01  9.536743164E-07  0.00000E+00  9.000E+00
      21     1     1     2   514   515 -1.228385659E+01 -9.165115576E+00  1.361999088E+00  1.538660189E+01  2.580956828E-08  0.00000E+00  9.000E+00
</event>
<event>
      5  10001  2.40292E+09  2.96427E+00 -1.00000E+00  2.98315E-01
      21    -1     0     0   512   511  0.000000000E+00  0.000000000E+00  1.596327185E+01  1.596327185E+01  0.000000000E+00  0.00000E+00  9.000E+00
      21    -1     0     0   516   512  0.000000000E+00  0.000000000E+00 -3.150583855E+01  3.150583855E+01  0.000000000E+00  0.00000E+00  9.000E+00
      21     1     1     2   516   515  1.301259412E-01  1.233747023E+01 -2.663624045E+01  2.935505765E+01  0.000000000E+00  0.00000E+00  9.000E+00
      21     1     1     2   515   513  2.509821202E+00 -1.098930195E+01  7.953226917E+00  1.379557097E+01  4.693274423E-07  0.00000E+00  9.000E+00
      21     1     1     2   513   511 -2.639947143E+00 -1.348168275E+00  3.140446831E+00  4.318481784E+00  7.300048300E-08  0.00000E+00  9.000E+00
</event>
<event>
      5  10001  2.40292E+09  4.32584E+00 -1.00000E+00  2.55604E-01
       2    -1     0     0   512     0  0.000000000E+00  0.000000000E+00  3.341161333E+02  3.341161333E+02  0.000000000E+00  0.00000E+00  9.000E+00
      21    -1     0     0   515   512  0.000000000E+00  0.000000000E+00 -1.356420768E+02  1.356420768E+02  0.000000000E+00  0.00000E+00  9.000E+00
      21     1     1     2   514   513 -1.143502799E+00  1.114211086E+01  3.428397871E+00  1.171358805E+01  6.307962682E-07  0.00000E+00  9.000E+00
       2     1     1     2   513     0  5.208679172E+00 -9.663184677E+00  3.264171865E+02  3.266018922E+02  3.300000131E-01  0.00000E+00  9.000E+00
      21     1     1     2   515   514 -4.065176373E+00 -1.478926184E+00 -1.313715279E+02  1.314427298E+02  1.907348633E-06  0.00000E+00  9.000E+00
</event>
<event>
      5  10001  2.40292E+09  9.31329E+00 -1.00000E+00  1.99337E-01
       2    -1     0     0   516     0  0.000000000E+00  0.000000000E+00  1.678345994E+02  1.678345994E+02  0.000000000E+00  0.00000E+00  9.000E+00
      21    -1     0     0   511   512  0.000000000E+00  0.000000000E+00 -5.410239534E+01  5.410239534E+01  0.000000000E+00  0.00000E+00  9.000E+00
      21     1     1     2   513   512 -1.003684522E+01 -1.054688962E+01 -5.086943209E+01  5.291194822E+01  0.000000000E+00  0.00000E+00  9.000E+00
       2     1     1     2   511     0  2.992151458E+00  1.663848512E+01  3.286446030E+01  3.695908289E+01  3.300000131E-01  0.00000E+00  9.000E+00
      21     1     1     2   516   513  7.044693760E+00 -6.091595505E+00  1.317371759E+02  1.320659636E+02  2.697398305E-06  0.00000E+00  9.000E+00
</event>
<event>
      5  10001  2.40292E+09  8.21531E+00 -1.00000E+00  2.06109E-01
      21    -1     0     0   514   511  0.000000000E+00  0.000000000E+00  7.142013470E+01  7.142013470E+01  0.000000000E+00  0.00000E+00  9.000E+00
      21    -1     0     0   515   512  0.000000000E+00  0.000000000E+00 -7.504909522E+00  7.504909522E+00  0.000000000E+00  0.00000E+00  9.000E+00
      21     1     1     2   514   513  2.929726912E+00  1.342255034E+01  3.204962193E+01  3.487013655E+01  4.768371582E-07  0.00000E+00  9.000E+00
      21     1     1     2   515   511 -4.816512178E-01 -2.126463677E+01  2.745558753E+01  3.473076520E+01  4.768371582E-07  0.00000E+00  9.000E+00
      21     1     1     2   513   512 -2.448075694E+00  7.842086430E+00  4.410015725E+00  9.324142474E+00  8.429369702E-08  0.00000E+00  9.000E+00
</event>
<event>
      5  10001  2.40292E+09  9.03627E+00 -1.00000E+00  2.00925E-01
      21    -1     0     0   516   512  0.000000000E+00  0.000000000E+00  1.289021863E+02  1.289021863E+02  0.000000000E+00  0.00000E+00  9.000E+00
      21    -1     0     0   513   517  0.000000000E+00  0.000000000E+00 -2.044555483E+00  2.044555483E+00  0.000000000E+00  0.00000E+00  9.000E+00
      21     1     1     2   516   517 -2.030853937E+00  1.298120731E+01  6.932170824E+01  7.055590226E+01  1.651812370E-06  0.00000E+00  9.000E+00
      21     1     1     2   513   511  6.265761380E+00 -8.965605845E+00  2.432579759E+01  2.667182562E+01  5.840038640E-07  0.00000E+00  9.000E+00
      21     1     1     2   511   512 -4.234907442E+00 -4.015601466E+00  3.321012496E+01  3.371901387E+01  0.000000000E+00  0.00000E+00  9.000E+00
</event>
<event>
      5  10001  2.40292E+09  4.57796E+00 -1.00000E+00  2.50286E-01
      21    -1     0     0   514   513  0.000000000E+00  0.000000000E+00  3.992118754E+01  3.992118754E+01  0.000000000E+00  0.00000E+00  9.000E+00
      21    -1     0     0   512   514  0.000000000E+00  0.000000000E+00 -1.121059493E+01  1.121059493E+01  0.000000000E+00  0.00000E+00  9.000E+00
      21     1     1     2   512   515  1.017521239E+01 -1.743545551E+00 -7.680227548E+00  1.286704292E+01  3.039252468E-07  0.00000E+00  9.000E+00
      21     1     1     2   515   516 -6.392036317E+00  3.873410191E+00  2.216801229E+01  2.339406342E+01  0.000000000E+00  0.00000E+00  9.000E+00
      21     1     1     2   516   513 -3.783176071E+00 -2.129864639E+00  1.422280787E+01  1.487067612E+01  0.000000000E+00  0.00000E+00  9.000E+00
</event>
<event>
      5  10001  2.40292E+09  3.25561E+00 -1.00000E+00  2.86363E-01
      21    -1     0     0   511   514  0.000000000E+00  0.000000000E+00  1.052395632E+02  1.052395632E+02  0.000000000E+00  0.00000E+00  9.000E+00
      21    -1     0     0   512   513  0.000000000E+00  0.000000000E+00 -4.990198240E+01  4.990198240E+01  0.000000000E+00  0.00000E+00  9.000E+00
      21     1     1     2   511   513  1.098214784E+01  3.429001116E+00  4.731595890E+00  1.244000078E+01  3.264680848E-07  0.00000E+00  9.000E+00
      21     1     1     2   512   515 -1.417925457E+01 -4.043403567E+00 -4.483901640E+01  4.720103563E+01  4.768371582E-07  0.00000E+00  9.000E+00
      21     1     1     2   515   514  3.197106727E+00  6.144024505E-01  9.544500128E+01  9.550050917E+01  1.907348633E-06  0.00000E+00  9.000E+00
</event>
<event>
      5  10001  2.40292E+09  6.93516E+00 -1.00000E+00  2.16055E-01
      21    -1     0     0   516   512  0.000000000E+00  0.000000000E+00  1.895165335E+01  1.895165335E+01  0.000000000E+00  0.00000E+00  9.000E+00
      21    -1     0     0   514   516  0.000000000E+00  0.000000000E+00 -2.266194290E+01  2.266194290E+01  0.000000000E+00  0.00000E+00  9.000E+00
      21     1     1     2   514   517 -5.771137016E+00  1.562869391E+01 -1.210319740E+01  2.059246181E+01  3.371747881E-07  0.00000E+00  9.000E+00
      21     1     1     2   511   512  3.067610962E+00 -8.777621518E+00  9.814857057E+00  1.351992217E+01  2.665600750E-07  0.00000E+00  9.000E+00
      21     1     1     2   517   511  2.703526054E+00 -6.851072395E+00 -1.421949202E+00  7.501212277E+00  5.575503985E-08  0.00000E+00  9.000E+00
</event>
<event>
      5  10001  2.40292E+09  4.62479E+00 -1.00000E+00  2.49355E-01
      21    -1     0     0   513   512  0.000000000E+00  0.000000000E+00  2.148257587E+02  2.148257587E+02  0.000000000E+00  0.00000E+00  9.000E+00
      21    -1     0     0   514   515  0.000000000E+00  0.000000000E+00 -2.365267493E+01  2.365267493E+01  0.000000000E+00  0.00000E+00  9.000E+00
      21     1     1     2   513   515  4.929888717E+00 -2.221749147E+01  2.996843889E+00  2.295434171E+01  6.419616708E-07  0.00000E+00  9.000E+00
      21     1     1     2   514   511 -6.915726004E+00  1.804075686E+01 -6.807829643E+00  2.048518291E+01  3.674277069E-07  0.00000E+00  9.000E+00
      21     1     1     2   511   512  1.985837287E+00  4.176734609E+00  1.949840695E+02  1.950389090E+02  2.697398305E-06  0.00000E+00  9.000E+00
</event>
<event>
      5  10001  2.40292E+09  3.72088E+00 -1.00000E+00  2.70984E-01
       2    -1     0     0   516     0  0.000000000E+00  0.000000000E+00  2.409778704E+02  2.409778704E+02  0.000000000E+00  0.00000E+00  9.000E+00
      21    -1     0     0   517   512  0.000000000E+00  0.000000000E+00 -9.183995763E+00  9.183995763E+00  0.000000000E+00  0.00000E+00  9.000E+00
      21     1     1     2   516   512 -2.643385368E+00 -1.162719023E+01  4.135624177E+00  1.262071417E+01  1.685873940E-07  0.00000E+00  9.000E+00
      21     1     1     2   517   514 -7.956819567E-01  1.020683960E+01  3.931476596E-01  1.024535258E+01  2.300046241E-07  0.00000E+00  9.000E+00
       2     1     1     2   514     0  3.439067325E+00  1.420350621E+00  2.272651028E+02  2.272957994E+02  3.300000131E-01  0.00000E+00  9.000E+00
</event>
<event>
      5  10001  2.40292E+09  1.64402E+01 -1.00000E+00  1.73667E-01
      21    -1     0     0   513   514  0.000000000E+00  0.000000000E+00  8.891421445E+00  8.891421445E+00  0.000000000E+00  0.00000E+00  9.000E+00
      21    -1     0     0   511   513  0.000000000E+00  0.000000000E+00 -7.421937407E+01  7.421937407E+01  0.000000000E+00  0.00000E+00  9.000E+00
      21     1     1     2   512   514 -8.043206030E+00  1.743290261E+00  5.242647337E+00  9.757949337E+00  4.172325134E-07  0.00000E+00  9.000E+00
       2     1     1     2   511     0  6.732814678E+00  6.765651273E+00 -5.214589370E+01  5.301328099E+01  3.300000131E-01  0.00000E+00  9.000E+00
      -2     1     1     2     0   512  1.310391352E+00 -8.508941534E+00 -1.842470626E+01  2.033956519E+01  3.300000131E-01  0.00000E+00  9.000E+00
</event>
<event>
      5  10001  2.40292E+09  4.63227E+00 -1.00000E+00  2.49208E-01
      -3    -1     0     0     0   512  0.000000000E+00  0.000000000E+00  9.540778658E+01  9.540778658E+01  0.000000000E+00  0.00000E+00  9.000E+00
      21    -1     0     0   515   513  0.000000000E+00  0.000000000E+00 -2.627371172E+00  2.627371172E+00  0.000000000E+00  0.00000E+00  9.000E+00
      -3     1     1     2     0   513 -6.599172204E+00 -1.051090079E+01  7.256459660E+01  7.361996189E+01  5.000000000E-01  0.00000E+00  9.000E+00
      -2     1     1     2     0   512  2.179708404E+00  8.400005129E+00  1.426981971E+01  1.670472596E+01  3.300000131E-01  0.00000E+00  9.000E+00
       2     1     1     2   515     0  4.419463799E+00  2.110895661E+00  5.945999099E+00  7.710469899E+00  3.300000131E-01  0.00000E+00  9.000E+00
</event>
<event>
      5  10001  2.40292E+09  1.02818E+01 -1.00000E+00  1.94315E-01
      21    -1     0     0   511   513  0.000000000E+00  0.000000000E+00  7.070385725E+01  7.070385725E+01  0.000000000E+00  0.00000E+00  9.000E+00
      21    -1     0     0   512   514  0.000000000E+00  0.000000000E+00 -1.058477334E+02  1.058477334E+02  0.000000000E+00  0.00000E+00  9.000E+00
      21     1     1     2   511   514 -9.406769807E+00 -5.538642737E+00  2.055627091E+01  2.327496843E+01  4.129530925E-07  0.00000E+00  9.000E+00
      21     1     1     2   515   513  1.516356256E+01 -2.980439394E+00  4.730209367E+01  4.976248300E+01  6.743495762E-07  0.00000E+00  9.000E+00
      21     1     1     2   512   515 -5.756792751E+00  8.519082131E+00 -1.030022407E+02  1.035141392E+02  1.348699152E-06  0.00000E+00  9.000E+00
</event>
<event>
      5  10001  2.40292E+09  6.03922E+00 -1.00000E+00  2.24955E-01
      21    -1     0     0   516   514  0.000000000E+00  0.000000000E+00  1.774006547E+01  1.774006547E+01  0.000000000E+00  0.00000E+00  9.000E+00
      21    -1     0     0   512   511  0.000000000E+00  0.000000000E+00 -2.215404205E+01  2.215404205E+01  0.000000000E+00  0.00000E+00  9.000E+00
      21     1     1     2   516   517  2.192436377E+00  1.300399315E+01 -2.553440182E+00  1.343244847E+01  4.420398764E-07  0.00000E+00  9.000E+00
      21     1     1     2   512   514 -6.741330403E+00 -9.031617564E+00  8.739703923E+00  1.426176974E+01  2.920019320E-07  0.00000E+00  9.000E+00
      21     1     1     2   517   511  4.548894026E+00 -3.972375583E+00 -1.060024032E+01  1.219988932E+01  0.000000000E+00  0.00000E+00  9.000E+00
</event>
<event>
      5  10001  2.40292E+09  1.43471E+01 -1.00000E+00  1.79175E-01
      21    -1     0     0   513   512  0.000000000E+00  0.000000000E+00  9.250106570E-01  9.250106570E-01  0.000000000E+00  0.00000E+00  9.000E+00
      -1    -1     0     0     0   511  0.000000000E+00  0.000000000E+00 -2.727504529E+02  2.727504529E+02  0.000000000E+00  0.00000E+00  9.000E+00
      -1     1     1     2     0   514 -1.433863886E+01  8.982128487E-03 -1.002960194E+02  1.013163217E+02  3.300000131E-01  0.00000E+00  9.000E+00
      21     1     1     2   513   511  9.186562660E+00  1.294316798E+00 -6.094242503E+01  6.164452415E+01  6.743495762E-07  0.00000E+00  9.000E+00
      21     1     1     2   514   512  5.152076204E+00 -1.303298926E+00 -1.105869978E+02  1.107146176E+02  1.348699152E-06  0.00000E+00  9.000E+00
</event>
<event>
      5  10001  2.40292E+09  7.29864E+00 -1.00000E+00  2.12951E-01
      21    -1     0     0   515   514  0.000000000E+00  0.000000000E+00  1.001037608E+01  1.001037608E+01  0.000000000E+00  0.00000E+00  9.000E+00
      21    -1     0     0   512   515  0.000000000E+00  0.000000000E+00 -3.758632124E+01  3.758632124E+01  0.000000000E+00  0.00000E+00  9.000E+00
      21     1     1     2   512   516  9.051719266E+00 -6.264162211E+00 -3.143863922E+01  3.331007935E+01  5.840038640E-07  0.00000E+00  9.000E+00
      21     1     1     2   511   514 -1.663043176E+00  3.767141523E+00  4.920213805E+00  6.416040192E+00  1.460009660E-07  0.00000E+00  9.000E+00
      21     1     1     2   516   511 -7.388676090E+00  2.497020688E+00 -1.057519741E+00  7.870577786E+00  1.381876841E-07  0.00000E+00  9.000E+00
</event>
<event>
      5  10001  2.40292E+09  5.08392E+00 -1.00000E+00  2.37173E-01
      21    -1     0     0   514   512  0.000000000E+00  0.000000000E+00  1.174548218E+01  1.174548218E+01  0.000000000E+00  0.00000E+00  9.000E+00
      21    -1     0     0   517   513  0.000000000E+00  0.000000000E+00 -1.280755110E+02  1.280755110E+02  0.000000000E+00  0.00000E+00  9.000E+00
      21     1     1     2   511   512  7.765002234E+00  8.343643315E+00  7.671661216E+00  1.373921502E+01  4.042583694E-07  0.00000E+00  9.000E+00
      21     1     1     2   517   511 -1.014025667E+01 -3.848708921E+00 -1.165937177E+02  1.170971066E+02  1.348699152E-06  0.00000E+00  9.000E+00
      21     1     1     2   514   513  2.375254437E+00 -4.494934394E+00 -7.407972324E+00  8.984671547E+00  8.429369702E-08  0.00000E+00  9.000E+00
</event>
<event>
      5  10001  2.40292E+09  2.86418E+00 -1.00000E+00  3.02965E-01
      21    -1     0     0   515   513  0.000000000E+00  0.000000000E+00  3.485487267E+00  3.485487267E+00  0.000000000E+00  0.00000E+00  9.000E+00
      21    -1     0     0   512   516  0.000000000E+00  0.000000000E+00 -3.919828820E+01  3.919828820E+01  0.000000000E+00  0.00000E+00  9.000E+00
      21     1     1     2   515   516  1.123853305E-01  1.030847138E+01 -8.612610587E+00  1.343332698E+01  1.192092896E-07  0.00000E+00  9.000E+00
      21     1     1     2   512   511  1.756201925E+00 -6.899720531E+00 -1.738028220E+01  1.878202859E+01  2.384185791E-07  0.00000E+00  9.000E+00
      21     1     1     2   511   513 -1.868587256E+00 -3.408750852E+00 -9.719908145E+00  1.046841989E+01  1.192092896E-07  0.00000E+00  9.000E+00
</event>
<event>
      5  10001  2.40292E+09  5.44807E+00 -1.00000E+00  2.32100E-01
      21    -1     0     0   514   512  0.000000000E+00  0.000000000E+00  2.102485107E+01  2.102485107E+01  0.000000000E+00  0.00000E+00  9.000E+00
      21    -1     0     0   517   513  0.000000000E+00  0.000000000E+00 -5.750032134E+00  5.750032134E+00  0.000000000E+00  0.00000E+00  9.000E+00
      21     1     1     2   514   513  3.113268023E+00 -8.564674985E+00  3.053961985E+00  9.611075860E+00  2.107342426E-07  0.00000E+00  9.000E+00
      21     1     1     2   515   512 -5.655556558E+00  6.122622789E+00  7.112390471E+00  1.095709487E+01  0.000000000E+00  0.00000E+00  9.000E+00
      21     1     1     2   517   515  2.542288535E+00  2.442052196E+00  5.108466475E+00  6.206712468E+00  8.429369702E-08  0.00000E+00  9.000E+00
</event>
<event>
      5  10001  2.40292E+09  7.14730E+00 -1.00000E+00  2.14213E-01
      21    -1     0     0   511   513  0.000000000E+00  0.000000000E+00  2.628172311E+01  2.628172311E+01  0.000000000E+00  0.00000E+00  9.000E+00
      -5    -1     0     0     0   516  0.000000000E+00  0.000000000E+00 -1.200376818E+02  1.200376818E+02  0.000000000E+00  0.00000E+00  9.000E+00
      21     1     1     2   511   516 -1.000525258E+01  1.032971327E+01  8.950657513E+00  1.693878170E+01  5.462855929E-07  0.00000E+00  9.000E+00
      21     1     1     2   517   513  1.318285481E+01 -3.943112905E+00  9.579300972E+00  1.676600154E+01  3.769728732E-07  0.00000E+00  9.000E+00
      -5     1     1     2     0   517 -3.177602239E+00 -6.386600368E+00 -1.122859172E+02  1.126146217E+02  4.800000191E+00  0.00000E+00  9.000E+00
</event>
<event>
      5  10001  2.40292E+09  1.29858E+01 -1.00000E+00  1.83443E-01
       2    -1     0     0   511     0  0.000000000E+00  0.000000000E+00  6.718605719E+01  6.718605719E+01  0.000000000E+00  0.00000E+00  9.000E+00
      21    -1     0     0   514   511  0.000000000E+00  0.000000000E+00 -3.015494012E+00  3.015494012E+00  0.000000000E+00  0.00000E+00  9.000E+00
      21     1     1     2   514   513  5.019911969E+00  7.748309661E-01  1.079854170E+00  5.192876297E+00  2.827296549E-07  0.00000E+00  9.000E+00
       2     1     1     2   512     0 -7.011713647E+00  5.608793660E+00  3.562018557E+01  3.673593901E+01  3.300000131E-01  0.00000E+00  9.000E+00
      21     1     1     2   513   512  1.991801677E+00 -6.383624626E+00  2.747052344E+01  2.827273590E+01  4.768371582E-07  0.00000E+00  9.000E+00
</event>
<event>
      5  10001  2.40292E+09  3.34342E+00 -1.00000E+00  2.83153E-01
      21    -1     0     0   515   514  0.000000000E+00  0.000000000E+00  1.631274553E+02  1.631274553E+02  0.000000000E+00  0.00000E+00  9.000E+00
      21    -1     0     0   516   515  0.000000000E+00  0.000000000E+00 -8.373258279E+00  8.373258279E+00  0.000000000E+00  0.00000E+00  9.000E+00
      21     1     1     2   512   514 -1.272437698E+01 -1.317220907E+00  1.551089091E+02  1.556355310E+02  1.907348633E-06  0.00000E+00  9.000E+00
      21     1     1     2   516   511  1.053165173E+01  3.781532366E+00 -3.058072317E+00  1.160032247E+01  6.873942968E-07  0.00000E+00  9.000E+00
      21     1     1     2   511   512  2.192725244E+00 -2.464311459E+00  2.703360294E+00  4.264860119E+00  2.980232239E-08  0.00000E+00  9.000E+00
</event>
<event>
      5  10001  2.40292E+09  2.48105E+01 -1.00000E+00  1.58961E-01
      21    -1     0     0   512   513  0.000000000E+00  0.000000000E+00  5.630613963E+01  5.630613963E+01  0.000000000E+00  0.00000E+00  9.000E+00
      21    -1     0     0   511   512  0.000000000E+00  0.000000000E+00 -7.058410037E+00  7.058410037E+00  0.000000000E+00  0.00000E+00  9.000E+00
      -1     1     1     2     0   514  5.788755269E+00  3.519611361E+00  4.386098211E+01  4.438233887E+01  3.300000131E-01  0.00000E+00  9.000E+00
       1     1     1     2   511     0 -8.300699777E+00 -5.780534689E+00  9.346623184E+00  1.377622819E+01  3.300000131E-01  0.00000E+00  9.000E+00
      21     1     1     2   514   513  2.511944509E+00  2.260923328E+00 -3.959875695E+00  5.205982619E+00  2.493441184E-07  0.00000E+00  9.000E+00
</event>
<event>
      5  10001  2.40292E+09  5.18723E+00 -1.00000E+00  2.35674E-01
      21    -1     0     0   515   511  0.000000000E+00  0.000000000E+00  5.088685621E+02  5.088685621E+02  0.000000000E+00  0.00000E+00  9.000E+00
      21    -1     0     0   512   515  0.000000000E+00  0.000000000E+00 -5.417654628E+00  5.417654628E+00  0.000000000E+00  0.00000E+00  9.000E+00
      21     1     1     2   513   516 -7.730033260E+00 -8.912526281E+00  1.479268558E+01  1.892115445E+01  7.152557373E-07  0.00000E+00  9.000E+00
      21     1     1     2   516   511  1.110039456E+01  4.969423687E+00  4.898840171E+02  4.900349621E+02  5.394796609E-06  0.00000E+00  9.000E+00
      21     1     1     2   512   513 -3.370361296E+00  3.943102595E+00 -1.225795213E+00  5.330100115E+00  1.861154437E-07  0.00000E+00  9.000E+00
</event>
<event>
      5  10001  2.40292E+09  3.55090E+00 -1.00000E+00  2.76165E-01
       1    -1     0     0   513     0  0.000000000E+00  0.000000000E+00  9.901825659E-01  9.901825659E-01  0.000000000E+00  0.00000E+00  9.000E+00
      21    -1     0     0   511   513  0.000000000E+00  0.000000000E+00 -4.402703095E+02  4.402703095E+02  0.000000000E+00  0.00000E+00  9.000E+00
      21     1     1     2   516   514  2.577373953E+00 -1.023804558E+01 -8.450943628E+01  8.516633874E+01  2.132480600E-06  0.00000E+00  9.000E+00
       1     1     1     2   514     0 -4.486023451E-01  1.307974613E+01 -6.518243283E+01  6.648412933E+01  3.300000131E-01  0.00000E+00  9.000E+00
      21     1     1     2   511   516 -2.128771607E+00 -2.841700549E+00 -2.895882579E+02  2.896100240E+02  3.814697266E-06  0.00000E+00  9.000E+00
</event>
<event>
      5  10001  2.40292E+09  3.34789E+00 -1.00000E+00  2.82994E-01
      21    -1     0     0   512   516  0.000000000E+00  0.000000000E+00  2.881396766E+00  2.881396766E+00  0.000000000E+00  0.00000E+00  9.000E+00
      21    -1     0     0   511   512  0.000000000E+00  0.000000000E+00 -4.089335436E+01  4.089335436E+01  0.000000000E+00  0.00000E+00  9.000E+00
      21     1     1     2   515   516  4.847538676E+00 -9.445576066E+00 -2.303773365E+01  2.536640909E+01  4.768371582E-07  0.00000E+00  9.000E+00
      21     1     1     2   511   513 -3.824371332E-01  1.548765569E+00 -2.847161751E+00  3.263627274E+00  5.960464478E-08  0.00000E+00  9.000E+00
      21     1     1     2   513   515 -4.465101543E+00  7.896810497E+00 -1.212706220E+01  1.514471477E+01  3.371747881E-07  0.00000E+00  9.000E+00
</event>
<event>
      5  10001  2.40292E+09  8.39695E+00 -1.00000E+00  2.04894E-01
      21    -1     0     0   514   513  0.000000000E+00  0.000000000E+00  3.899013819E+00  3.899013819E+00  0.000000000E+00  0.00000E+00  9.000E+00
      21    -1     0     0   517   514  0.000000000E+00  0.000000000E+00 -9.460851051E+01  9.460851051E+01  0.000000000E+00  0.00000E+00  9.000E+00
      21     1     1     2   511   513 -1.055581056E+01  6.820917587E-01 -5.431972788E+00  1.189103503E+01  3.264680848E-07  0.00000E+00  9.000E+00
      21     1     1     2   512   511  3.234499300E+00  1.266083196E+00 -6.281087604E+01  6.290684463E+01  0.000000000E+00  0.00000E+00  9.000E+00
      21     1     1     2   517   512  7.321311258E+00 -1.948174955E+00 -2.246664786E+01  2.370964467E+01  2.384185791E-07  0.00000E+00  9.000E+00
</event>
<event>
      5  10001  2.40292E+09  1.01728E+01 -1.00000E+00  1.94843E-01
      21    -1     0     0   515   512  0.000000000E+00  0.000000000E+00  4.131340456E+01  4.131340456E+01  0.000000000E+00  0.00000E+00  9.000E+00
      21    -1     0     0   513   516  0.000000000E+00  0.000000000E+00 -1.274131223E+02  1.274131223E+02  0.000000000E+00  0.00000E+00  9.000E+00
      21     1     1     2   515   516 -7.055030667E+00  7.294279845E+00  3.871485173E+01  4.002274005E+01  1.507891493E-06  0.00000E+00  9.000E+00
      21     1     1     2   513   511  6.237985127E-01 -2.802281340E+00 -1.187591557E+02  1.187938507E+02  1.348699152E-06  0.00000E+00  9.000E+00
      21     1     1     2   511   512  6.431232154E+00 -4.491998504E+00 -6.055413751E+00  9.909936089E+00  0.000000000E+00  0.00000E+00  9.000E+00
</event>
<event>
      5  10001  2.40292E+09  1.71964E+01 -1.00000E+00  1.71925E-01
      21    -1     0     0   514   513  0.000000000E+00  0.000000000E+00  4.998384620E+00  4.998384620E+00  0.000000000E+00  0.00000E+00  9.000E+00
      21    -1     0     0   512   514  0.000000000E+00  0.000000000E+00 -5.885249784E+01  5.885249784E+01  0.000000000E+00  0.00000E+00  9.000E+00
      21     1     1     2   512   517  3.514961960E+00  9.054705022E+00 -3.401845047E+01  3.537792551E+01  0.000000000E+00  0.00000E+00  9.000E+00
      21     1     1     2   515   513 -9.639187228E+00 -7.663978626E-01 -6.639760386E+00  1.172977894E+01  2.384185791E-07  0.00000E+00  9.000E+00
      21     1     1     2   517   515  6.124225268E+00 -8.288307159E+00 -1.319590236E+01  1.674317801E+01  2.384185791E-07  0.00000E+00  9.000E+00
</event>
<event>
      5  10001  2.40292E+09  1.47735E+01 -1.00000E+00  1.77960E-01
      21    -1     0     0   511   513  0.000000000E+00  0.000000000E+00  1.614393474E+01  1.614393474E+01  0.000000000E+00  0.00000E+00  9.000E+00
      21    -1     0     0   513   514  0.000000000E+00  0.000000000E+00 -1.788474931E+01  1.788474931E+01  0.000000000E+00  0.00000E+00  9.000E+00
      -5     1     1     2     0   514 -9.304879868E+00 -2.186164318E+00 -1.167101080E+01  1.583074852E+01  4.800000191E+00  0.00000E+00  9.000E+00
       5     1     1     2   512     0 -8.085104389E-02  3.138487017E+00  2.862573980E+00  6.410223808E+00  4.800000191E+00  0.00000E+00  9.000E+00
      21     1     1     2   511   512  9.385730912E+00 -9.523226998E-01  7.067622251E+00  1.178771172E+01  1.192092896E-07  0.00000E+00  9.000E+00
</event>
<event>
      5  10001  2.40292E+09  2.53763E+01 -1.00000E+00  1.58229E-01
      21    -1     0     0   515   512  0.000000000E+00  0.000000000E+00  3.686373413E+01  3.686373413E+01  0.000000000E+00  0.00000E+00  9.000E+00
      21    -1     0     0   513   516  0.000000000E+00  0.000000000E+00 -1.055587080E+01  1.055587080E+01  0.000000000E+00  0.00000E+00  9.000E+00
      21     1     1     2   515   516  8.806497682E+00 -2.495278946E+00 -1.747478182E+00  9.318503015E+00  1.576990671E-07  0.00000E+00  9.000E+00
      21     1     1     2   514   512  5.090385692E+00  3.529395545E+00  2.209112300E+01  2.294311171E+01  2.384185791E-07  0.00000E+00  9.000E+00
      21     1     1     2   513   514 -1.389688337E+01 -1.034116599E+00  5.964218507E+00  1.515799020E+01  4.298152060E-07  0.00000E+00  9.000E+00
</event>
<event>
      5  10001  2.40292E+09  1.12733E+01 -1.00000E+00  1.89872E-01
      21    -1     0     0   511   512  0.000000000E+00  0.000000000E+00  1.149758984E+01  1.149758984E+01  0.000000000E+00  0.00000E+00  9.000E+00
      21    -1     0     0   513   511  0.000000000E+00  0.000000000E+00 -4.440283582E+01  4.440283582E+01  0.000000000E+00  0.00000E+00  9.000E+00
      21     1     1     2   514   512  1.581985971E+01 -9.929040312E+00 -2.707426358E+00  1.887283657E+01  2.475566823E-07  0.00000E+00  9.000E+00
      21     1     1     2   515   514 -1.062119196E+01  2.891330169E+00 -9.440143717E+00  1.450123519E+01  2.920019320E-07  0.00000E+00  9.000E+00
      21     1     1     2   513   515 -5.198667758E+00  7.037710142E+00 -2.075767591E+01  2.252635389E+01  2.384185791E-07  0.00000E+00  9.000E+00
</event>
<event>
      5  10001  2.40292E+09  6.27911E+00 -1.00000E+00  2.22372E-01
      21    -1     0     0   516   514  0.000000000E+00  0.000000000E+00  2.006423302E+00  2.006423302E+00  0.000000000E+00  0.00000E+00  9.000E+00
      21    -1     0     0   513   516  0.000000000E+00  0.000000000E+00 -4.555839445E+02  4.555839445E+02  0.000000000E+00  0.00000E+00  9.000E+00
      21     1     1     2   515   514 -6.991633028E+00  7.748182757E+00 -1.344121437E+01  1.701715347E+01  6.529361695E-07  0.00000E+00  9.000E+00
      21     1     1     2   513   511  3.954510159E+00 -5.625665750E+00 -4.223059274E+02  4.223619095E+02  0.000000000E+00  0.00000E+00  9.000E+00
      21     1     1     2   511   515  3.037122868E+00 -2.122517007E+00 -1.783037938E+01  1.821130480E+01  2.384185791E-07  0.00000E+00  9.000E+00
</event>
<event>
      5  10001  2.40292E+09  2.54293E+00 -1.00000E+00  3.20337E-01
      21    -1     0     0   512   513  0.000000000E+00  0.000000000E+00  2.353757690E+01  2.353757690E+01  0.000000000E+00  0.00000E+00  9.000E+00
      21    -1     0     0   516   515  0.000000000E+00  0.000000000E+00 -2.676894384E+01  2.676894384E+01  0.000000000E+00  0.00000E+00  9.000E+00
      21     1     1     2   512   515 -8.365141527E+00 -6.936727013E+00  2.047977776E+01  2.318437128E+01  4.129530925E-07  0.00000E+00  9.000E+00
      21     1     1     2   514   513  5.985493164E+00  7.833244133E+00 -2.184974271E+01  2.397075507E+01  2.384185791E-07  0.00000E+00  9.000E+00
      21     1     1     2   516   514  2.379648363E+00 -8.965171201E-01 -1.861401981E+00  3.151394392E+00  5.161913656E-08  0.00000E+00  9.000E+00
</event>
<event>
      5  10001  2.40292E+09  6.72803E+00 -1.00000E+00  2.17942E-01
      21    -1     0     0   511   514  0.000000000E+00  0.000000000E+00  1.550279051E+02  1.550279051E+02  0.000000000E+00  0.00000E+00  9.000E+00
      21    -1     0     0   516   511  0.000000000E+00  0.000000000E+00 -2.079339790E+01  2.079339790E+01  0.000000000E+00  0.00000E+00  9.000E+00
      21     1     1     2   516   517  4.464208695E+00 -1.130825972E+01 -1.873506529E+01  2.233402267E+01  6.743495762E-07  0.00000E+00  9.000E+00
      21     1     1     2   517   512 -3.237000407E-01  1.023400645E+00  2.991645866E+01  2.993570827E+01  0.000000000E+00  0.00000E+00  9.000E+00
      21     1     1     2   512   514 -4.140508654E+00  1.028485908E+01  1.230531139E+02  1.235515721E+02  1.907348633E-06  0.00000E+00  9.000E+00
</event>
<event>
      5  10001  2.40292E+09  1.87884E+01 -1.00000E+00  1.68597E-01
      21    -1     0     0   513   514  0.000000000E+00  0.000000000E+00  5.760573478E+01  5.760573478E+01  0.000000000E+00  0.00000E+00  9.000E+00
      -4    -1     0     0     0   513  0.000000000E+00  0.000000000E+00 -1.201109200E+02  1.201109200E+02  0.000000000E+00  0.00000E+00  9.000E+00
      -4     1     1     2     0   511 -6.626904960E+01  3.963840243E+01 -1.387831263E+01  7.847067888E+01  1.500000000E+00  0.00000E+00  9.000E+00
      -1     1     1     2     0   514  6.428349156E+01 -3.065827441E+01 -2.775971988E+01  7.643957106E+01  3.300000131E-01  0.00000E+00  9.000E+00
       1     1     1     2   511     0  1.985558045E+00 -8.980128016E+00 -2.086715275E+01  2.280640488E+01  3.300000131E-01  0.00000E+00  9.000E+00
</event>
<event>
      5  10001  2.40292E+09  2.05859E+01 -1.00000E+00  1.65300E-01
      21    -1     0     0   512   516  0.000000000E+00  0.000000000E+00  1.088003479E+01  1.088003479E+01  0.000000000E+00  0.00000E+00  9.000E+00
      21    -1     0     0   511   515  0.000000000E+00  0.000000000E+00 -2.577168371E+01  2.577168371E+01  0.000000000E+00  0.00000E+00  9.000E+00
      21     1     1     2   512   515 -4.478196973E+00  2.403847080E+00 -8.786397170E+00  1.015054206E+01  2.064765462E-07  0.00000E+00  9.000E+00
      21     1     1     2   513   516  1.779078497E+00 -8.301895498E+00  7.564004018E+00  1.137104859E+01  2.665600750E-07  0.00000E+00  9.000E+00
      21     1     1     2   511   513  2.699118475E+00  5.898048417E+00 -1.366925577E+01  1.513012786E+01  1.685873940E-07  0.00000E+00  9.000E+00
</event>
<event>
      5  10001  2.40292E+09  5.08810E+00 -1.00000E+00  2.37111E-01
      -4    -1     0     0     0   513  0.000000000E+00  0.000000000E+00  1.275575019E+02  1.275575019E+02  0.000000000E+00  0.00000E+00  9.000E+00
      -2    -1     0     0     0   512  0.000000000E+00  0.000000000E+00 -1.166054589E+01  1.166054589E+01  0.000000000E+00  0.00000E+00  9.000E+00
      -4     1     1     2     0   514 -2.866051910E+00  8.099656241E+00  1.181155420E+02  1.184371139E+02  1.500000000E+00  0.00000E+00  9.000E+00
      -2     1     1     2     0   513  1.864419547E+00 -1.182312497E+01 -7.584164922E+00  1.417359523E+01  3.300000131E-01  0.00000E+00  9.000E+00
      21     1     1     2   514   512  1.001632363E+00  3.723468729E+00  5.365578906E+00  6.607338629E+00  1.332800375E-07  0.00000E+00  9.000E+00
</event>
<event>
      5  10001  2.40292E+09  4.33919E+00 -1.00000E+00  2.55309E-01
      21    -1     0     0   511   513  0.000000000E+00  0.000000000E+00  3.161660908E+00  3.161660908E+00  0.000000000E+00  0.00000E+00  9.000E+00
       2    -1     0     0   514     0  0.000000000E+00  0.000000000E+00 -8.824936334E+01  8.824936334E+01  0.000000000E+00  0.00000E+00  9.000E+00
      21     1     1     2   514   515 -1.980465194E+00  8.957798558E+00 -3.491360328E+01  3.609881011E+01  4.768371582E-07  0.00000E+00  9.000E+00
       2     1     1     2   511     0  5.476240514E+00 -1.518134187E+01 -3.496613380E+01  3.851235858E+01  3.300000131E-01  0.00000E+00  9.000E+00
      21     1     1     2   515   513 -3.495775320E+00  6.223543307E+00 -1.520796536E+01  1.679985556E+01  3.371747881E-07  0.00000E+00  9.000E+00
</event>
<event>
      5  10001  2.40292E+09  3.40888E+00 -1.00000E+00  2.80862E-01
      21    -1     0     0   512   513  0.000000000E+00  0.000000000E+00  1.440302542E+02  1.440302542E+02  0.000000000E+00  0.00000E+00  9.000E+00
      21    -1     0     0   511   514  0.000000000E+00  0.000000000E+00 -1.151859783E+01  1.151859783E+01  0.000000000E+00  0.00000E+00  9.000E+00
      21     1     1     2   511   513  1.659121815E+01 -3.003631859E+00  1.358381853E+02  1.368806155E+02  1.907348633E-06  0.00000E+00  9.000E+00
       2     1     1     2   512     0 -1.326548084E+01  2.256410979E+00  5.807740656E-01  1.347258590E+01  3.300000131E-01  0.00000E+00  9.000E+00
      -2     1     1     2     0   514 -3.325737309E+00  7.472208796E-01 -3.907303026E+00  5.195650550E+00  3.300000131E-01  0.00000E+00  9.000E+00
</event>
<event>
      5  10001  2.40292E+09  2.52604E+01 -1.00000E+00  1.58377E-01
      21    -1     0     0   515   516  0.000000000E+00  0.000000000E+00  3.532346980E+01  3.532346980E+01  0.000000000E+00  0.00000E+00  9.000E+00
      21    -1     0     0   516   512  0.000000000E+00  0.000000000E+00 -1.009382598E+01  1.009382598E+01  0.000000000E+00  0.00000E+00  9.000E+00
      -3     1     1     2     0   512  2.755560991E-01 -8.343400448E+00 -3.181521490E+00  8.947644449E+00  5.000000000E-01  0.00000E+00  9.000E+00
      21     1     1     2   515   511  6.463377207E+00  7.454741198E+00  3.229029685E+00  1.038147600E+01  4.214684851E-08  0.00000E+00  9.000E+00
       3     1     1     2   511     0 -6.738933306E+00  8.886592494E-01  2.518213562E+01  2.608817533E+01  5.000000000E-01  0.00000E+00  9.000E+00
</event>
<event>
      5  10001  2.40292E+09  7.75455E+00 -1.00000E+00  2.09389E-01
      -3    -1     0     0     0   513  0.000000000E+00  0.000000000E+00  1.719095274E+02  1.719095274E+02  0.000000000E+00  0.00000E+00  9.000E+00
      21    -1     0     0   511   514  0.000000000E+00  0.000000000E+00 -1.517318139E+00  1.517318139E+00  0.000000000E+00  0.00000E+00  9.000E+00
      -3     1     1     2     0   514 -3.519294163E+00 -8.184422479E+00  1.246422243E+02  1.249612112E+02  5.000000000E-01  0.00000E+00  9.000E+00
      21     1     1     2   511   512  5.051487261E+00  4.318753129E+00  7.626153747E+00  1.011569934E+01  2.795705652E-07  0.00000E+00  9.000E+00
      21     1     1     2   512   513 -1.532193098E+00  3.865669350E+00  3.812383113E+01  3.834993501E+01  6.743495762E-07  0.00000E+00  9.000E+00
</event>
<event>
      5  10001  2.40292E+09  4.26529E+00 -1.00000E+00  2.56965E-01
      21    -1     0     0   511   513  0.000000000E+00  0.000000000E+00  1.358024665E-01  1.358024665E-01  0.000000000E+00  0.00000E+00  9.000E+00
       2    -1     0     0   513     0  0.000000000E+00  0.000000000E+00 -2.064888508E+03  2.064888508E+03  0.000000000E+00  0.00000E+00  9.000E+00
      21     1     1     2   514   512  8.779976418E+00  2.226734009E+00 -1.708699262E+02  1.711098419E+02  3.303624740E-06  0.00000E+00  9.000E+00
       2     1     1     2   512     0 -8.694800212E+00 -3.717808935E+00 -1.630405961E+03  1.630433418E+03  3.300000131E-01  0.00000E+00  9.000E+00
      21     1     1     2   511   514 -8.517620673E-02  1.491074926E+00 -2.634768185E+02  2.634810514E+02  3.814697266E-06  0.00000E+00  9.000E+00
</event>
<event>
      5  10001  2.40292E+09  1.20025E+01 -1.00000E+00  1.86966E-01
      21    -1     0     0   516   512  0.000000000E+00  0.000000000E+00  3.743961874E+00  3.743961874E+00  0.000000000E+00  0.00000E+00  9.000E+00
      21    -1     0     0   513   514  0.000000000E+00  0.000000000E+00 -1.112306504E+02  1.112306504E+02  0.000000000E+00  0.00000E+00  9.000E+00
      21     1     1     2   515   514  1.543435929E+01 -7.033637889E-01 -4.225988979E+01  4.499569371E+01  4.768371582E-07  0.00000E+00  9.000E+00
      21     1     1     2   513   512 -9.234033596E+00 -9.573550029E+00 -3.634550423E+01  3.870291868E+01  6.743495762E-07  0.00000E+00  9.000E+00
      21     1     1     2   516   515 -6.200325693E+00  1.027691382E+01 -2.888129447E+01  3.127599985E+01  0.000000000E+00  0.00000E+00  9.000E+00
</event>
<event>
      5  10001  2.40292E+09  9.14385E+00 -1.00000E+00  2.00299E-01
      21    -1     0     0   511   512  0.000000000E+00  0.000000000E+00  4.074767350E+01  4.074767350E+01  0.000000000E+00  0.00000E+00  9.000E+00
      21    -1     0     0   517   511  0.000000000E+00  0.000000000E+00 -2.309487050E+01  2.309487050E+01  0.000000000E+00  0.00000E+00  9.000E+00
      21     1     1     2   513   512 -7.606334290E+00 -1.054616669E+01  3.615797338E+01  3.842495273E+01  4.768371582E-07  0.00000E+00  9.000E+00
      21     1     1     2   514   513  2.174906636E+00  1.150563994E+01 -1.071126193E+01  1.586950225E+01  3.576278687E-07  0.00000E+00  9.000E+00
      21     1     1     2   517   514  5.431427654E+00 -9.594732578E-01 -7.793908448E+00  9.548089034E+00  2.064765462E-07  0.00000E+00  9.000E+00
</event>
<event>
      5  10001  2.40292E+09  7.00789E+00 -1.00000E+00  2.15413E-01
       4    -1     0     0   511     0  0.000000000E+00  0.000000000E+00  5.479017717E+01  5.479017717E+01  0.000000000E+00  0.00000E+00  9.000E+00
      21    -1     0     0   512   511  0.000000000E+00  0.000000000E+00 -1.444812765E+01  1.444812765E+01  0.000000000E+00  0.00000E+00  9.000E+00
      21     1     1     2   514   515  5.603092188E-01  1.189501611E+01  7.374875882E+00  1.400693217E+01  2.920019320E-07  0.00000E+00  9.000E+00
       4     1     1     2   515     0  1.510471478E+00 -1.858430479E+01  4.070382698E+01  4.479631056E+01  1.500000000E+00  0.00000E+00  9.000E+00
      21     1     1     2   512   514 -2.070780696E+00  6.689288680E+00 -7.736653342E+00  1.043506208E+01  8.429369702E-08  0.00000E+00  9.000E+00
</event>
<event>
      5  10001  2.40292E+09  4.83664E+00 -1.00000E+00  2.45343E-01
      21    -1     0     0   513   511  0.000000000E+00  0.000000000E+00  6.176602698E+00  6.176602698E+00  0.000000000E+00  0.00000E+00  9.000E+00
      21    -1     0     0   512   514  0.000000000E+00  0.000000000E+00 -6.932686759E+02  6.932686759E+02  0.000000000E+00  0.00000E+00  9.000E+00
      21     1     1     2   513   514 -1.481577258E+01 -6.957861964E+00 -4.077329321E+01  4.393609450E+01  2.384185791E-06  0.00000E+00  9.000E+00
      21     1     1     2   512   515  1.078946130E+01  9.637766161E+00 -6.495380390E+02  6.496991327E+02  7.629394531E-06  0.00000E+00  9.000E+00
      21     1     1     2   515   511  4.026311283E+00 -2.679904197E+00  3.219258948E+00  5.810051396E+00  1.737759082E-07  0.00000E+00  9.000E+00
</event>
<event>
      5  10001  2.40292E+09  1.15386E+01 -1.00000E+00  1.88782E-01
      21    -1     0     0   516   512  0.000000000E+00  0.000000000E+00  6.044447391E+01  6.044447391E+01  0.000000000E+00  0.00000E+00  9.000E+00
      21    -1     0     0   517   511  0.000000000E+00  0.000000000E+00 -2.098744578E+01  2.098744578E+01  0.000000000E+00  0.00000E+00  9.000E+00
      21     1     1     2   516   511  1.032413029E+01  8.465070142E+00  5.226839984E+01  5.394655411E+01  9.536743164E-07  0.00000E+00  9.000E+00
      21     1     1     2   513   512 -1.478233548E+01 -1.764014522E+00 -1.248614927E+01  1.943021135E+01  5.591411304E-07  0.00000E+00  9.000E+00
      21     1     1     2   517   513  4.458205190E+00 -6.701055620E+00 -3.252224507E-01  8.055154224E+00  2.028488128E-07  0.00000E+00  9.000E+00
</event>
<event>
      5  10001  2.40292E+09  4.51710E+00 -1.00000E+00  2.51521E-01
      21    -1     0     0   514   512  0.000000000E+00  0.000000000E+00  7.767121005E+01  7.767121005E+01  0.000000000E+00  0.00000E+00  9.000E+00
      21    -1     0     0   517   515  0.000000000E+00  0.000000000E+00 -9.684262726E+01  9.684262726E+01  0.000000000E+00  0.00000E+00  9.000E+00
      21     1     1     2   514   515  1.363451399E+01 -5.707268387E+00 -8.810527745E+01  8.933651436E+01  9.536743164E-07  0.00000E+00  9.000E+00
      21     1     1     2   517   511 -1.516301890E+01  9.957903459E+00  2.180219669E+00  1.827102464E+01  4.287807515E-07  0.00000E+00  9.000E+00
      21     1     1     2   511   512  1.528504911E+00 -4.250635072E+00  6.675364056E+01  6.690629831E+01  0.000000000E+00  0.00000E+00  9.000E+00
</event>
<event>
      5  10001  2.40292E+09  2.82911E+00 -1.00000E+00  3.04670E-01
       2    -1     0     0   513     0  0.000000000E+00  0.000000000E+00  3.051348673E+02  3.051348673E+02  0.000000000E+00  0.00000E+00  9.000E+00
      21    -1     0     0   516   512  0.000000000E+00  0.000000000E+00 -7.902861180E+00  7.902861180E+00  0.000000000E+00  0.00000E+00  9.000E+00
      21     1     1     2   513   512  1.493102295E+01 -1.768458581E+00  8.961239182E+01  9.086497488E+01  1.907348633E-06  0.00000E+00  9.000E+00
      21     1     1     2   516   515 -1.247525300E+01  3.639008335E-01 -1.908190110E+00  1.262559111E+01  3.046549603E-07  0.00000E+00  9.000E+00
       2     1     1     2   515     0 -2.455769948E+00  1.404557748E+00  2.095278044E+02  2.095471625E+02  3.300000131E-01  0.00000E+00  9.000E+00
</event>
<event>
      5  10001  2.40292E+09  3.89159E+00 -1.00000E+00  2.66203E-01
      -1    -1     0     0     0   511  0.000000000E+00  0.000000000E+00  4.230613485E+00  4.230613485E+00  0.000000000E+00  0.00000E+00  9.000E+00
       4    -1     0     0   511     0  0.000000000E+00  0.000000000E+00 -8.344449251E+01  8.344449251E+01  0.000000000E+00  0.00000E+00  9.000E+00
      -1     1     1     2     0   512 -9.228912400E+00 -4.635857416E-01 -8.670463453E+00  1.267570796E+01  3.300000131E-01  0.00000E+00  9.000E+00
       4     1     1     2   513     0  1.601766993E+01 -2.454812688E+00 -5.969383370E+01  6.187241418E+01  1.500000000E+00  0.00000E+00  9.000E+00
      21     1     1     2   512   513 -6.788757529E+00  2.918398430E+00 -1.084958188E+01  1.312698386E+01  1.192092896E-07  0.00000E+00  9.000E+00
</event>
<event>
      5  10001  2.40292E+09  6.39026E+00 -1.00000E+00  2.21228E-01
      21    -1     0     0   514   511  0.000000000E+00  0.000000000E+00  2.558104794E+01  2.558104794E+01  0.000000000E+00  0.00000E+00  9.000E+00
       2    -1     0     0   512     0  0.000000000E+00  0.000000000E+00 -1.623034257E+01  1.623034257E+01  0.000000000E+00  0.00000E+00  9.000E+00
      21     1     1     2   512   515 -6.317757815E+00 -8.798487744E-01  1.687291663E+01  1.803838999E+01  2.384185791E-07  0.00000E+00  9.000E+00
       2     1     1     2   514     0  1.299244720E+01  5.032413679E-02 -1.021230705E+01  1.652895436E+01  3.300000131E-01  0.00000E+00  9.000E+00
      21     1     1     2   515   511 -6.674689389E+00  8.295246376E-01  2.690095782E+00  7.244046167E+00  6.664001875E-08  0.00000E+00  9.000E+00
</event>
<event>
      5  10001  2.40292E+09  4.90244E+00 -1.00000E+00  2.44160E-01
       2    -1     0     0   515     0  0.000000000E+00  0.000000000E+00  5.335322536E+02  5.335322536E+02  0.000000000E+00  0.00000E+00  9.000E+00
      21    -1     0     0   514   515  0.000000000E+00  0.000000000E+00 -1.921449775E+02  1.921449775E+02  0.000000000E+00  0.00000E+00  9.000E+00
      21     1     1     2   512   513 -1.935037497E+00 -5.158141288E+00 -1.507280159E+02  1.508286629E+02  1.907348633E-06  0.00000E+00  9.000E+00
       2     1     1     2   513     0 -1.968866984E-01  1.068309108E+01  5.332161347E+02  5.333232813E+02  3.300000131E-01  0.00000E+00  9.000E+00
      21     1     1     2   514   512  2.131924196E+00 -5.524949788E+00 -4.110084273E+01  4.152528680E+01  9.536743164E-07  0.00000E+00  9.000E+00
</event>
<event>
      5  10001  2.40292E+09  5.44457E+00 -1.00000E+00  2.32146E-01
       1    -1     0     0   512     0  0.000000000E+00  0.000000000E+00  1.683775765E+02  1.683775765E+02  0.000000000E+00  0.00000E+00  9.000E+00
      -2    -1     0     0     0   511  0.000000000E+00  0.000000000E+00 -1.316266262E+02  1.316266262E+02  0.000000000E+00  0.00000E+00  9.000E+00
      -2     1     1     2     0   514 -7.640378121E+00 -1.426655609E+01 -1.266043481E+02  1.276349476E+02  3.300000131E-01  0.00000E+00  9.000E+00
      21     1     1     2   512   511  5.822798412E+00  9.134347539E+00  2.115294812E+00  1.103701764E+01  3.237360862E-07  0.00000E+00  9.000E+00
       1     1     1     2   514     0  1.817579710E+00  5.132208550E+00  1.612400036E+02  1.613322374E+02  3.300000131E-01  0.00000E+00  9.000E+00
</event>
<event>
      5  10001  2.40292E+09  2.35803E+01 -1.00000E+00  1.60638E-01
      21    -1     0     0   514   515  0.000000000E+00  0.000000000E+00  2.595763073E+01  2.595763073E+01  0.000000000E+00  0.00000E+00  9.000E+00
       2    -1     0     0   515     0  0.000000000E+00  0.000000000E+00 -6.771774169E+02  6.771774169E+02  0.000000000E+00  0.00000E+00  9.000E+00
      21     1     1     2   514   511  5.303876794E+00  1.392018479E+01  9.475819853E-01  1.492650546E+01  6.382325812E-07  0.00000E+00  9.000E+00
       2     1     1     2   513     0 -1.565621115E+01 -2.120040980E+01 -6.676733355E+02  6.681933599E+02  3.300000131E-01  0.00000E+00  9.000E+00
      21     1     1     2   511   513  1.035233436E+01  7.280225015E+00  1.550596730E+01  2.001518236E+01  1.316709640E-06  0.00000E+00  9.000E+00
</event>
<event>
      5  10001  2.40292E+09  3.73859E+00 -1.00000E+00  2.70469E-01
      21    -1     0     0   512   516  0.000000000E+00  0.000000000E+00  9.566450105E+01  9.566450105E+01  0.000000000E+00  0.00000E+00  9.000E+00
      21    -1     0     0   515   512  0.000000000E+00  0.000000000E+00 -4.102458896E+01  4.102458896E+01  0.000000000E+00  0.00000E+00  9.000E+00
      21     1     1     2   513   516  1.129732070E+01  4.920239252E-01  9.391142642E+01  9.458978568E+01  0.000000000E+00  0.00000E+00  9.000E+00
      21     1     1     2   514   513 -7.062901908E+00  6.489386029E-01 -3.582848336E+01  3.652377205E+01  6.743495762E-07  0.00000E+00  9.000E+00
      21     1     1     2   515   514 -4.234418792E+00 -1.140962528E+00 -3.443030962E+00  5.575532279E+00  1.192092896E-07  0.00000E+00  9.000E+00
</event>
<event>
      5  10001  2.40292E+09  7.01525E+00 -1.00000E+00  2.15349E-01
      21    -1     0     0   511   514  0.000000000E+00  0.000000000E+00  1.910222895E+01  1.910222895E+01  0.000000000E+00  0.00000E+00  9.000E+00
      21    -1     0     0   515   511  0.000000000E+00  0.000000000E+00 -1.493661785E+01  1.493661785E+01  0.000000000E+00  0.00000E+00  9.000E+00
      21     1     1     2   515   517 -1.400811370E+01  3.706811620E-02 -6.624535956E+00  1.549558325E+01  2.528810911E-07  0.00000E+00  9.000E+00
      21     1     1     2   512   514  6.671010050E+00 -5.115300292E-02  1.743452301E+00  6.895260520E+00  1.604904177E-07  0.00000E+00  9.000E+00
      21     1     1     2   517   512  7.337103655E+00  1.408488672E-02  9.046694758E+00  1.164800302E+01  2.064765462E-07  0.00000E+00  9.000E+00
</event>
<event>
      5  10001  2.40292E+09  2.30454E+00 -1.00000E+00  3.36410E-01
       1    -1     0     0   511     0  0.000000000E+00  0.000000000E+00  4.050253564E+01  4.050253564E+01  0.000000000E+00  0.00000E+00  9.000E+00
      21    -1     0     0   514   511  0.000000000E+00  0.000000000E+00 -9.112648405E+01  9.112648405E+01  0.000000000E+00  0.00000E+00  9.000E+00
      -3     1     1     2     0   513 -1.029959785E+01  8.167292640E+00 -3.294282688E+01  3.547204854E+01  5.000000000E-01  0.00000E+00  9.000E+00
       1     1     1     2   513     0  9.167235422E+00 -6.160342998E+00  3.843474717E+01  3.999158313E+01  3.300000131E-01  0.00000E+00  9.000E+00
       3     1     1     2   514     0  1.132362430E+00 -2.006949642E+00 -5.611586870E+01  5.616538802E+01  5.000000000E-01  0.00000E+00  9.000E+00
</event>
<event>
      5  10001  2.40292E+09  3.69474E+00 -1.00000E+00  2.71752E-01
      21    -1     0     0   514   515  0.000000000E+00  0.000000000E+00  1.310532753E+01  1.310532753E+01  0.000000000E+00  0.00000E+00  9.000E+00
      -1    -1     0     0     0   512  0.000000000E+00  0.000000000E+00 -2.500979271E+01  2.500979271E+01  0.000000000E+00  0.00000E+00  9.000E+00
      -1     1     1     2     0   511  2.355825036E+00 -1.149105540E+01 -1.135128079E+01  1.632650426E+01  3.300000131E-01  0.00000E+00  9.000E+00
      21     1     1     2   514   512 -5.215247599E+00  1.572411726E+01  4.950987332E-01  1.657382858E+01  4.593148487E-07  0.00000E+00  9.000E+00
      21     1     1     2   511   515  2.859422563E+00 -4.233061855E+00 -1.048283125E+00  5.214787394E+00  5.771194914E-08  0.00000E+00  9.000E+00
</event>
<event>
      5  10001  2.40292E+09  8.53881E+00 -1.00000E+00  2.03973E-01
       4    -1     0     0   511     0  0.000000000E+00  0.000000000E+00  4.433686128E+00  4.433686128E+00  0.000000000E+00  0.00000E+00  9.000E+00
       2    -1     0     0   513     0  0.000000000E+00  0.000000000E+00 -1.011917587E+02  1.011917587E+02  0.000000000E+00  0.00000E+00  9.000E+00
       2     1     1     2   511     0 -2.453850499E+00  1.024460832E+01 -8.183691884E+01  8.251280851E+01  3.300000131E-01  0.00000E+00  9.000E+00
       4     1     1     2   512     0  1.236364683E+00 -4.132469750E+00  2.070380725E+00  5.014217806E+00  1.500000000E+00  0.00000E+00  9.000E+00
      21     1     1     2   513   512  1.217485816E+00 -6.112138572E+00 -1.699153445E+01  1.809841852E+01  2.384185791E-07  0.00000E+00  9.000E+00
</event>
<event>
      5  10001  2.40292E+09  9.59707E+00 -1.00000E+00  1.97785E-01
      21    -1     0     0   514   512  0.000000000E+00  0.000000000E+00  2.747689290E+01  2.747689290E+01  0.000000000E+00  0.00000E+00  9.000E+00
      21    -1     0     0   513   511  0.000000000E+00  0.000000000E+00 -4.758518260E+01  4.758518260E+01  0.000000000E+00  0.00000E+00  9.000E+00
      21     1     1     2   514   515 -4.524292314E+00  1.546728891E+01 -3.466743062E+01  3.823005354E+01  6.743495762E-07  0.00000E+00  9.000E+00
      21     1     1     2   513   512 -1.782273745E-01 -7.101278068E+00  2.298708069E+01  2.405962996E+01  5.840038640E-07  0.00000E+00  9.000E+00
      21     1     1     2   515   511  4.702519688E+00 -8.366010846E+00 -8.427939764E+00  1.277239201E+01  0.000000000E+00  0.00000E+00  9.000E+00
</event>
<event>
      5  10001  2.40292E+09  6.02243E+00 -1.00000E+00  2.25142E-01
      21    -1     0     0   516   511  0.000000000E+00  0.000000000E+00  1.088874578E+01  1.088874578E+01  0.000000000E+00  0.00000E+00  9.000E+00
      21    -1     0     0   512   517  0.000000000E+00  0.000000000E+00 -3.242395795E+01  3.242395795E+01  0.000000000E+00  0.00000E+00  9.000E+00
      21     1     1     2   516   517  1.136283339E+01  8.197559925E+00 -1.953163380E+00  1.414668932E+01  2.904771073E-07  0.00000E+00  9.000E+00
      21     1     1     2   515   511 -6.197569551E+00 -5.100832470E+00  6.535040200E-01  8.053286766E+00  1.601441596E-07  0.00000E+00  9.000E+00
      21     1     1     2   512   515 -5.165263840E+00 -3.096727455E+00 -2.023555281E+01  2.111272765E+01  3.371747881E-07  0.00000E+00  9.000E+00
</event>
<event>
      5  10001  2.40292E+09  9.82436E+00 -1.00000E+00  1.96592E-01
       4    -1     0     0   515     0  0.000000000E+00  0.000000000E+00  2.633535835E+00  2.633535835E+00  0.000000000E+00  0.00000E+00  9.000E+00
      21    -1     0     0   514   515  0.000000000E+00  0.000000000E+00 -1.770903562E+02  1.770903562E+02  0.000000000E+00  0.00000E+00  9.000E+00
      21     1     1     2   511   513 -2.560974813E+00 -6.192622797E-01 -4.276706671E+01  4.284815134E+01  4.768371582E-07  0.00000E+00  9.000E+00
       4     1     1     2   513     0  9.173866457E+00 -7.183646524E+00 -1.215574656E+01  1.690493353E+01  1.500000000E+00  0.00000E+00  9.000E+00
      21     1     1     2   514   511 -6.612891644E+00  7.802908804E+00 -1.195340071E+02  1.199708072E+02  1.348699152E-06  0.00000E+00  9.000E+00
</event>
<event>
      5  10001  2.40292E+09  2.43772E+01 -1.00000E+00  1.59538E-01
       3    -1     0     0   511     0  0.000000000E+00  0.000000000E+00  6.926964859E+00  6.926964859E+00  0.000000000E+00  0.00000E+00  9.000E+00
      21    -1     0     0   513   511  0.000000000E+00  0.000000000E+00 -2.175359824E+02  2.175359824E+02  0.000000000E+00  0.00000E+00  9.000E+00
      21     1     1     2   513   512 -1.634368992E+01  2.609656043E+00 -1.875395815E+02  1.882684816E+02  0.000000000E+00  0.00000E+00  9.000E+00
       3     1     1     2   515     0  3.454983177E-01  6.562769089E+00  8.793432248E-02  6.591436843E+00  5.000000000E-01  0.00000E+00  9.000E+00
      21     1     1     2   512   515  1.599819161E+01 -9.172425133E+00 -2.315737035E+01  2.960302889E+01  3.371747881E-07  0.00000E+00  9.000E+00
</event>
<event>
      5  10001  2.40292E+09  4.20306E+00 -1.00000E+00  2.58400E-01
      21    -1     0     0   512   513  0.000000000E+00  0.000000000E+00  5.655481686E+01  5.655481686E+01  0.000000000E+00  0.00000E+00  9.000E+00
       2    -1     0     0   513     0  0.000000000E+00  0.000000000E+00 -1.784142361E+02  1.784142361E+02  0.000000000E+00  0.00000E+00  9.000E+00
      21     1     1     2   512   514  2.903251566E+00  1.037029632E+01  5.524920959E+01  5.628896052E+01  9.536743164E-07  0.00000E+00  9.000E+00
       2     1     1     2   511     0 -4.596180282E+00 -1.317476087E+01 -1.722840232E+02  1.728484676E+02  3.300000131E-01  0.00000E+00  9.000E+00
      21     1     1     2   514   511  1.692928716E+00  2.804464550E+00 -4.824605677E+00  5.831624901E+00  1.192092896E-07  0.00000E+00  9.000E+00
</event>
<event>
      5  10001  2.40292E+09  8.56277E+00 -1.00000E+00  2.03820E-01
      21    -1     0     0   516   511  0.000000000E+00  0.000000000E+00  3.146180835E+02  3.146180835E+02  0.000000000E+00  0.00000E+00  9.000E+00
      -3    -1     0     0     0   515  0.000000000E+00  0.000000000E+00 -3.531191456E-01  3.531191456E-01  0.000000000E+00  0.00000E+00  9.000E+00
      -3     1     1     2     0   511 -7.369416494E+00  5.167920961E+00  1.453351718E+02  1.456144838E+02  5.000000000E-01  0.00000E+00  9.000E+00
      21     1     1     2   512   515  4.210616034E+00 -1.341027218E+00  1.343554304E+02  1.344280823E+02  0.000000000E+00  0.00000E+00  9.000E+00
      21     1     1     2   516   512  3.158800459E+00 -3.826893742E+00  3.457436220E+01  3.492863664E+01  0.000000000E+00  0.00000E+00  9.000E+00
</event>
<event>
      5  10001  2.40292E+09  3.77796E+00 -1.00000E+00  2.69341E-01
      21    -1     0     0   514   511  0.000000000E+00  0.000000000E+00  1.862821274E+01  1.862821274E+01  0.000000000E+00  0.00000E+00  9.000E+00
      21    -1     0     0   513   512  0.000000000E+00  0.000000000E+00 -4.936982555E+01  4.936982555E+01  0.000000000E+00  0.00000E+00  9.000E+00
      21     1     1     2   514   512 -3.683555849E+00  7.843823250E+00 -3.881844958E+01  3.977393838E+01  6.743495762E-07  0.00000E+00  9.000E+00
       1     1     1     2   513     0  7.175304633E+00 -9.285146366E+00 -6.322753131E+00  1.333360592E+01  3.300000131E-01  0.00000E+00  9.000E+00
      -1     1     1     2     0   511 -3.491748784E+00  1.441323116E+00  1.439958990E+01  1.489049399E+01  3.300000131E-01  0.00000E+00  9.000E+00
</event>
<event>
      5  10001  2.40292E+09  3.57338E+00 -1.00000E+00  2.75453E-01
      21    -1     0     0   515   516  0.000000000E+00  0.000000000E+00  1.063131718E+02  1.063131718E+02  0.000000000E+00  0.00000E+00  9.000E+00
      21    -1     0     0   511   515  0.000000000E+00  0.000000000E+00 -1.286131837E+00  1.286131837E+00  0.000000000E+00  0.00000E+00  9.000E+00
      21     1     1     2   513   516 -1.127312016E-01  1.101158984E+01  5.308516922E+01  5.421533925E+01  6.743495762E-07  0.00000E+00  9.000E+00
      21     1     1     2   511   512 -1.366346390E+00 -8.218173687E+00  2.737561250E+01  2.861519598E+01  3.371747881E-07  0.00000E+00  9.000E+00
      21     1     1     2   512   513  1.479077591E+00 -2.793416150E+00  2.456625827E+01  2.476876843E+01  0.000000000E+00  0.00000E+00  9.000E+00
</event>
<event>
      5  10001  2.40292E+09  3.19594E+00 -1.00000E+00  2.88641E-01
      21    -1     0     0   512   511  0.000000000E+00  0.000000000E+00  2.070822822E+02  2.070822822E+02  0.000000000E+00  0.00000E+00  9.000E+00
       1    -1     0     0   514     0  0.000000000E+00  0.000000000E+00 -1.972600217E+00  1.972600217E+00  0.000000000E+00  0.00000E+00  9.000E+00
      21     1     1     2   514   515  7.339744873E+00 -3.008605842E+00  1.734139355E+02  1.735952666E+02  2.697398305E-06  0.00000E+00  9.000E+00
       1     1     1     2   512     0 -9.343467300E+00  5.335846259E+00  1.487908989E+01  1.836485372E+01  3.300000131E-01  0.00000E+00  9.000E+00
      21     1     1     2   515   511  2.003722426E+00 -2.327240417E+00  1.681665660E+01  1.709476209E+01  0.000000000E+00  0.00000E+00  9.000E+00
</event>
<event>
      5  10001  2.40292E+09  9.01898E+00 -1.00000E+00  2.01026E-01
      -3    -1     0     0     0   511  0.000000000E+00  0.000000000E+00  4.184569957E+01  4.184569957E+01  0.000000000E+00  0.00000E+00  9.000E+00
      21    -1     0     0   511   513  0.000000000E+00  0.000000000E+00 -2.110964209E+01  2.110964209E+01  0.000000000E+00  0.00000E+00  9.000E+00
      -3     1     1     2     0   514 -1.659909864E+01  9.224108901E+00  2.778224190E+01  3.365586465E+01  5.000000000E-01  0.00000E+00  9.000E+00
      21     1     1     2   514   512  2.044967848E+01 -5.968722626E+00 -9.916021894E+00  2.349771244E+01  4.616955931E-07  0.00000E+00  9.000E+00
      21     1     1     2   512   513 -3.850579841E+00 -3.255386274E+00  2.869837472E+00  5.801764561E+00  1.115100797E-07  0.00000E+00  9.000E+00
</event>
<event>
      5  10001  2.40292E+09  7.96209E+00 -1.00000E+00  2.07874E-01
      21    -1     0     0   515   512  0.000000000E+00  0.000000000E+00  9.617107776E+00  9.617107776E+00  0.000000000E+00  0.00000E+00  9.000E+00
      21    -1     0     0   511   514  0.000000000E+00  0.000000000E+00 -5.741601643E+01  5.741601643E+01  0.000000000E+00  0.00000E+00  9.000E+00
      21     1     1     2   513   512 -1.248693512E+01 -8.735050857E+00 -7.688858337E-01  1.525830422E+01  3.935430242E-07  0.00000E+00  9.000E+00
      21     1     1     2   511   513  5.173065790E+00  1.188181985E+01 -2.226984448E+01  2.576595090E+01  2.384185791E-07  0.00000E+00  9.000E+00
      21     1     1     2   515   514  7.313869331E+00 -3.146768995E+00 -2.476017834E+01  2.600886909E+01  3.371747881E-07  0.00000E+00  9.000E+00
</event>
<event>
      5  10001  2.40292E+09  4.76321E+00 -1.00000E+00  2.46698E-01
       2    -1     0     0   511     0  0.000000000E+00  0.000000000E+00  1.968757272E+01  1.968757272E+01  0.000000000E+00  0.00000E+00  9.000E+00
      21    -1     0     0   515   514  0.000000000E+00  0.000000000E+00 -9.555194983E+00  9.555194983E+00  0.000000000E+00  0.00000E+00  9.000E+00
      21     1     1     2   511   514  7.407029287E+00 -9.572524139E+00  1.736674273E-01  1.210485281E+01  2.043908284E-07  0.00000E+00  9.000E+00
      21     1     1     2   515   512 -4.763713680E+00  6.141691244E+00  1.015706724E+01  1.278981447E+01  1.685873940E-07  0.00000E+00  9.000E+00
       2     1     1     2   512     0 -2.643315608E+00  3.430832896E+00 -1.983569292E-01  4.348100418E+00  3.300000131E-01  0.00000E+00  9.000E+00
</event>
<event>
      5  10001  2.40292E+09  8.08045E+00 -1.00000E+00  2.07038E-01
      21    -1     0     0   513   515  0.000000000E+00  0.000000000E+00  3.505126595E+01  3.505126595E+01  0.000000000E+00  0.00000E+00  9.000E+00
      21    -1     0     0   512   513  0.000000000E+00  0.000000000E+00 -4.946057200E+00  4.946057200E+00  0.000000000E+00  0.00000E+00  9.000E+00
      -5     1     1     2     0   515  5.037657602E+00 -6.893669755E+00  2.152284389E+01  2.364684942E+01  4.800000191E+00  0.00000E+00  9.000E+00
       5     1     1     2   511     0 -3.237881482E-01  7.717350285E+00  6.186899043E+00  1.099909341E+01  4.800000191E+00  0.00000E+00  9.000E+00
      21     1     1     2   512   511 -4.713869454E+00 -8.236805308E-01  2.395465823E+00  5.351380323E+00  8.940696716E-08  0.00000E+00  9.000E+00
</event>
<event>
      5  10001  2.40292E+09  6.43392E+00 -1.00000E+00  2.20788E-01
      21    -1     0     0   514   513  0.000000000E+00  0.000000000E+00  5.338290290E+00  5.338290290E+00  0.000000000E+00  0.00000E+00  9.000E+00
      21    -1     0     0   512   514  0.000000000E+00  0.000000000E+00 -3.627535954E+02  3.627535954E+02  0.000000000E+00  0.00000E+00  9.000E+00
      21     1     1     2   512   516  4.062952778E+00  1.109873807E+01 -1.889135360E+02  1.892828932E+02  3.814697266E-06  0.00000E+00  9.000E+00
      21     1     1     2   516   511 -1.271248981E+00 -1.689543575E+01 -1.710512629E+02  1.718883543E+02  3.303624740E-06  0.00000E+00  9.000E+00
      21     1     1     2   511   513 -2.791703797E+00  5.796697680E+00  2.549493768E+00  6.920638161E+00  3.919883501E-07  0.00000E+00  9.000E+00
</event>
<event>
      5  10001  2.40292E+09  4.72847E+00 -1.00000E+00  2.47352E-01
      -2    -1     0     0     0   513  0.000000000E+00  0.000000000E+00  3.512135572E+02  3.512135572E+02  0.000000000E+00  0.00000E+00  9.000E+00
      21    -1     0     0   513   512  0.000000000E+00  0.000000000E+00 -1.182067728E+01  1.182067728E+01  0.000000000E+00  0.00000E+00  9.000E+00
      -2     1     1     2     0   511  8.641780227E+00  3.298946275E+00  3.399844885E+02  3.401104596E+02  3.300000131E-01  0.00000E+00  9.000E+00
      21     1     1     2   511   514 -1.302252343E+01 -5.078623259E+00 -6.450874448E+00  1.539455462E+01  1.474537477E-06  0.00000E+00  9.000E+00
      21     1     1     2   514   512  4.380743204E+00  1.779676984E+00  5.859265858E+00  7.529220250E+00  8.429369702E-08  0.00000E+00  9.000E+00
</event>
<event>
      5  10001  2.40292E+09  2.85641E+01 -1.00000E+00  1.54498E-01
       2    -1     0     0   512     0  0.000000000E+00  0.000000000E+00  1.726595131E+02  1.726595131E+02  0.000000000E+00  0.00000E+00  9.000E+00
      21    -1     0     0   511   512  0.000000000E+00  0.000000000E+00 -2.144849763E+00  2.144849763E+00  0.000000000E+00  0.00000E+00  9.000E+00
      21     1     1     2   511   513 -7.106460328E+00 -3.216176742E-01  2.514068067E+01  2.612774466E+01  4.768371582E-07  0.00000E+00  9.000E+00
       2     1     1     2   514     0 -3.730046339E+00  6.756843966E+00  1.209144493E+02  1.211609720E+02  3.300000131E-01  0.00000E+00  9.000E+00
      21     1     1     2   513   514  1.083650667E+01 -6.435226292E+00  2.445953345E+01  2.751564629E+01  6.743495762E-07  0.00000E+00  9.000E+00
</event>
<event>
      5  10001  2.40292E+09  6.23099E+00 -1.00000E+00  2.22877E-01
       4    -1     0     0   512     0  0.000000000E+00  0.000000000E+00  2.659823442E+01  2.659823442E+01  0.000000000E+00  0.00000E+00  9.000E+00
      -3    -1     0     0     0   512  0.000000000E+00  0.000000000E+00 -4.875539459E+01  4.875539459E+01  0.000000000E+00  0.00000E+00  9.000E+00
      -3     1     1     2     0   511  7.437485480E+00  1.030457770E+01 -4.234180236E+01  4.421061794E+01  5.000000000E-01  0.00000E+00  9.000E+00
       4     1     1     2   515     0 -5.463117450E+00 -9.855125270E+00  2.414942690E+01  2.669108402E+01  1.500000000E+00  0.00000E+00  9.000E+00
      21     1     1     2   511   515 -1.974368031E+00 -4.494524257E-01 -3.964784714E+00  4.451927047E+00  8.429369702E-08  0.00000E+00  9.000E+00
</event>
<event>
      5  10001  2.40292E+09  5.23542E+00 -1.00000E+00  2.34991E-01
      21    -1     0     0   514   515  0.000000000E+00  0.000000000E+00  1.050921087E+02  1.050921087E+02  0.000000000E+00  0.00000E+00  9.000E+00
      21    -1     0     0   512   514  0.000000000E+00  0.000000000E+00 -5.136537950E+00  5.136537950E+00  0.000000000E+00  0.00000E+00  9.000E+00
      -1     1     1     2     0   515 -9.308155298E+00  4.229134124E+00  8.980626516E+01  9.038695422E+01  3.300000131E-01  0.00000E+00  9.000E+00
       1     1     1     2   513     0  7.213051054E+00 -9.026398113E+00  5.339632900E+00  1.273281383E+01  3.300000131E-01  0.00000E+00  9.000E+00
      21     1     1     2   512   513  2.095104245E+00  4.797263989E+00  4.809672666E+00  7.108878585E+00  1.192092896E-07  0.00000E+00  9.000E+00
</event>
<event>
      5  10001  2.40292E+09  4.25719E+00 -1.00000E+00  2.57149E-01
      21    -1     0     0   512   513  0.000000000E+00  0.000000000E+00  1.954577239E+00  1.954577239E+00  0.000000000E+00  0.00000E+00  9.000E+00
       1    -1     0     0   513     0  0.000000000E+00  0.000000000E+00 -1.184540483E+02  1.184540483E+02  0.000000000E+00  0.00000E+00  9.000E+00
      21     1     1     2   512   511  3.805727879E+00 -1.210496385E+01 -2.785238113E+01  3.060667981E+01  4.768371582E-07  0.00000E+00  9.000E+00
       1     1     1     2   514     0 -3.078248848E+00  7.658352979E+00 -7.445387011E+01  7.491070458E+01  3.300000131E-01  0.00000E+00  9.000E+00
      21     1     1     2   511   514 -7.274790313E-01  4.446610872E+00 -1.419321981E+01  1.489124114E+01  1.685873940E-07  0.00000E+00  9.000E+00
</event>
<event>
      5  10001  2.40292E+09  9.45967E+00 -1.00000E+00  1.98528E-01
      21    -1     0     0   515   516  0.000000000E+00  0.000000000E+00  3.592901175E+01  3.592901175E+01  0.000000000E+00  0.00000E+00  9.000E+00
      21    -1     0     0   513   515  0.000000000E+00  0.000000000E+00 -1.836554123E+01  1.836554123E+01  0.000000000E+00  0.00000E+00  9.000E+00
      21     1     1     2   514   516 -1.375220265E+01  4.561173312E+00  3.009364206E+01  3.339992024E+01  3.371747881E-07  0.00000E+00  9.000E+00
      21     1     1     2   513   512  3.146608494E+00 -4.765742575E+00 -6.652446770E+00  8.767468012E+00  2.230201594E-07  0.00000E+00  9.000E+00
      21     1     1     2   512   514  1.060559415E+01  2.045692628E-01 -5.877724774E+00  1.212716473E+01  1.460009660E-07  0.00000E+00  9.000E+00
</event>
<event>
      5  10001  2.40292E+09  7.04379E+00 -1.00000E+00  2.15100E-01
       3    -1     0     0   514     0  0.000000000E+00  0.000000000E+00  7.814181811E+01  7.814181811E+01  0.000000000E+00  0.00000E+00  9.000E+00
      21    -1     0     0   512   513  0.000000000E+00  0.000000000E+00 -7.028807937E+01  7.028807937E+01  0.000000000E+00  0.00000E+00  9.000E+00
      21     1     1     2   512   511  9.085258354E+00 -3.067544696E+00 -2.425844409E+00  9.891232022E+00  4.509909734E-07  0.00000E+00  9.000E+00
       3     1     1     2   511     0 -1.447223486E+01  7.605644801E+00  7.331169218E+01  7.511421720E+01  5.000000000E-01  0.00000E+00  9.000E+00
      21     1     1     2   514   513  5.386976507E+00 -4.538100105E+00 -6.303210904E+01  6.342444827E+01  6.743495762E-07  0.00000E+00  9.000E+00
</event>
<event>
      5  10001  2.40292E+09  9.52492E+00 -1.00000E+00  1.98173E-01
      21    -1     0     0   515   512  0.000000000E+00  0.000000000E+00  3.314599401E+01  3.314599401E+01  0.000000000E+00  0.00000E+00  9.000E+00
      21    -1     0     0   516   515  0.000000000E+00  0.000000000E+00 -8.692530189E+00  8.692530189E+00  0.000000000E+00  0.00000E+00  9.000E+00
      21     1     1     2   513   512 -1.466513023E+01 -5.392668778E+00  4.745903327E+00  1.633004959E+01  3.209808354E-07  0.00000E+00  9.000E+00
      21     1     1     2   511   513  1.639825426E+00  5.224035142E-01  4.906682435E+00  5.199756281E+00  1.032382731E-07  0.00000E+00  9.000E+00
      21     1     1     2   516   511  1.302530480E+01  4.870265264E+00  1.480087806E+01  2.030871833E+01  3.769728732E-07  0.00000E+00  9.000E+00
</event>
<event>
      5  10001  2.40292E+09  1.32029E+01 -1.00000E+00  1.82718E-01
      21    -1     0     0   514   513  0.000000000E+00  0.000000000E+00  1.684145948E+02  1.684145948E+02  0.000000000E+00  0.00000E+00  9.000E+00
      21    -1     0     0   516   514  0.000000000E+00  0.000000000E+00 -1.916756486E+00  1.916756486E+00  0.000000000E+00  0.00000E+00  9.000E+00
      21     1     1     2   511   513  6.852311694E+00 -1.000559056E+01  1.205746642E+02  1.211829842E+02  0.000000000E+00  0.00000E+00  9.000E+00
      21     1     1     2   512   511  2.295249051E+00  7.695165661E+00  1.935629929E+01  2.095590764E+01  4.129530925E-07  0.00000E+00  9.000E+00
      21     1     1     2   516   512 -9.147560745E+00  2.310424900E+00  2.656687492E+01  2.819245952E+01  6.743495762E-07  0.00000E+00  9.000E+00
</event>
<event>
      5  10001  2.40292E+09  4.10175E+00 -1.00000E+00  2.60820E-01
      21    -1     0     0   515   511  0.000000000E+00  0.000000000E+00  1.888009130E+02  1.888009130E+02  0.000000000E+00  0.00000E+00  9.000E+00
      21    -1     0     0   513   515  0.000000000E+00  0.000000000E+00 -1.852451078E+00  1.852451078E+00  0.000000000E+00  0.00000E+00  9.000E+00
      21     1     1     2   512   511  8.814866022E+00  9.724875705E+00  1.222890729E+02  1.229914323E+02  1.348699152E-06  0.00000E+00  9.000E+00
      21     1     1     2   516   512 -5.546706585E+00 -1.220348294E+01  5.988773219E+01  6.136962943E+01  1.651812370E-06  0.00000E+00  9.000E+00
      21     1     1     2   513   516 -3.268159437E+00  2.478607231E+00  4.771656868E+00  6.292302375E+00  2.149076030E-07  0.00000E+00  9.000E+00
</event>
<event>
      5  10001  2.40292E+09  3.90095E+00 -1.00000E+00  2.65952E-01
      21    -1     0     0   511   513  0.000000000E+00  0.000000000E+00  3.610472205E+02  3.610472205E+02  0.000000000E+00  0.00000E+00  9.000E+00
      -3    -1     0     0     0   514  0.000000000E+00  0.000000000E+00 -1.059705340E+00  1.059705340E+00  0.000000000E+00  0.00000E+00  9.000E+00
      -3     1     1     2     0   513  8.718381772E+00  6.237382518E+00  3.584038337E+01  3.741254070E+01  5.000000000E-01  0.00000E+00  9.000E+00
      21     1     1     2   512   514 -1.178468825E+01 -8.647619716E+00  2.773955419E+02  2.777803932E+02  5.394796609E-06  0.00000E+00  9.000E+00
      21     1     1     2   511   512  3.066306478E+00  2.410237199E+00  4.675158989E+01  4.691399190E+01  9.536743164E-07  0.00000E+00  9.000E+00
</event>
<event>
      5  10001  2.40292E+09  1.33343E+01 -1.00000E+00  1.82289E-01
      21    -1     0     0   515   512  0.000000000E+00  0.000000000E+00  5.291208974E+01  5.291208974E+01  0.000000000E+00  0.00000E+00  9.000E+00
      21    -1     0     0   513   514  0.000000000E+00  0.000000000E+00 -2.217208755E+01  2.217208755E+01  0.000000000E+00  0.00000E+00  9.000E+00
      21     1     1     2   515   516  7.181703744E+00 -1.031220997E+01 -1.301350985E+01  1.809060480E+01  4.129530925E-07  0.00000E+00  9.000E+00
      21     1     1     2   513   512  5.017345401E+00  1.569621576E+01  3.981405184E+01  4.308948443E+01  4.768371582E-07  0.00000E+00  9.000E+00
      21     1     1     2   516   514 -1.219904914E+01 -5.384005782E+00  3.939460194E+00  1.390408806E+01  3.209808354E-07  0.00000E+00  9.000E+00
</event>
<event>
      5  10001  2.40292E+09  1.66616E+01 -1.00000E+00  1.73145E-01
      21    -1     0     0   511   512  0.000000000E+00  0.000000000E+00  1.390799015E+01  1.390799015E+01  0.000000000E+00  0.00000E+00  9.000E+00
      21    -1     0     0   516   517  0.000000000E+00  0.000000000E+00 -1.020978540E+02  1.020978540E+02  0.000000000E+00  0.00000E+00  9.000E+00
      21     1     1     2   511   517 -2.023688237E+00  1.179392908E+01 -4.743914593E+01  4.892509217E+01  9.536743164E-07  0.00000E+00  9.000E+00
      21     1     1     2   516   513  1.246397312E+01 -2.477890337E+01 -4.204396164E+01  5.036903204E+01  0.000000000E+00  0.00000E+00  9.000E+00
      21     1     1     2   513   512 -1.044028488E+01  1.298497429E+01  1.293243679E+00  1.671171999E+01  2.610894362E-07  0.00000E+00  9.000E+00
</event>
<event>
      5  10001  2.40292E+09  2.47799E+01 -1.00000E+00  1.59001E-01
      21    -1     0     0   514   516  0.000000000E+00  0.000000000E+00  8.543151862E+00  8.543151862E+00  0.000000000E+00  0.00000E+00  9.000E+00
      21    -1     0     0   515   512  0.000000000E+00  0.000000000E+00 -5.729324301E+01  5.729324301E+01  0.000000000E+00  0.00000E+00  9.000E+00
      21     1     1     2   514   512  3.772951684E+00 -7.329028519E+00 -4.097323315E+01  4.179420604E+01  4.768371582E-07  0.00000E+00  9.000E+00
       2     1     1     2   515     0  5.939264287E+00 -3.587153000E+00  9.637801331E-01  7.012866680E+00  3.300000131E-01  0.00000E+00  9.000E+00
      -2     1     1     2     0   516 -9.712215971E+00  1.091618152E+01 -8.740638126E+00  1.702932215E+01  3.300000131E-01  0.00000E+00  9.000E+00
</event>
<event>
      5  10001  2.40292E+09  6.37977E+00 -1.00000E+00  2.21335E-01
       3    -1     0     0   511     0  0.000000000E+00  0.000000000E+00  1.390443701E+02  1.390443701E+02  0.000000000E+00  0.00000E+00  9.000E+00
      21    -1     0     0   513   511  0.000000000E+00  0.000000000E+00 -3.827660044E+01  3.827660044E+01  0.000000000E+00  0.00000E+00  9.000E+00
      21     1     1     2   515   516  6.086392900E+00 -1.040194542E+01  5.879082298E+01  6.001337779E+01  9.536743164E-07  0.00000E+00  9.000E+00
      21     1     1     2   513   515  1.940273357E-01  9.281157612E+00 -3.696187864E+01  3.810981509E+01  9.536743164E-07  0.00000E+00  9.000E+00
       3     1     1     2   516     0 -6.280420235E+00  1.120787809E+00  7.893882529E+01  7.919777763E+01  5.000000000E-01  0.00000E+00  9.000E+00
</event>
<event>
      5  10001  2.40292E+09  1.67174E+00 -1.00000E+00  4.03527E-01
      -2    -1     0     0     0   513  0.000000000E+00  0.000000000E+00  2.349377985E+00  2.349377985E+00  0.000000000E+00  0.00000E+00  9.000E+00
      21    -1     0     0   514   511  0.000000000E+00  0.000000000E+00 -2.910191071E+02  2.910191071E+02  0.000000000E+00  0.00000E+00  9.000E+00
      -2     1     1     2     0   511 -1.942688079E+01  1.649637695E+01 -1.201775424E+02  1.228506604E+02  3.300000131E-01  0.00000E+00  9.000E+00
      21     1     1     2   514   512  1.839838184E+01 -1.517854340E+01 -1.639873416E+02  1.657128144E+02  2.697398305E-06  0.00000E+00  9.000E+00
      21     1     1     2   512   513  1.028498953E+00 -1.317833544E+00 -4.504845084E+00  4.805010362E+00  8.429369702E-08  0.00000E+00  9.000E+00
</event>
<event>
      5  10001  2.40292E+09  5.02663E+00 -1.00000E+00  2.38026E-01
      21    -1     0     0   515   511  0.000000000E+00  0.000000000E+00  8.367272304E+01  8.367272304E+01  0.000000000E+00  0.00000E+00  9.000E+00
      21    -1     0     0   514   513  0.000000000E+00  0.000000000E+00 -1.227290787E+02  1.227290787E+02  0.000000000E+00  0.00000E+00  9.000E+00
      21     1     1     2   515   513  2.870884922E+01 -7.811415514E+00  7.467700851E+01  8.038576887E+01  9.536743164E-07  0.00000E+00  9.000E+00
      21     1     1     2   516   511 -3.238818360E+01  4.386578641E+00 -3.802579564E+01  5.014177542E+01  4.768371582E-07  0.00000E+00  9.000E+00
      21     1     1     2   514   516  3.679334375E+00  3.424836872E+00 -7.570756857E+01  7.587425747E+01  9.536743164E-07  0.00000E+00  9.000E+00
</event>
<event>
      5  10001  2.40292E+09  9.43317E+00 -1.00000E+00  1.98673E-01
       2    -1     0     0   514     0  0.000000000E+00  0.000000000E+00  3.012734207E+02  3.012734207E+02  0.000000000E+00  0.00000E+00  9.000E+00
      -2    -1     0     0     0   512  0.000000000E+00  0.000000000E+00 -2.969268343E+00  2.969268343E+00  0.000000000E+00  0.00000E+00  9.000E+00
      21     1     1     2   513   512 -6.911942203E+00 -2.300951496E+01  6.616667018E+01  7.039347247E+01  1.651812370E-06  0.00000E+00  9.000E+00
       2     1     1     2   514     0 -3.624798273E-01  1.747394942E+01  1.855939283E+02  1.864153572E+02  3.300000131E-01  0.00000E+00  9.000E+00
      -2     1     1     2     0   513  7.274422030E+00  5.535565542E+00  4.654355387E+01  4.743385930E+01  3.300000131E-01  0.00000E+00  9.000E+00
</event>
<event>
      5  10001  2.40292E+09  7.95058E+00 -1.00000E+00  2.07957E-01
      21    -1     0     0   511   513  0.000000000E+00  0.000000000E+00  3.998229220E+02  3.998229220E+02  0.000000000E+00  0.00000E+00  9.000E+00
      21    -1     0     0   515   511  0.000000000E+00  0.000000000E+00 -1.059046822E+01  1.059046822E+01  0.000000000E+00  0.00000E+00  9.000E+00
      21     1     1     2   516   513  1.885218251E+01 -1.431942931E-01  3.788304652E+02  3.792992837E+02  0.000000000E+00  0.00000E+00  9.000E+00
      21     1     1     2   512   516 -1.299175451E+01  4.155249720E+00 -4.698642945E+00  1.442667775E+01  5.990192664E-07  0.00000E+00  9.000E+00
      21     1     1     2   515   512 -5.860428003E+00 -4.012055427E+00  1.510063155E+01  1.668742875E+01  3.769728732E-07  0.00000E+00  9.000E+00
</event>
<event>
      5  10001  2.40292E+09  9.65480E+00 -1.00000E+00  1.97478E-01
      21    -1     0     0   514   516  0.000000000E+00  0.000000000E+00  6.163316915E+01  6.163316915E+01  0.000000000E+00  0.00000E+00  9.000E+00
      21    -1     0     0   515   514  0.000000000E+00  0.000000000E+00 -3.226074627E+01  3.226074627E+01  0.000000000E+00  0.00000E+00  9.000E+00
      21     1     1     2   512   516  4.555403031E+00 -1.994751818E+01  5.482757634E+01  5.852109283E+01  0.000000000E+00  0.00000E+00  9.000E+00
      21     1     1     2   511   512  2.928951221E-01  1.852156041E+01 -1.528372791E+01  2.401512703E+01  8.760057960E-07  0.00000E+00  9.000E+00
      21     1     1     2   515   511 -4.848298153E+00  1.425957769E+00 -1.017142556E+01  1.135769556E+01  6.743495762E-07  0.00000E+00  9.000E+00
</event>
<event>
      5  10001  2.40292E+09  1.26824E+01 -1.00000E+00  1.84486E-01
      21    -1     0     0   513   511  0.000000000E+00  0.000000000E+00  2.985495151E+01  2.985495151E+01  0.000000000E+00  0.00000E+00  9.000E+00
      21    -1     0     0   515   517  0.000000000E+00  0.000000000E+00 -3.045365986E+01  3.045365986E+01  0.000000000E+00  0.00000E+00  9.000E+00
      21     1     1     2   513   517 -4.641489117E+00 -8.709345120E+00  2.725413064E+01  2.898592331E+01  3.371747881E-07  0.00000E+00  9.000E+00
      21     1     1     2   515   512  6.467635102E+00  1.375430685E+00 -1.069448038E+01  1.257354460E+01  3.153981341E-07  0.00000E+00  9.000E+00
      21     1     1     2   512   511 -1.826145985E+00  7.333914435E+00 -1.715835861E+01  1.874914345E+01  5.331201500E-07  0.00000E+00  9.000E+00
</event>
<event>
      5  10001  2.40292E+09  4.88655E+00 -1.00000E+00  2.44443E-01
      21    -1     0     0   514   515  0.000000000E+00  0.000000000E+00  3.148667411E+02  3.148667411E+02  0.000000000E+00  0.00000E+00  9.000E+00
      21    -1     0     0   511   513  0.000000000E+00  0.000000000E+00 -1.824121533E+02  1.824121533E+02  0.000000000E+00  0.00000E+00  9.000E+00
      21     1     1     2   511   516 -9.342740716E+00  3.973466305E+00 -1.911072390E+00  1.033089717E+01  9.718938982E-07  0.00000E+00  9.000E+00
      21     1     1     2   516   515  1.105709303E+01  6.024923099E-01  3.105242569E+02  3.107216382E+02  3.814697266E-06  0.00000E+00  9.000E+00
      21     1     1     2   514   513 -1.714352313E+00 -4.575958615E+00 -1.761585968E+02  1.762263591E+02  2.697398305E-06  0.00000E+00  9.000E+00
</event>
<event>
      5  10001  2.40292E+09  2.21377E+01 -1.00000E+00  1.62771E-01
      21    -1     0     0   512   511  0.000000000E+00  0.000000000E+00  5.089243081E+01  5.089243081E+01  0.000000000E+00  0.00000E+00  9.000E+00
      21    -1     0     0   517   512  0.000000000E+00  0.000000000E+00 -7.821211411E+00  7.821211411E+00  0.000000000E+00  0.00000E+00  9.000E+00
      21     1     1     2   513   511 -3.423359024E+00  6.975574938E+00  3.464593051E+01  3.550659846E+01  6.743495762E-07  0.00000E+00  9.000E+00
      21     1     1     2   515   513  6.169093055E+00  5.518590455E+00  8.031632000E-01  8.316106112E+00  1.460009660E-07  0.00000E+00  9.000E+00
      21     1     1     2   517   515 -2.745734031E+00 -1.249416539E+01  7.622125687E+00  1.489093766E+01  0.000000000E+00  0.00000E+00  9.000E+00
</event>
<event>
      5  10001  2.40292E+09  1.87702E+01 -1.00000E+00  1.68633E-01
      21    -1     0     0   514   511  0.000000000E+00  0.000000000E+00  4.026132349E+00  4.026132349E+00  0.000000000E+00  0.00000E+00  9.000E+00
      21    -1     0     0   516   514  0.000000000E+00  0.000000000E+00 -1.366189121E+02  1.366189121E+02  0.000000000E+00  0.00000E+00  9.000E+00
      21     1     1     2   516   517  9.531949430E+00  3.483513303E+00 -7.131019923E+01  7.202872648E+01  9.536743164E-07  0.00000E+00  9.000E+00
      21     1     1     2   517   512 -1.337085920E+01 -1.271595228E+00 -9.048837533E+00  1.619500821E+01  1.685873940E-07  0.00000E+00  9.000E+00
      21     1     1     2   512   511  3.838909772E+00 -2.211918075E+00 -5.223374301E+01  5.242130977E+01  6.743495762E-07  0.00000E+00  9.000E+00
</event>
<event>
      5  10001  2.40292E+09  1.43475E+01 -1.00000E+00  1.79174E-01
       1    -1     0     0   514     0  0.000000000E+00  0.000000000E+00  4.816576951E+00  4.816576951E+00  0.000000000E+00  0.00000E+00  9.000E+00
      21    -1     0     0   512   513  0.000000000E+00  0.000000000E+00 -1.539288231E+02  1.539288231E+02  0.000000000E+00  0.00000E+00  9.000E+00
      21     1     1     2   514   513 -7.005899615E+00 -4.740818577E+00 -6.866013009E-01  8.487014289E+00  2.787751993E-08  0.00000E+00  9.000E+00
      21     1     1     2   512   515  1.091967046E+01 -3.617910399E+00 -1.152042131E+02  1.157771099E+02  1.348699152E-06  0.00000E+00  9.000E+00
       1     1     1     2   515     0 -3.913770844E+00  8.358728976E+00 -3.322143176E+01  3.448127580E+01  3.300000131E-01  0.00000E+00  9.000E+00
</event>
<event>
      5  10001  2.40292E+09  3.96989E+00 -1.00000E+00  2.64137E-01
      21    -1     0     0   511   516  0.000000000E+00  0.000000000E+00  1.967332934E+01  1.967332934E+01  0.000000000E+00  0.00000E+00  9.000E+00
      -3    -1     0     0     0   511  0.000000000E+00  0.000000000E+00 -1.421655290E+01  1.421655290E+01  0.000000000E+00  0.00000E+00  9.000E+00
      -3     1     1     2     0   512 -4.821857867E+00  1.106475964E+01 -6.465333453E+00  1.370145086E+01  5.000000000E-01  0.00000E+00  9.000E+00
      21     1     1     2   514   516  7.552725259E+00 -9.970470108E+00  1.187320311E+01  1.724606869E+01  1.685873940E-07  0.00000E+00  9.000E+00
      21     1     1     2   512   514 -2.730867393E+00 -1.094289530E+00  4.890677941E-02  2.942362684E+00  4.223935481E-08  0.00000E+00  9.000E+00
</event>
<event>
      5  10001  2.40292E+09  7.93776E+00 -1.00000E+00  2.08049E-01
      21    -1     0     0   513   514  0.000000000E+00  0.000000000E+00  4.998643503E+02  4.998643503E+02  0.000000000E+00  0.00000E+00  9.000E+00
      21    -1     0     0   512   511  0.000000000E+00  0.000000000E+00 -4.736614395E+01  4.736614395E+01  0.000000000E+00  0.00000E+00  9.000E+00
      21     1     1     2   513   515 -5.272961307E+00  1.024446798E+01  4.893445515E+02  4.894801767E+02  0.000000000E+00  0.00000E+00  9.000E+00
      21     1     1     2   512   514 -2.663148157E+00 -1.008241723E+01 -4.510539667E+01  4.629518661E+01  3.844384073E-06  0.00000E+00  9.000E+00
      21     1     1     2   515   511  7.936109464E+00 -1.620507526E-01  8.259051509E+00  1.145513098E+01  1.192092896E-07  0.00000E+00  9.000E+00
</event>
<event>
      5  10001  2.40292E+09  9.78407E+00 -1.00000E+00  1.96800E-01
      21    -1     0     0   516   511  0.000000000E+00  0.000000000E+00  2.200556718E+01  2.200556718E+01  0.000000000E+00  0.00000E+00  9.000E+00
      21    -1     0     0   515   517  0.000000000E+00  0.000000000E+00 -1.805280710E+01  1.805280710E+01  0.000000000E+00  0.00000E+00  9.000E+00
      21     1     1     2   516   517  1.331219746E+01 -1.179176950E+01 -3.869916611E+00  1.819990889E+01  4.214684851E-08  0.00000E+00  9.000E+00
      21     1     1     2   515   512 -9.416011599E+00  2.241332166E+00  5.989005430E+00  1.138213646E+01  1.685873940E-07  0.00000E+00  9.000E+00
      21     1     1     2   512   511 -3.896185857E+00  9.550437337E+00  1.833671264E+00  1.047632893E+01  1.750490088E-07  0.00000E+00  9.000E+00
</event>
<event>
      5  10001  2.40292E+09  5.19569E+00 -1.00000E+00  2.35553E-01
      21    -1     0     0   512   513  0.000000000E+00  0.000000000E+00  7.790884099E-01  7.790884099E-01  0.000000000E+00  0.00000E+00  9.000E+00
       2    -1     0     0   511     0  0.000000000E+00  0.000000000E+00 -5.055328511E+02  5.055328511E+02  0.000000000E+00  0.00000E+00  9.000E+00
       2     1     1     2   512     0  1.319787515E+01 -3.847419953E-01 -3.919857279E+02  3.922081739E+02  3.300000131E-01  0.00000E+00  9.000E+00
       4     1     1     2   511     0 -9.034819336E+00 -2.676631971E+00 -9.646433648E+01  9.693508412E+01  1.500000000E+00  0.00000E+00  9.000E+00
      -4     1     1     2     0   513 -4.163055813E+00  3.061373967E+00 -1.630369838E+01  1.716868152E+01  1.500000000E+00  0.00000E+00  9.000E+00
</event>
<event>
      5  10001  2.40292E+09  9.21059E+00 -1.00000E+00  1.99917E-01
      21    -1     0     0   511   513  0.000000000E+00  0.000000000E+00  1.290972559E+00  1.290972559E+00  0.000000000E+00  0.00000E+00  9.000E+00
       2    -1     0     0   513     0  0.000000000E+00  0.000000000E+00 -1.848711188E+02  1.848711188E+02  0.000000000E+00  0.00000E+00  9.000E+00
      21     1     1     2   512   514  5.659247345E+00 -1.207614906E+01 -5.663866760E+01  5.818762002E+01  1.168007728E-06  0.00000E+00  9.000E+00
       2     1     1     2   514     0 -5.623546163E+00  7.558920630E+00 -1.111645056E+02  1.115635144E+02  3.300000131E-01  0.00000E+00  9.000E+00
      21     1     1     2   511   512 -3.570118174E-02  4.517228431E+00 -1.577697302E+01  1.641095686E+01  1.685873940E-07  0.00000E+00  9.000E+00
</event>
<event>
      5  10001  2.40292E+09  1.32314E+01 -1.00000E+00  1.82625E-01
      21    -1     0     0   515   513  0.000000000E+00  0.000000000E+00  9.386074551E+01  9.386074551E+01  0.000000000E+00  0.00000E+00  9.000E+00
      -5    -1     0     0     0   512  0.000000000E+00  0.000000000E+00 -3.691096576E+00  3.691096576E+00  0.000000000E+00  0.00000E+00  9.000E+00
      21     1     1     2   514   513 -7.739988561E+00 -9.165404272E+00  5.229096163E+01  5.364938701E+01  0.000000000E+00  0.00000E+00  9.000E+00
      21     1     1     2   515   512  1.210799622E+01  6.959669444E+00  3.183667284E+01  3.476513065E+01  4.768371582E-07  0.00000E+00  9.000E+00
      -5     1     1     2     0   514 -4.368007663E+00  2.205734828E+00  6.042014455E+00  9.137324421E+00  4.800000191E+00  0.00000E+00  9.000E+00
</event>
<event>
      5  10001  2.40292E+09  1.14740E+01 -1.00000E+00  1.89044E-01
      21    -1     0     0   511   514  0.000000000E+00  0.000000000E+00  5.385243857E+01  5.385243857E+01  0.000000000E+00  0.00000E+00  9.000E+00
      -5    -1     0     0     0   511  0.000000000E+00  0.000000000E+00 -1.124731748E+01  1.124731748E+01  0.000000000E+00  0.00000E+00  9.000E+00
      -5     1     1     2     0   512  4.812641264E+00 -1.215867971E+01 -2.955473462E+00  1.423972729E+01  4.800000191E+00  0.00000E+00  9.000E+00
      21     1     1     2   513   514  2.366367278E+00  1.399340753E+01  3.645764346E+01  3.912256274E+01  4.768371582E-07  0.00000E+00  9.000E+00
      21     1     1     2   512   513 -7.179008542E+00 -1.834727825E+00  9.102951089E+00  1.173746601E+01  1.192092896E-07  0.00000E+00  9.000E+00
</event>
<event>
      5  10001  2.40292E+09  1.65785E+00 -1.00000E+00  4.05661E-01
      21    -1     0     0   511   513  0.000000000E+00  0.000000000E+00  1.074901105E+01  1.074901105E+01  0.000000000E+00  0.00000E+00  9.000E+00
      21    -1     0     0   512   516  0.000000000E+00  0.000000000E+00 -6.967636524E+02  6.967636524E+02  0.000000000E+00  0.00000E+00  9.000E+00
      21     1     1     2   515   516  3.055224639E+00  1.058880633E+01 -1.692945339E+02  1.696528704E+02  3.303624740E-06  0.00000E+00  9.000E+00
      21     1     1     2   512   513 -2.985625431E+00 -8.932414424E+00 -5.271826221E+02  5.272667437E+02  0.000000000E+00  0.00000E+00  9.000E+00
      21     1     1     2   511   515 -6.959920806E-02 -1.656391909E+00  1.046251474E+01  1.059304927E+01  1.072883606E-06  0.00000E+00  9.000E+00
</event>
<event>
      5  10001  2.40292E+09  1.23532E+01 -1.00000E+00  1.85661E-01
      21    -1     0     0   514   513  0.000000000E+00  0.000000000E+00  4.554866498E+01  4.554866498E+01  0.000000000E+00  0.00000E+00  9.000E+00
      21    -1     0     0   517   516  0.000000000E+00  0.000000000E+00 -3.874766295E+01  3.874766295E+01  0.000000000E+00  0.00000E+00  9.000E+00
      21     1     1     2   512   513  7.391162093E+00 -1.321844680E+01  3.515770095E+01  3.828081176E+01  4.768371582E-07  0.00000E+00  9.000E+00
      21     1     1     2   517   512  2.344109373E+00  2.082279825E+01 -2.607844294E+01  3.345398275E+01  7.539457465E-07  0.00000E+00  9.000E+00
      21     1     1     2   514   516 -9.735271466E+00 -7.604351451E+00 -2.278255977E+00  1.256153342E+01  2.308477966E-07  0.00000E+00  9.000E+00
</event>
<event>
      5  10001  2.40292E+09  8.12985E+00 -1.00000E+00  2.06695E-01
       2    -1     0     0   511     0  0.000000000E+00  0.000000000E+00  9.713094397E+01  9.713094397E+01  0.000000000E+00  0.00000E+00  9.000E+00
      21    -1     0     0   515   511  0.000000000E+00  0.000000000E+00 -6.731500986E+01  6.731500986E+01  0.000000000E+00  0.00000E+00  9.000E+00
      21     1     1     2   516   512 -1.034410242E+01  5.465550426E-01 -4.180106050E+00  1.117015953E+01  3.424026159E-07  0.00000E+00  9.000E+00
      21     1     1     2   515   516  1.041337383E+01  7.582962914E+00 -5.876412087E+01  6.015946794E+01  6.743495762E-07  0.00000E+00  9.000E+00
       2     1     1     2   512     0 -6.927141019E-02 -8.129517957E+00  9.276016103E+01  9.311632636E+01  3.300000131E-01  0.00000E+00  9.000E+00
</event>
<event>
      5  10001  2.40292E+09  8.77957E+00 -1.00000E+00  2.02464E-01
      21    -1     0     0   513   515  0.000000000E+00  0.000000000E+00  2.220058652E+01  2.220058652E+01  0.000000000E+00  0.00000E+00  9.000E+00
      21    -1     0     0   512   514  0.000000000E+00  0.000000000E+00 -6.276571494E+00  6.276571494E+00  0.000000000E+00  0.00000E+00  9.000E+00
      21     1     1     2   513   514 -8.834955598E+00 -4.017040983E+00  1.394052314E+01  1.698620746E+01  1.685873940E-07  0.00000E+00  9.000E+00
      21     1     1     2   511   515  1.230087028E+00  3.425051770E+00  1.155433685E+00  3.818261479E+00  9.657056180E-08  0.00000E+00  9.000E+00
      21     1     1     2   512   511  7.604868570E+00  5.919892132E-01  8.280582047E-01  7.672689072E+00  5.372690075E-08  0.00000E+00  9.000E+00
</event>
<event>
      5  10001  2.40292E+09  4.94345E+00 -1.00000E+00  2.43436E-01
      21    -1     0     0   516   515  0.000000000E+00  0.000000000E+00  3.463025493E+01  3.463025493E+01  0.000000000E+00  0.00000E+00  9.000E+00
      21    -1     0     0   513   516  0.000000000E+00  0.000000000E+00 -2.371345448E+01  2.371345448E+01  0.000000000E+00  0.00000E+00  9.000E+00
      21     1     1     2   511   515 -3.519066064E+00 -1.462960997E+01  2.922533143E+01  3.287140567E+01  3.371747881E-07  0.00000E+00  9.000E+00
      21     1     1     2   512   511  3.395876939E+00  9.687692804E+00 -1.774019356E+01  2.049628843E+01  6.743495762E-07  0.00000E+00  9.000E+00
      21     1     1     2   513   512  1.231891254E-01  4.941917169E+00 -5.683374280E-01  4.976015303E+00  6.495265579E-08  0.00000E+00  9.000E+00
</event>
<event>
      5  10001  2.40292E+09  8.82664E+00 -1.00000E+00  2.02177E-01
      21    -1     0     0   514   512  0.000000000E+00  0.000000000E+00  7.912791419E+01  7.912791419E+01  0.000000000E+00  0.00000E+00  9.000E+00
      21    -1     0     0   513   517  0.000000000E+00  0.000000000E+00 -2.702702273E+01  2.702702273E+01  0.000000000E+00  0.00000E+00  9.000E+00
      21     1     1     2   514   517  5.367124883E+00  1.357596162E+01  7.238018655E+01  7.383768799E+01  9.536743164E-07  0.00000E+00  9.000E+00
      21     1     1     2   513   511  1.663224236E+00 -1.200004443E+01 -2.181259670E+01  2.495108727E+01  0.000000000E+00  0.00000E+00  9.000E+00
      21     1     1     2   511   512 -7.030349119E+00 -1.575917195E+00  1.533301621E+00  7.366161660E+00  7.884953353E-08  0.00000E+00  9.000E+00
</event>
<event>
      5  10001  2.40292E+09  4.01903E+00 -1.00000E+00  2.62878E-01
      21    -1     0     0   515   514  0.000000000E+00  0.000000000E+00  5.656885577E+01  5.656885577E+01  0.000000000E+00  0.00000E+00  9.000E+00
      21    -1     0     0   512   515  0.000000000E+00  0.000000000E+00 -3.276605347E+02  3.276605347E+02  0.000000000E+00  0.00000E+00  9.000E+00
      21     1     1     2   512   516  2.091187958E+00  1.168853473E+01 -3.078975744E+02  3.081264533E+02  5.394796609E-06  0.00000E+00  9.000E+00
      21     1     1     2   516   513  1.918430691E+00 -1.141369572E+01 -1.786397084E+01  2.128554158E+01  1.327458468E-06  0.00000E+00  9.000E+00
      21     1     1     2   513   514 -4.009618649E+00 -2.748390132E-01  5.466986630E+01  5.481739559E+01  1.907348633E-06  0.00000E+00  9.000E+00
</event>
<event>
      5  10001  2.40292E+09  3.48731E+00 -1.00000E+00  2.78223E-01
      -1    -1     0     0     0   511  0.000000000E+00  0.000000000E+00  2.507271620E+01  2.507271620E+01  0.000000000E+00  0.00000E+00  9.000E+00
      21    -1     0     0   511   514  0.000000000E+00  0.000000000E+00 -1.107906534E+01  1.107906534E+01  0.000000000E+00  0.00000E+00  9.000E+00
      -1     1     1     2     0   512 -1.600237191E+00  1.016420517E+01  2.016798820E+01  2.264350842E+01  3.300000131E-01  0.00000E+00  9.000E+00
      21     1     1     2   515   514  1.197154171E+00 -6.132550472E+00 -6.989634563E+00  9.375305047E+00  2.384185791E-07  0.00000E+00  9.000E+00
      21     1     1     2   512   515  4.030830194E-01 -4.031654694E+00  8.152972279E-01  4.132968069E+00  8.752450440E-08  0.00000E+00  9.000E+00
</event>
<event>
      5  10001  2.40292E+09  1.16600E+01 -1.00000E+00  1.88296E-01
      21    -1     0     0   513   512  0.000000000E+00  0.000000000E+00  1.101047261E+02  1.101047261E+02  0.000000000E+00  0.00000E+00  9.000E+00
      21    -1     0     0   511   516  0.000000000E+00  0.000000000E+00 -6.187527130E+00  6.187527130E+00  0.000000000E+00  0.00000E+00  9.000E+00
      21     1     1     2   513   516 -5.155331325E+00  1.067905650E+01  2.957573825E+00  1.222157649E+01  1.884864366E-07  0.00000E+00  9.000E+00
      21     1     1     2   514   512  3.487667982E+00 -6.947322397E+00  9.938797675E+01  9.969151940E+01  0.000000000E+00  0.00000E+00  9.000E+00
      21     1     1     2   511   514  1.667663343E+00 -3.731734106E+00  1.571648402E+00  4.379157358E+00  1.210576058E-07  0.00000E+00  9.000E+00
</event>
<event>
      5  10001  2.40292E+09  2.63221E+01 -1.00000E+00  1.57056E-01
      21    -1     0     0   511   512  0.000000000E+00  0.000000000E+00  3.776151132E+02  3.776151132E+02  0.000000000E+00  0.00000E+00  9.000E+00
      -3    -1     0     0     0   515  0.000000000E+00  0.000000000E+00 -6.178926726E-01  6.178926726E-01  0.000000000E+00  0.00000E+00  9.000E+00
      -3     1     1     2     0   513 -4.086247369E-01 -2.151732138E+00  8.767596382E+00  9.050838175E+00  5.000000000E-01  0.00000E+00  9.000E+00
      21     1     1     2   511   515  2.562380827E+00 -1.194764209E+01  1.626224332E+02  1.630808625E+02  1.907348633E-06  0.00000E+00  9.000E+00
      21     1     1     2   513   512 -2.153756090E+00  1.409937422E+01  2.056071909E+02  2.061013052E+02  2.697398305E-06  0.00000E+00  9.000E+00
</event>
<event>
      5  10001  2.40292E+09  8.43780E+00 -1.00000E+00  2.04626E-01
      21    -1     0     0   514   515  0.000000000E+00  0.000000000E+00  1.014738985E+02  1.014738985E+02  0.000000000E+00  0.00000E+00  9.000E+00
      21    -1     0     0   512   514  0.000000000E+00  0.000000000E+00 -1.866679055E+01  1.866679055E+01  0.000000000E+00  0.00000E+00  9.000E+00
      21     1     1     2   516   515 -6.518703873E+00  7.342244471E+00  9.488885250E+01  9.539547360E+01  1.348699152E-06  0.00000E+00  9.000E+00
      21     1     1     2   512   511  5.514949503E-02 -4.584504035E+00 -1.603823287E+01  1.668069640E+01  5.331201500E-07  0.00000E+00  9.000E+00
      21     1     1     2   511   516  6.463554378E+00 -2.757740436E+00  3.956488320E+00  8.064519040E+00  4.214684851E-08  0.00000E+00  9.000E+00
</event>
<event>
      5  10001  2.40292E+09  1.38369E+01 -1.00000E+00  1.80701E-01
       1    -1     0     0   512     0  0.000000000E+00  0.000000000E+00  1.251664836E+02  1.251664836E+02  0.000000000E+00  0.00000E+00  9.000E+00
      21    -1     0     0   511   513  0.000000000E+00  0.000000000E+00 -3.526690047E+00  3.526690047E+00  0.000000000E+00  0.00000E+00  9.000E+00
      21     1     1     2   512   513  1.375424255E+00  1.001651876E+01  5.982935292E+00  1.174810430E+01  1.460009660E-07  0.00000E+00  9.000E+00
       1     1     1     2   514     0  5.788587049E+00 -3.168936557E+00  6.446779000E+01  6.480551478E+01  3.300000131E-01  0.00000E+00  9.000E+00
      21     1     1     2   511   514 -7.164011304E+00 -6.847582208E+00  5.118906830E+01  5.213955459E+01  9.536743164E-07  0.00000E+00  9.000E+00
</event>
<event>
      5  10001  2.40292E+09  9.10215E+00 -1.00000E+00  2.00540E-01
      -1    -1     0     0     0   515  0.000000000E+00  0.000000000E+00  1.047124779E+00  1.047124779E+00  0.000000000E+00  0.00000E+00  9.000E+00
      21    -1     0     0   512   514  0.000000000E+00  0.000000000E+00 -6.408300554E+02  6.408300554E+02  0.000000000E+00  0.00000E+00  9.000E+00
      21     1     1     2   513   514 -2.736753922E+00 -1.036214232E+01 -4.738018204E+02  4.739230199E+02  5.394796609E-06  0.00000E+00  9.000E+00
      21     1     1     2   512   515  1.013762109E+01  1.087114919E+01 -6.402002587E+01  6.572303218E+01  9.536743164E-07  0.00000E+00  9.000E+00
      -1     1     1     2     0   513 -7.400867168E+00 -5.090068623E-01 -1.019610843E+02  1.022311280E+02  3.300000131E-01  0.00000E+00  9.000E+00
</event>
<event>
      5  10001  2.40292E+09  6.22115E+00 -1.00000E+00  2.22981E-01
      21    -1     0     0   511   513  0.000000000E+00  0.000000000E+00  6.934630510E+00  6.934630510E+00  0.000000000E+00  0.00000E+00  9.000E+00
      21    -1     0     0   516   511  0.000000000E+00  0.000000000E+00 -1.623584526E+01  1.623584526E+01  0.000000000E+00  0.00000E+00  9.000E+00
      21     1     1     2   512   513  7.926592009E+00 -4.156723174E+00 -1.393240156E+00  9.058163531E+00  1.273155770E-07  0.00000E+00  9.000E+00
      21     1     1     2   514   512 -5.587060310E+00  3.507400399E-01 -7.853467451E+00  9.644439460E+00  1.192092896E-07  0.00000E+00  9.000E+00
      21     1     1     2   516   514 -2.339531699E+00  3.805983134E+00 -5.450714780E-02  4.467872784E+00  6.793549741E-08  0.00000E+00  9.000E+00
</event>
<event>
      5  10001  2.40292E+09  5.62646E+00 -1.00000E+00  2.29815E-01
      21    -1     0     0   515   514  0.000000000E+00  0.000000000E+00  1.978902477E+01  1.978902477E+01  0.000000000E+00  0.00000E+00  9.000E+00
      21    -1     0     0   513   517  0.000000000E+00  0.000000000E+00 -1.240637770E+01  1.240637770E+01  0.000000000E+00  0.00000E+00  9.000E+00
      21     1     1     2   515   517  1.395576788E+01  2.219516959E+00  5.282685967E+00  1.508630119E+01  2.308477966E-07  0.00000E+00  9.000E+00
      21     1     1     2   511   514 -1.131698130E+01 -1.217244602E+00 -2.554695688E+00  1.166542842E+01  1.763129170E-07  0.00000E+00  9.000E+00
      21     1     1     2   513   511 -2.638786575E+00 -1.002272357E+00  4.654656787E+00  5.443672866E+00  5.960464478E-08  0.00000E+00  9.000E+00
</event>
<event>
      5  10001  2.40292E+09  4.73087E+00 -1.00000E+00  2.47307E-01
      -2    -1     0     0     0   512  0.000000000E+00  0.000000000E+00  1.910803667E+02  1.910803667E+02  0.000000000E+00  0.00000E+00  9.000E+00
      21    -1     0     0   514   511  0.000000000E+00  0.000000000E+00 -1.222139213E+00  1.222139213E+00  0.000000000E+00  0.00000E+00  9.000E+00
      21     1     1     2   515   511  5.271297683E+00  6.810404197E+00  8.825515604E+01  8.867435228E+01  1.651812370E-06  0.00000E+00  9.000E+00
      21     1     1     2   514   512 -6.552009347E+00 -1.272937237E+01  7.031311671E+01  7.175583690E+01  1.348699152E-06  0.00000E+00  9.000E+00
      -2     1     1     2     0   515  1.280711664E+00  5.918968172E+00  3.128995472E+01  3.187231672E+01  3.300000131E-01  0.00000E+00  9.000E+00
</event>
<event>
      5  10001  2.40292E+09  8.66531E+00 -1.00000E+00  2.03172E-01
      21    -1     0     0   513   511  0.000000000E+00  0.000000000E+00  6.536198138E+01  6.536198138E+01  0.000000000E+00  0.00000E+00  9.000E+00
      21    -1     0     0   516   515  0.000000000E+00  0.000000000E+00 -5.705607712E+00  5.705607712E+00  0.000000000E+00  0.00000E+00  9.000E+00
      21     1     1     2   513   515 -8.522711416E+00 -1.247555701E+01  9.942758976E+00  1.808686232E+01  3.371747881E-07  0.00000E+00  9.000E+00
      21     1     1     2   516   512  1.155202698E+00  1.066761385E+01  2.939059390E+01  3.128800870E+01  4.768371582E-07  0.00000E+00  9.000E+00
      21     1     1     2   512   511  7.367508718E+00  1.807943155E+00  2.032302079E+01  2.169271807E+01  2.384185791E-07  0.00000E+00  9.000E+00
</event>
<event>
      5  10001  2.40292E+09  1.49424E+01 -1.00000E+00  1.77494E-01
      21    -1     0     0   512   511  0.000000000E+00  0.000000000E+00  2.371114592E+01  2.371114592E+01  0.000000000E+00  0.00000E+00  9.000E+00
      -3    -1     0     0     0   514  0.000000000E+00  0.000000000E+00 -2.346900173E+01  2.346900173E+01  0.000000000E+00  0.00000E+00  9.000E+00
      -3     1     1     2     0   513 -1.014057064E+01  3.596201239E+00 -1.068067650E+01  1.516874044E+01  5.000000000E-01  0.00000E+00  9.000E+00
      21     1     1     2   512   514  6.047291055E+00 -1.393237179E+01  1.380729441E+01  2.052613193E+01  4.460403188E-07  0.00000E+00  9.000E+00
      21     1     1     2   513   511  4.093279583E+00  1.033617055E+01 -2.884473724E+00  1.148527527E+01  2.795705652E-07  0.00000E+00  9.000E+00
</event>
<event>
      5  10001  2.40292E+09  5.10012E+00 -1.00000E+00  2.36934E-01
       4    -1     0     0   512     0  0.000000000E+00  0.000000000E+00  4.155137302E+01  4.155137302E+01  0.000000000E+00  0.00000E+00  9.000E+00
       1    -1     0     0   511     0  0.000000000E+00  0.000000000E+00 -3.355022100E+02  3.355022100E+02  0.000000000E+00  0.00000E+00  9.000E+00
       1     1     1     2   513     0  2.726296365E+00 -8.574008035E+00 -3.319532921E+02  3.320753579E+02  3.300000131E-01  0.00000E+00  9.000E+00
       4     1     1     2   511     0 -7.817104766E+00  8.878224614E+00  3.805366090E+01  3.987807803E+01  1.500000000E+00  0.00000E+00  9.000E+00
      21     1     1     2   512   513  5.090808401E+00 -3.042165794E-01 -5.120575489E-02  5.100147050E+00  1.027329432E-07  0.00000E+00  9.000E+00
</event>
<event>
      5  10001  2.40292E+09  3.58359E+00 -1.00000E+00  2.75133E-01
      21    -1     0     0   514   511  0.000000000E+00  0.000000000E+00  2.190661252E+00  2.190661252E+00  0.000000000E+00  0.00000E+00  9.000E+00
      21    -1     0     0   515   514  0.000000000E+00  0.000000000E+00 -1.162108323E+02  1.162108323E+02  0.000000000E+00  0.00000E+00  9.000E+00
      21     1     1     2   515   513 -3.477974961E+00 -9.399915583E+00 -1.026821376E+02  1.031701318E+02  2.697398305E-06  0.00000E+00  9.000E+00
      21     1     1     2   516   511  6.175824278E-01  2.279570940E+00 -3.804655367E+00  4.478085996E+00  1.115100797E-07  0.00000E+00  9.000E+00
      21     1     1     2   513   516  2.860392533E+00  7.120344643E+00 -7.533378090E+00  1.075327572E+01  1.192092896E-07  0.00000E+00  9.000E+00
</event>
<event>
      5  10001  2.40292E+09  4.39072E+00 -1.00000E+00  2.54184E-01
       1    -1     0     0   513     0  0.000000000E+00  0.000000000E+00  1.897487618E+02  1.897487618E+02  0.000000000E+00  0.00000E+00  9.000E+00
      21    -1     0     0   511   514  0.000000000E+00  0.000000000E+00 -1.228281766E+01  1.228281766E+01  0.000000000E+00  0.00000E+00  9.000E+00
      21     1     1     2   513   514  1.365055634E+01  2.654410390E+00  1.747868628E+02  1.753391884E+02  1.907348633E-06  0.00000E+00  9.000E+00
       1     1     1     2   512     0 -9.276774038E+00 -3.036876028E+00  1.254206887E+01  1.589633744E+01  3.300000131E-01  0.00000E+00  9.000E+00
      21     1     1     2   511   512 -4.373782301E+00  3.824656388E-01 -9.862987505E+00  1.079605364E+01  3.371747881E-07  0.00000E+00  9.000E+00
</event>
<event>
      5  10001  2.40292E+09  4.65205E+00 -1.00000E+00  2.48821E-01
      21    -1     0     0   513   512  0.000000000E+00  0.000000000E+00  9.541415730E+00  9.541415730E+00  0.000000000E+00  0.00000E+00  9.000E+00
      21    -1     0     0   511   516  0.000000000E+00  0.000000000E+00 -1.766341453E+02  1.766341453E+02  0.000000000E+00  0.00000E+00  9.000E+00
      21     1     1     2   515   516  5.943353476E+00 -9.598624559E+00 -8.185620304E+01  8.263107781E+01  0.000000000E+00  0.00000E+00  9.000E+00
      21     1     1     2   511   512 -2.731500113E+00  1.296396688E+01 -9.329963915E+01  9.423559941E+01  0.000000000E+00  0.00000E+00  9.000E+00
      21     1     1     2   513   515 -3.211853363E+00 -3.365342323E+00  8.063112670E+00  9.308883762E+00  2.920019320E-07  0.00000E+00  9.000E+00
</event>
<event>
      5  10001  2.40292E+09  7.46493E+00 -1.00000E+00  2.11612E-01
      21    -1     0     0   514   511  0.000000000E+00  0.000000000E+00  1.808261400E+00  1.808261400E+00  0.000000000E+00  0.00000E+00  9.000E+00
      21    -1     0     0   517   515  0.000000000E+00  0.000000000E+00 -1.793259421E+02  1.793259421E+02  0.000000000E+00  0.00000E+00  9.000E+00
      21     1     1     2   514   515 -6.421868743E+00  7.070619928E+00 -1.513263790E+02  1.516275273E+02  1.907348633E-06  0.00000E+00  9.000E+00
      21     1     1     2   512   511  3.795343656E+00 -7.430560853E-01 -1.980122174E+00  4.344841727E+00  2.874031890E-07  0.00000E+00  9.000E+00
      21     1     1     2   517   512  2.626525087E+00 -6.327563843E+00 -2.421117951E+01  2.516183442E+01  5.840038640E-07  0.00000E+00  9.000E+00
</event>
<event>
      5  10001  2.40292E+09  5.99332E+00 -1.00000E+00  2.25468E-01
      21    -1     0     0   513   511  0.000000000E+00  0.000000000E+00  2.845510869E+00  2.845510869E+00  0.000000000E+00  0.00000E+00  9.000E+00
       1    -1     0     0   512     0  0.000000000E+00  0.000000000E+00 -1.306767340E+02  1.306767340E+02  0.000000000E+00  0.00000E+00  9.000E+00
      21     1     1     2   512   511 -8.306632202E+00 -5.012247998E+00 -8.161426723E+00  1.267799884E+01  4.129530925E-07  0.00000E+00  9.000E+00
       1     1     1     2   514     0  9.419037350E+00  2.186915318E+00 -1.140236879E+02  1.144334355E+02  3.300000131E-01  0.00000E+00  9.000E+00
      21     1     1     2   513   514 -1.112405148E+00  2.825332680E+00 -5.646108479E+00  6.410810473E+00  1.192092896E-07  0.00000E+00  9.000E+00
</event>
<event>
      5  10001  2.40292E+09  3.19964E+00 -1.00000E+00  2.88497E-01
      21    -1     0     0   515   511  0.000000000E+00  0.000000000E+00  3.894789121E+01  3.894789121E+01  0.000000000E+00  0.00000E+00  9.000E+00
      21    -1     0     0   516   515  0.000000000E+00  0.000000000E+00 -6.541223292E+00  6.541223292E+00  0.000000000E+00  0.00000E+00  9.000E+00
      21     1     1     2   516   512  1.239052675E-01  1.402702266E+01  7.048599162E+00  1.569890019E+01  2.920019320E-07  0.00000E+00  9.000E+00
      21     1     1     2   517   511  1.027061641E+00 -1.165558427E+01  2.426074500E+01  2.693494475E+01  3.371747881E-07  0.00000E+00  9.000E+00
      21     1     1     2   512   517 -1.150966909E+00 -2.371438386E+00  1.097323752E+00  2.855269560E+00  2.980232239E-08  0.00000E+00  9.000E+00
</event>
<event>
      5  10001  2.40292E+09  3.84766E+01 -1.00000E+00  1.45862E-01
      21    -1     0     0   513   516  0.000000000E+00  0.000000000E+00  7.236215647E+01  7.236215647E+01  0.000000000E+00  0.00000E+00  9.000E+00
      21    -1     0     0   512   514  0.000000000E+00  0.000000000E+00 -5.583741717E+01  5.583741717E+01  0.000000000E+00  0.00000E+00  9.000E+00
      21     1     1     2   513   514  2.784985247E+01  1.285171196E+01 -4.409436774E+01  5.371307149E+01  1.261592536E-06  0.00000E+00  9.000E+00
      21     1     1     2   511   516 -2.078324604E+01  4.800111851E+00  1.834798341E+01  2.813597137E+01  3.371747881E-07  0.00000E+00  9.000E+00
      21     1     1     2   512   511 -7.066606435E+00 -1.765182381E+01  4.227112363E+01  4.635053077E+01  0.000000000E+00  0.00000E+00  9.000E+00
</event>
<event>
      5  10001  2.40292E+09  2.30184E+01 -1.00000E+00  1.61446E-01
      21    -1     0     0   515   511  0.000000000E+00  0.000000000E+00  3.642936569E+01  3.642936569E+01  0.000000000E+00  0.00000E+00  9.000E+00
      21    -1     0     0   512   515  0.000000000E+00  0.000000000E+00 -2.394101731E+01  2.394101731E+01  0.000000000E+00  0.00000E+00  9.000E+00
      21     1     1     2   512   517 -6.148729743E+00  1.579882413E+00 -1.369323841E+01  1.509329931E+01  2.384185791E-07  0.00000E+00  9.000E+00
      21     1     1     2   513   511  7.551434291E+00  2.536344318E+00  3.475907708E+01  3.566021090E+01  9.536743164E-07  0.00000E+00  9.000E+00
      21     1     1     2   517   513 -1.402704548E+00 -4.116226731E+00 -8.577490285E+00  9.616872784E+00  1.685873940E-07  0.00000E+00  9.000E+00
</event>
<event>
      5  10001  2.40292E+09  1.21466E+01 -1.00000E+00  1.86422E-01
      21    -1     0     0   514   513  0.000000000E+00  0.000000000E+00  1.844380424E+02  1.844380424E+02  0.000000000E+00  0.00000E+00  9.000E+00
      21    -1     0     0   516   514  0.000000000E+00  0.000000000E+00 -7.563888297E+00  7.563888297E+00  0.000000000E+00  0.00000E+00  9.000E+00
      21     1     1     2   516   512  3.373996734E+00  1.111635444E+01 -2.644587780E+00  1.191432057E+01  5.551557544E-07  0.00000E+00  9.000E+00
      21     1     1     2   512   511 -1.967519350E+00 -7.027410329E+00  5.358377656E+01  5.407843137E+01  9.536743164E-07  0.00000E+00  9.000E+00
      21     1     1     2   511   513 -1.406477384E+00 -4.088944112E+00  1.259349653E+02  1.260091787E+02  1.348699152E-06  0.00000E+00  9.000E+00
</event>
<event>
      5  10001  2.40292E+09  3.34712E+00 -1.00000E+00  2.83021E-01
      -1    -1     0     0     0   513  0.000000000E+00  0.000000000E+00  2.181255310E+01  2.181255310E+01  0.000000000E+00  0.00000E+00  9.000E+00
      21    -1     0     0   511   514  0.000000000E+00  0.000000000E+00 -6.838078187E+00  6.838078187E+00  0.000000000E+00  0.00000E+00  9.000E+00
      -1     1     1     2     0   512 -9.591596097E+00 -4.365259975E+00  1.419018483E+01  1.767836123E+01  3.300000131E-01  0.00000E+00  9.000E+00
      21     1     1     2   511   513  7.843348541E+00  4.241333139E+00 -2.813263831E-01  8.921107984E+00  5.333803990E-08  0.00000E+00  9.000E+00
      21     1     1     2   512   514  1.748247556E+00  1.239268365E-01  1.065616461E+00  2.051162066E+00  4.942156062E-08  0.00000E+00  9.000E+00
</event>
<event>
      5  10001  2.40292E+09  5.10229E+00 -1.00000E+00  2.36903E-01
       2    -1     0     0   514     0  0.000000000E+00  0.000000000E+00  5.188389464E+01  5.188389464E+01  0.000000000E+00  0.00000E+00  9.000E+00
      21    -1     0     0   512   514  0.000000000E+00  0.000000000E+00 -6.369985043E+01  6.369985043E+01  0.000000000E+00  0.00000E+00  9.000E+00
      21     1     1     2   512   515  6.469439336E+00  9.198665042E+00 -6.155733198E+01  6.257614725E+01  6.743495762E-07  0.00000E+00  9.000E+00
       2     1     1     2   511     0 -7.871323624E+00 -4.600967870E+00  4.605533929E+01  4.695029093E+01  3.300000131E-01  0.00000E+00  9.000E+00
      21     1     1     2   515   511  1.401884287E+00 -4.597697171E+00  3.686036896E+00  6.057306896E+00  1.264405455E-07  0.00000E+00  9.000E+00
</event>
<event>
      5  10001  2.40292E+09  3.02784E+00 -1.00000E+00  2.95518E-01
       2    -1     0     0   514     0  0.000000000E+00  0.000000000E+00  2.174195492E+02  2.174195492E+02  0.000000000E+00  0.00000E+00  9.000E+00
      -4    -1     0     0     0   514  0.000000000E+00  0.000000000E+00 -1.994725020E+00  1.994725020E+00  0.000000000E+00  0.00000E+00  9.000E+00
      21     1     1     2   511   513  6.452089488E+00  6.182219534E+00  2.344437258E+01  2.508959750E+01  8.920806376E-07  0.00000E+00  9.000E+00
       2     1     1     2   513     0 -9.063791550E+00 -7.698329710E+00  1.900843237E+02  1.904562302E+02  3.300000131E-01  0.00000E+00  9.000E+00
      -4     1     1     2     0   511  2.611702062E+00  1.516110177E+00  1.896127929E+00  3.868446568E+00  1.500000000E+00  0.00000E+00  9.000E+00
</event>
<event>
      5  10001  2.40292E+09  6.63054E+00 -1.00000E+00  2.18863E-01
      -3    -1     0     0     0   511  0.000000000E+00  0.000000000E+00  3.048727081E+01  3.048727081E+01  0.000000000E+00  0.00000E+00  9.000E+00
      21    -1     0     0   515   512  0.000000000E+00  0.000000000E+00 -1.571948799E+02  1.571948799E+02  0.000000000E+00  0.00000E+00  9.000E+00
      21     1     1     2   516   511  2.169126325E+00 -1.867923425E+01 -6.966274861E+01  7.215620171E+01  9.536743164E-07  0.00000E+00  9.000E+00
      21     1     1     2   515   516 -7.304304453E+00  1.448486098E+01 -8.513130015E+01  8.666315437E+01  9.536743164E-07  0.00000E+00  9.000E+00
      -3     1     1     2     0   512  5.135178128E+00  4.194373269E+00  2.808643966E+01  2.886279464E+01  5.000000000E-01  0.00000E+00  9.000E+00
</event>
<event>
      5  10001  2.40292E+09  7.83060E+00 -1.00000E+00  2.08826E-01
      21    -1     0     0   513   511  0.000000000E+00  0.000000000E+00  5.983064158E+01  5.983064158E+01  0.000000000E+00  0.00000E+00  9.000E+00
      21    -1     0     0   514   513  0.000000000E+00  0.000000000E+00 -5.622298407E+01  5.622298407E+01  0.000000000E+00  0.00000E+00  9.000E+00
      21     1     1     2   512   515  3.007877276E+00  8.228752218E+00  2.355550330E+01  2.513207959E+01  5.840038640E-07  0.00000E+00  9.000E+00
      21     1     1     2   514   512  1.448124392E+00 -1.466788108E+01 -5.400270485E+01  5.597799506E+01  1.348699152E-06  0.00000E+00  9.000E+00
      21     1     1     2   515   511 -4.456001668E+00  6.439128860E+00  3.405485906E+01  3.494355101E+01  8.259061849E-07  0.00000E+00  9.000E+00
</event>
<event>
      5  10001  2.40292E+09  7.39518E+00 -1.00000E+00  2.12168E-01
      21    -1     0     0   512   511  0.000000000E+00  0.000000000E+00  7.782200977E+00  7.782200977E+00  0.000000000E+00  0.00000E+00  9.000E+00
      21    -1     0     0   511   513  0.000000000E+00  0.000000000E+00 -8.441595727E+01  8.441595727E+01  0.000000000E+00  0.00000E+00  9.000E+00
      -2     1     1     2     0   513  1.004383173E+00 -1.306333892E+01 -7.159707230E+01  7.278673829E+01  3.300000131E-01  0.00000E+00  9.000E+00
       2     1     1     2   514     0 -2.005036153E-01  6.725078264E+00  4.377781283E+00  8.033725682E+00  3.300000131E-01  0.00000E+00  9.000E+00
      21     1     1     2   512   514 -8.038795580E-01  6.338260657E+00 -9.414465273E+00  1.137769427E+01  1.685873940E-07  0.00000E+00  9.000E+00
</event>
<event>
      5  10001  2.40292E+09  8.95987E+00 -1.00000E+00  2.01376E-01
      21    -1     0     0   515   513  0.000000000E+00  0.000000000E+00  1.598307455E+02  1.598307455E+02  0.000000000E+00  0.00000E+00  9.000E+00
      21    -1     0     0   511   517  0.000000000E+00  0.000000000E+00 -6.542465231E+00  6.542465231E+00  0.000000000E+00  0.00000E+00  9.000E+00
      21     1     1     2   515   516  7.094360828E+00  8.637740125E+00  9.502429515E+01  9.567945013E+01  1.348699152E-06  0.00000E+00  9.000E+00
      21     1     1     2   511   513 -4.189413833E+00 -1.711361932E+01  5.912335564E+01  6.169277378E+01  1.168007728E-06  0.00000E+00  9.000E+00
      21     1     1     2   516   517 -2.904946995E+00  8.475879197E+00 -8.593705560E-01  9.000986777E+00  3.152220816E-07  0.00000E+00  9.000E+00
</event>
<event>
      5  10001  2.40292E+09  4.67622E+01 -1.00000E+00  1.40725E-01
       1    -1     0     0   515     0  0.000000000E+00  0.000000000E+00  1.459622810E+02  1.459622810E+02  0.000000000E+00  0.00000E+00  9.000E+00
      21    -1     0     0   514   515  0.000000000E+00  0.000000000E+00 -8.952818284E+00  8.952818284E+00  0.000000000E+00  0.00000E+00  9.000E+00
      21     1     1     2   514   512 -8.537006014E-01  1.660779212E+01  4.000036113E+00  1.710403030E+01  4.730972012E-07  0.00000E+00  9.000E+00
      21     1     1     2   512   511  1.355659571E+01 -1.501211026E+00  3.039354022E+01  3.331369401E+01  4.768371582E-07  0.00000E+00  9.000E+00
       1     1     1     2   511     0 -1.270289511E+01 -1.510658109E+01  1.026158864E+02  1.044973750E+02  3.300000131E-01  0.00000E+00  9.000E+00
</event>
<event>
      5  10001  2.40292E+09  6.30090E+00 -1.00000E+00  2.22145E-01
      21    -1     0     0   513   512  0.000000000E+00  0.000000000E+00  4.605104665E-01  4.605104665E-01  0.000000000E+00  0.00000E+00  9.000E+00
      21    -1     0     0   514   516  0.000000000E+00  0.000000000E+00 -5.145264881E+02  5.145264881E+02  0.000000000E+00  0.00000E+00  9.000E+00
      21     1     1     2   513   516  1.356450270E+01 -1.969366871E+00 -3.478945127E+02  3.481644240E+02  3.814697266E-06  0.00000E+00  9.000E+00
      21     1     1     2   515   512 -6.547930742E+00 -1.077107751E+00 -9.771300674E+01  9.793807862E+01  0.000000000E+00  0.00000E+00  9.000E+00
      21     1     1     2   514   515 -7.016571962E+00  3.046474621E+00 -6.845845813E+01  6.888449593E+01  9.536743164E-07  0.00000E+00  9.000E+00
</event>
<event>
      5  10001  2.40292E+09  1.10931E+01 -1.00000E+00  1.90634E-01
      21    -1     0     0   511   514  0.000000000E+00  0.000000000E+00  8.899676760E+00  8.899676760E+00  0.000000000E+00  0.00000E+00  9.000E+00
      -2    -1     0     0     0   511  0.000000000E+00  0.000000000E+00 -1.901584120E+02  1.901584120E+02  0.000000000E+00  0.00000E+00  9.000E+00
      -2     1     1     2     0   513 -3.941920462E+00 -1.511650379E+01 -1.604313016E+02  1.611904429E+02  3.300000131E-01  0.00000E+00  9.000E+00
      21     1     1     2   512   514 -3.103037268E+00  1.225385898E+01  2.885029401E+00  1.296569686E+01  6.597025282E-07  0.00000E+00  9.000E+00
      21     1     1     2   513   512  7.044957730E+00  2.862644803E+00 -2.371246301E+01  2.490194905E+01  0.000000000E+00  0.00000E+00  9.000E+00
</event>
<event>
      5  10001  2.40292E+09  1.72878E+01 -1.00000E+00  1.71722E-01
      21    -1     0     0   515   512  0.000000000E+00  0.000000000E+00  1.565894336E+01  1.565894336E+01  0.000000000E+00  0.00000E+00  9.000E+00
      21    -1     0     0   516   515  0.000000000E+00  0.000000000E+00 -4.927766023E+02  4.927766023E+02  0.000000000E+00  0.00000E+00  9.000E+00
      21     1     1     2   516   517  9.726940571E+00 -5.746508296E+00 -4.872771238E+02  4.874080745E+02  7.629394531E-06  0.00000E+00  9.000E+00
      21     1     1     2   517   511  3.106639845E+00  2.338581060E+00  5.931118754E+00  7.092132414E+00  9.973764736E-07  0.00000E+00  9.000E+00
      21     1     1     2   511   512 -1.283358042E+01  3.407927236E+00  4.228346117E+00  1.393533872E+01  1.158846742E-06  0.00000E+00  9.000E+00
</event>
<event>
      5  10001  2.40292E+09  7.51042E+00 -1.00000E+00  2.11254E-01
      21    -1     0     0   513   515  0.000000000E+00  0.000000000E+00  1.184376386E+02  1.184376386E+02  0.000000000E+00  0.00000E+00  9.000E+00
      21    -1     0     0   514   512  0.000000000E+00  0.000000000E+00 -3.986278773E+01  3.986278773E+01  0.000000000E+00  0.00000E+00  9.000E+00
      21     1     1     2   513   512 -9.612338802E+00  1.013899894E+01  8.405132846E+01  8.520459009E+01  1.907348633E-06  0.00000E+00  9.000E+00
      21     1     1     2   514   516  4.146495460E+00 -4.988172338E+00 -3.859505775E+01  3.913634846E+01  9.536743164E-07  0.00000E+00  9.000E+00
      21     1     1     2   516   515  5.465843342E+00 -5.150826602E+00  3.311858012E+01  3.395948773E+01  0.000000000E+00  0.00000E+00  9.000E+00
</event>
<event>
      5  10001  2.40292E+09  4.21108E+00 -1.00000E+00  2.58213E-01
      21    -1     0     0   511   512  0.000000000E+00  0.000000000E+00  1.633958018E+01  1.633958018E+01  0.000000000E+00  0.00000E+00  9.000E+00
      21    -1     0     0   517   515  0.000000000E+00  0.000000000E+00 -9.107332686E+00  9.107332686E+00  0.000000000E+00  0.00000E+00  9.000E+00
      21     1     1     2   511   515 -8.086936701E+00 -6.233402480E+00  8.715245204E+00  1.342420764E+01  2.064765462E-07  0.00000E+00  9.000E+00
      21     1     1     2   513   512  3.974232954E+00  6.275452470E+00 -2.405057406E+00  7.807696997E+00  1.115100797E-07  0.00000E+00  9.000E+00
      21     1     1     2   517   513  4.112703747E+00 -4.204998996E-02  9.220596955E-01  4.215008231E+00  4.592846336E-08  0.00000E+00  9.000E+00
</event>
<event>
      5  10001  2.40292E+09  1.33571E+01 -1.00000E+00  1.82215E-01
      21    -1     0     0   514   512  0.000000000E+00  0.000000000E+00  3.439528197E+01  3.439528197E+01  0.000000000E+00  0.00000E+00  9.000E+00
      21    -1     0     0   516   514  0.000000000E+00  0.000000000E+00 -1.582346347E+01  1.582346347E+01  0.000000000E+00  0.00000E+00  9.000E+00
      21     1     1     2   513   512 -5.889481303E+00  1.368041958E+01  2.155818751E+01  2.620296393E+01  0.000000000E+00  0.00000E+00  9.000E+00
      21     1     1     2   516   511  5.510653288E+00 -5.140010902E+00 -1.030210198E+01  1.276402432E+01  1.192092896E-07  0.00000E+00  9.000E+00
      21     1     1     2   511   513  3.788280150E-01 -8.540408680E+00  7.315732959E+00  1.125175719E+01  1.460009660E-07  0.00000E+00  9.000E+00
</event>
<event>
      5  10001  2.40292E+09  3.38169E+00 -1.00000E+00  2.81803E-01
      21    -1     0     0   511   515  0.000000000E+00  0.000000000E+00  8.470011719E+01  8.470011719E+01  0.000000000E+00  0.00000E+00  9.000E+00
       2    -1     0     0   512     0  0.000000000E+00  0.000000000E+00 -2.394364543E+00  2.394364543E+00  0.000000000E+00  0.00000E+00  9.000E+00
      21     1     1     2   514   515  1.438140735E+00  6.437244626E+00  5.140858972E+01  5.183000544E+01  0.000000000E+00  0.00000E+00  9.000E+00
       2     1     1     2   511     0 -4.694539488E+00 -9.592125451E+00  1.312985781E+01  1.692777711E+01  3.300000131E-01  0.00000E+00  9.000E+00
      21     1     1     2   512   514  3.256398753E+00  3.154880825E+00  1.776730512E+01  1.833669918E+01  2.384185791E-07  0.00000E+00  9.000E+00
</event>
<event>
      5  10001  2.40292E+09  6.03936E+00 -1.00000E+00  2.24954E-01
      21    -1     0     0   513   515  0.000000000E+00  0.000000000E+00  2.469955033E+01  2.469955033E+01  0.000000000E+00  0.00000E+00  9.000E+00
      21    -1     0     0   512   514  0.000000000E+00  0.000000000E+00 -1.527120456E+01  1.527120456E+01  0.000000000E+00  0.00000E+00  9.000E+00
      21     1     1     2   513   514 -1.630020922E+01 -3.888993408E+00  1.345112858E+01  2.148846087E+01  1.685873940E-07  0.00000E+00  9.000E+00
      21     1     1     2   511   515  7.496090242E+00  2.274354542E+00 -5.275207765E+00  9.444144983E+00  8.429369702E-08  0.00000E+00  9.000E+00
      21     1     1     2   512   511  8.804118980E+00  1.614638867E+00  1.252424960E+00  9.038149034E+00  1.794337418E-07  0.00000E+00  9.000E+00
</event>
<event>
      5  10001  2.40292E+09  7.47422E+00 -1.00000E+00  2.11539E-01
      21    -1     0     0   516   513  0.000000000E+00  0.000000000E+00  1.948429640E+01  1.948429640E+01  0.000000000E+00  0.00000E+00  9.000E+00
      21    -1     0     0   512   516  0.000000000E+00  0.000000000E+00 -3.266799833E+01  3.266799833E+01  0.000000000E+00  0.00000E+00  9.000E+00
      21     1     1     2   511   515  5.044712540E+00  7.400026254E+00 -4.582688193E+00  1.006034514E+01  1.685873940E-07  0.00000E+00  9.000E+00
      21     1     1     2   512   511 -5.227444900E-01 -1.335113995E+01 -2.258184532E+01  2.623863445E+01  0.000000000E+00  0.00000E+00  9.000E+00
      21     1     1     2   515   513 -4.521968050E+00  5.951113700E+00  1.398083158E+01  1.585331514E+01  2.384185791E-07  0.00000E+00  9.000E+00
</event>
<event>
      5  10001  2.40292E+09  7.00944E+00 -1.00000E+00  2.15400E-01
      -4    -1     0     0     0   513  0.000000000E+00  0.000000000E+00  3.172830126E+00  3.172830126E+00  0.000000000E+00  0.00000E+00  9.000E+00
      21    -1     0     0   511   514  0.000000000E+00  0.000000000E+00 -7.413870517E+01  7.413870517E+01  0.000000000E+00  0.00000E+00  9.000E+00
      -4     1     1     2     0   514  1.190524067E+01 -2.113017709E+00 -1.296250521E+01  1.778977630E+01  1.500000000E+00  0.00000E+00  9.000E+00
      21     1     1     2   511   512 -2.949305767E+00  1.908509301E+00 -2.770391285E+01  2.792575155E+01  3.371747881E-07  0.00000E+00  9.000E+00
      21     1     1     2   512   513 -8.955934903E+00  2.045084074E-01 -3.029945698E+01  3.159600745E+01  3.371747881E-07  0.00000E+00  9.000E+00
</event>
<event>
      5  10001  2.40292E+09  1.56227E+01 -1.00000E+00  1.75689E-01
      21    -1     0     0   512   511  0.000000000E+00  0.000000000E+00  4.751236070E+01  4.751236070E+01  0.000000000E+00  0.00000E+00  9.000E+00
       3    -1     0     0   513     0  0.000000000E+00  0.000000000E+00 -5.287698081E+01  5.287698081E+01  0.000000000E+00  0.00000E+00  9.000E+00
      21     1     1     2   513   514  8.252594351E+00 -1.680571194E+01  4.141236998E+01  4.544801046E+01  1.066240300E-06  0.00000E+00  9.000E+00
       3     1     1     2   512     0 -7.004351366E+00  8.136234216E+00 -4.465354402E+01  4.592872999E+01  5.000000000E-01  0.00000E+00  9.000E+00
      21     1     1     2   514   511 -1.248242985E+00  8.669477725E+00 -2.123446073E+00  9.012601056E+00  5.960464478E-08  0.00000E+00  9.000E+00
</event>
<event>
      5  10001  2.40292E+09  5.78553E+00 -1.00000E+00  2.27875E-01
      21    -1     0     0   515   511  0.000000000E+00  0.000000000E+00  3.962239733E+00  3.962239733E+00  0.000000000E+00  0.00000E+00  9.000E+00
      21    -1     0     0   511   512  0.000000000E+00  0.000000000E+00 -3.182828060E+02  3.182828060E+02  0.000000000E+00  0.00000E+00  9.000E+00
      -4     1     1     2     0   512 -1.117016664E+01  2.577672034E+00 -2.895769349E+02  2.898076401E+02  1.500000000E+00  0.00000E+00  9.000E+00
      21     1     1     2   515   513  7.860883499E+00 -1.035799231E+00 -5.761492243E-01  7.949736936E+00  9.753148658E-07  0.00000E+00  9.000E+00
       4     1     1     2   513     0  3.309283137E+00 -1.541872803E+00 -2.416748213E+01  2.448766871E+01  1.500000000E+00  0.00000E+00  9.000E+00
</event>
<event>
      5  10001  2.40292E+09  7.82882E+00 -1.00000E+00  2.08840E-01
      21    -1     0     0   514   512  0.000000000E+00  0.000000000E+00  4.679847540E+01  4.679847540E+01  0.000000000E+00  0.00000E+00  9.000E+00
      21    -1     0     0   511   516  0.000000000E+00  0.000000000E+00 -2.320276610E+01  2.320276610E+01  0.000000000E+00  0.00000E+00  9.000E+00
      21     1     1     2   514   516  6.447391304E+00  6.783136250E+00 -1.971257272E+01  2.182121250E+01  4.129530925E-07  0.00000E+00  9.000E+00
      21     1     1     2   511   515 -7.616614025E+00 -1.750167660E+00  4.217141517E+01  4.288944105E+01  0.000000000E+00  0.00000E+00  9.000E+00
      21     1     1     2   515   512  1.169222721E+00 -5.032968590E+00  1.136866851E+00  5.290587948E+00  1.332800375E-07  0.00000E+00  9.000E+00
</event>
<event>
      5  10001  2.40292E+09  2.14125E+01 -1.00000E+00  1.63920E-01
      21    -1     0     0   513   511  0.000000000E+00  0.000000000E+00  1.246356323E+02  1.246356323E+02  0.000000000E+00  0.00000E+00  9.000E+00
      21    -1     0     0   512   513  0.000000000E+00  0.000000000E+00 -1.984043487E+00  1.984043487E+00  0.000000000E+00  0.00000E+00  9.000E+00
      21     1     1     2   512   517  8.554825458E+00 -3.822687538E+00  3.442500510E+01  3.567742921E+01  0.000000000E+00  0.00000E+00  9.000E+00
      21     1     1     2   517   514 -5.720131099E+00 -4.711152736E+00  1.143678449E+01  1.362772539E+01  2.920019320E-07  0.00000E+00  9.000E+00
      21     1     1     2   514   511 -2.834694359E+00  8.533840274E+00  7.678979924E+01  7.731452120E+01  1.907348633E-06  0.00000E+00  9.000E+00
</event>
<event>
      5  10001  2.40292E+09  3.67104E+00 -1.00000E+00  2.72457E-01
      21    -1     0     0   515   512  0.000000000E+00  0.000000000E+00  3.638968266E+02  3.638968266E+02  0.000000000E+00  0.00000E+00  9.000E+00
      21    -1     0     0   511   515  0.000000000E+00  0.000000000E+00 -3.824979669E-01  3.824979669E-01  0.000000000E+00  0.00000E+00  9.000E+00
      21     1     1     2   516   512 -8.293334679E+00  7.517907757E+00  2.174866239E+02  2.177744932E+02  2.697398305E-06  0.00000E+00  9.000E+00
      21     1     1     2   513   516  3.339437993E+00 -5.235267292E+00  8.923489314E+01  8.945069046E+01  0.000000000E+00  0.00000E+00  9.000E+00
      21     1     1     2   511   513  4.953896686E+00 -2.282640466E+00  5.679281158E+01  5.705414084E+01  6.743495762E-07  0.00000E+00  9.000E+00
</event>
<event>
      5  10001  2.40292E+09  2.55174E+01 -1.00000E+00  1.58050E-01
      21    -1     0     0   514   512  0.000000000E+00  0.000000000E+00  3.459275824E+00  3.459275824E+00  0.000000000E+00  0.00000E+00  9.000E+00
      21    -1     0     0   511   517  0.000000000E+00  0.000000000E+00 -1.335082268E+02  1.335082268E+02  0.000000000E+00  0.00000E+00  9.000E+00
      21     1     1     2   514   517 -7.264493280E+00  4.973282025E+00 -1.375177553E+01  1.632843309E+01  1.685873940E-07  0.00000E+00  9.000E+00
      21     1     1     2   511   515  5.725034897E+00 -1.910498103E+00 -1.169868803E+02  1.171424611E+02  1.348699152E-06  0.00000E+00  9.000E+00
      21     1     1     2   515   512  1.539458383E+00 -3.062783922E+00  6.897049043E-01  3.496608402E+00  1.182743003E-07  0.00000E+00  9.000E+00
</event>
<event>
      5  10001  2.40292E+09  3.54498E+00 -1.00000E+00  2.76353E-01
      21    -1     0     0   513   511  0.000000000E+00  0.000000000E+00  2.340322625E+02  2.340322625E+02  0.000000000E+00  0.00000E+00  9.000E+00
      21    -1     0     0   512   514  0.000000000E+00  0.000000000E+00 -1.602089171E+00  1.602089171E+00  0.000000000E+00  0.00000E+00  9.000E+00
      21     1     1     2   512   511  1.424421446E+01  9.923895495E-01  7.088955722E+01  7.231328927E+01  1.651812370E-06  0.00000E+00  9.000E+00
       1     1     1     2   513     0 -1.071475839E+01 -1.314151521E+00  1.577572740E+02  1.581265299E+02  3.300000131E-01  0.00000E+00  9.000E+00
      -1     1     1     2     0   514 -3.529456076E+00  3.217619716E-01  3.783342133E+00  5.194532574E+00  3.300000131E-01  0.00000E+00  9.000E+00
</event>
<event>
      5  10001  2.40292E+09  5.19445E+00 -1.00000E+00  2.35571E-01
      21    -1     0     0   515   512  0.000000000E+00  0.000000000E+00  3.349935046E+01  3.349935046E+01  0.000000000E+00  0.00000E+00  9.000E+00
      21    -1     0     0   516   515  0.000000000E+00  0.000000000E+00 -1.752163435E+01  1.752163435E+01  0.000000000E+00  0.00000E+00  9.000E+00
      21     1     1     2   514   512 -1.136264911E+01 -2.212931791E+00  3.002973744E+01  3.218372248E+01  6.743495762E-07  0.00000E+00  9.000E+00
      21     1     1     2   516   511  7.381263824E+00  9.120624756E-01 -5.293864171E+00  9.129069584E+00  3.424026159E-07  0.00000E+00  9.000E+00
      21     1     1     2   511   514  3.981385281E+00  1.300869315E+00 -8.758157153E+00  9.708192749E+00  1.192092896E-07  0.00000E+00  9.000E+00
</event>
<event>
      5  10001  2.40292E+09  1.31563E+01 -1.00000E+00  1.82873E-01
      21    -1     0     0   513   516  0.000000000E+00  0.000000000E+00  1.505960485E+01  1.505960485E+01  0.000000000E+00  0.00000E+00  9.000E+00
      21    -1     0     0   512   514  0.000000000E+00  0.000000000E+00 -1.853379267E+01  1.853379267E+01  0.000000000E+00  0.00000E+00  9.000E+00
      21     1     1     2   513   514 -9.108105113E+00  3.285940915E+00 -8.860064568E+00  1.312462307E+01  1.685873940E-07  0.00000E+00  9.000E+00
      21     1     1     2   515   516  3.878508170E+00 -7.578060671E-01  1.142524453E+01  1.208938825E+01  2.920019320E-07  0.00000E+00  9.000E+00
      21     1     1     2   512   515  5.229596944E+00 -2.528134848E+00 -6.039367778E+00  8.379386204E+00  8.429369702E-08  0.00000E+00  9.000E+00
</event>
<event>
      5  10001  2.40292E+09  6.84641E+00 -1.00000E+00  2.16852E-01
      21    -1     0     0   515   512  0.000000000E+00  0.000000000E+00  5.014037324E+00  5.014037324E+00  0.000000000E+00  0.00000E+00  9.000E+00
      21    -1     0     0   511   515  0.000000000E+00  0.000000000E+00 -2.699160612E+01  2.699160612E+01  0.000000000E+00  0.00000E+00  9.000E+00
      21     1     1     2   513   512 -3.842976870E+00 -8.349226420E+00 -9.815319051E+00  1.344687849E+01  3.153981341E-07  0.00000E+00  9.000E+00
       4     1     1     2   511     0 -2.564639114E-01  9.330931681E+00 -9.206926810E+00  1.319657384E+01  1.500000000E+00  0.00000E+00  9.000E+00
      -4     1     1     2     0   513  4.099440781E+00 -9.817052604E-01 -2.955322936E+00  5.362191118E+00  1.500000000E+00  0.00000E+00  9.000E+00
</event>
<event>
      5  10001  2.40292E+09  7.24381E+00 -1.00000E+00  2.13403E-01
      21    -1     0     0   514   513  0.000000000E+00  0.000000000E+00  4.260736106E+01  4.260736106E+01  0.000000000E+00  0.00000E+00  9.000E+00
      21    -1     0     0   516   514  0.000000000E+00  0.000000000E+00 -2.207896873E+01  2.207896873E+01  0.000000000E+00  0.00000E+00  9.000E+00
      21     1     1     2   511   513  2.414317775E-02 -1.190331096E+01  3.793073670E+01  3.975462466E+01  0.000000000E+00  0.00000E+00  9.000E+00
      21     1     1     2   516   512 -1.805220659E+00  5.254119114E+00 -1.716755447E+01  1.804409919E+01  0.000000000E+00  0.00000E+00  9.000E+00
      21     1     1     2   512   511  1.781077481E+00  6.649191846E+00 -2.347899091E-01  6.887605934E+00  1.253935149E-07  0.00000E+00  9.000E+00
</event>
<event>
      5  10001  2.40292E+09  1.80831E+01 -1.00000E+00  1.70019E-01
      21    -1     0     0   515   511  0.000000000E+00  0.000000000E+00  1.613439761E+00  1.613439761E+00  0.000000000E+00  0.00000E+00  9.000E+00
      21    -1     0     0   517   515  0.000000000E+00  0.000000000E+00 -1.024467799E+02  1.024467799E+02  0.000000000E+00  0.00000E+00  9.000E+00
      21     1     1     2   516   511 -2.142665054E+00 -5.981038562E+00 -1.843539709E+01  1.949942824E+01  2.384185791E-07  0.00000E+00  9.000E+00
      21     1     1     2   513   516  2.730605200E+00  4.779781756E+00 -5.967763267E+00  8.118911060E+00  2.795705652E-07  0.00000E+00  9.000E+00
      21     1     1     2   517   513 -5.879401454E-01  1.201256806E+00 -7.643017983E+01  7.644188041E+01  1.651812370E-06  0.00000E+00  9.000E+00
</event>
<event>
      5  10001  2.40292E+09  7.40622E+00 -1.00000E+00  2.12079E-01
      21    -1     0     0   512   513  0.000000000E+00  0.000000000E+00  6.570092392E+01  6.570092392E+01  0.000000000E+00  0.00000E+00  9.000E+00
      21    -1     0     0   511   514  0.000000000E+00  0.000000000E+00 -1.465606257E+01  1.465606257E+01  0.000000000E+00  0.00000E+00  9.000E+00
      21     1     1     2   512   514  6.886909279E+00  7.809328057E+00 -1.174168056E+01  1.569338034E+01  0.000000000E+00  0.00000E+00  9.000E+00
      21     1     1     2   515   513 -1.537345140E-01 -5.058844551E+00  4.712015595E+01  4.739118736E+01  0.000000000E+00  0.00000E+00  9.000E+00
      21     1     1     2   511   515 -6.733174765E+00 -2.750483507E+00  1.566638596E+01  1.727241879E+01  2.384185791E-07  0.00000E+00  9.000E+00
</event>
<event>
      5  10001  2.40292E+09  1.03467E+01 -1.00000E+00  1.94004E-01
       3    -1     0     0   512     0  0.000000000E+00  0.000000000E+00  2.682686378E+01  2.682686378E+01  0.000000000E+00  0.00000E+00  9.000E+00
      -2    -1     0     0     0   512  0.000000000E+00  0.000000000E+00 -2.246873346E+01  2.246873346E+01  0.000000000E+00  0.00000E+00  9.000E+00
      -2     1     1     2     0   511  1.793456933E-02 -1.036984971E+01 -1.976558325E+01  2.232311103E+01  3.300000131E-01  0.00000E+00  9.000E+00
      21     1     1     2   511   513  1.891441352E+00  4.237166991E+00  5.136472451E+00  6.922028875E+00  1.192092896E-07  0.00000E+00  9.000E+00
       3     1     1     2   513     0 -1.909375922E+00  6.132682723E+00  1.898724112E+01  2.005045733E+01  5.000000000E-01  0.00000E+00  9.000E+00
</event>
<event>
      5  10001  2.40292E+09  1.92954E+01 -1.00000E+00  1.67622E-01
      21    -1     0     0   514   511  0.000000000E+00  0.000000000E+00  1.735839045E+01  1.735839045E+01  0.000000000E+00  0.00000E+00  9.000E+00
      21    -1     0     0   516   515  0.000000000E+00  0.000000000E+00 -4.795725052E+01  4.795725052E+01  0.000000000E+00  0.00000E+00  9.000E+00
      21     1     1     2   514   515 -6.299404744E-01 -1.236483014E+01  1.325958975E+01  1.814118435E+01  0.000000000E+00  0.00000E+00  9.000E+00
      21     1     1     2   512   511 -2.939527737E+00  6.973875652E+00 -9.175160287E+00  1.189366769E+01  0.000000000E+00  0.00000E+00  9.000E+00
      21     1     1     2   516   512  3.569468211E+00  5.390954485E+00 -3.468328954E+01  3.528078892E+01  0.000000000E+00  0.00000E+00  9.000E+00
</event>
</LesHouchesEvents>
 #Random number generator exit values:     54217137     320506142             0
