<LesHouchesEvents version="1.0">
<!--
file generated with POWHEG-BOX version 1.0
Input file powheg.input contained:
numevts 5000        ! number of events to be generated
ih1  1               ! hadron 1 (1 for protons, -1 for antiprotons)
ih2  1               ! hadron 2 (1 for protons, -1 for antiprotons)
ebeam1 3500d0        ! energy of beam 1
ebeam2 3500d0        ! energy of beam 2
 
bornktmin 10d0       ! (default 0d0) Generation cut: minimum kt in underlying Born
#bornsuppfact 100d0  ! (default 0d0) Mass parameter for Born suppression factor.
                     ! If < 0 suppfact = 1.
 
 
! To be set only if using internal (mlm) pdfs
! 131 cteq6m
!ndns1 131            ! pdf set for hadron 1 (mlm numbering)
!ndns2 131            ! pdf set for hadron 2 (mlm numbering)
 
! To be set only if using LHA pdfs
! 11000 CT10nlo central
lhans1  11000      ! pdf set for hadron 1 (LHA numbering)
lhans2  11000      ! pdf set for hadron 2 (LHA numbering)	
 
! To be set only if using different pdf sets for the two incoming hadrons
#QCDLambda5  0.25    ! for not equal pdf sets
 
#renscfact  1d0      ! (default 1d0) ren scale factor: muren  = muref * renscfact
#facscfact  1d0      ! (default 1d0) fac scale factor: mufact = muref * facscfact
 
! Parameters to allow or not the use of stored data
use-old-grid    1    ! If 1 use old grid if file pwggrids.dat is present (<> 1 regenerate)
use-old-ubound  1    ! If 1 use norm of upper bounding function stored
                     ! in pwgubound.dat, if present; <> 1 regenerate
 
! A typical call uses 1/1400 seconds (1400 calls per second)
ncall1 20000         ! No. calls for the construction of the importance sampling grid
itmx1 5              ! No. iterations for grid: total 100000 calls ~ 70 seconds
ncall2 20000         ! No. calls for the computation of the upper bounding
                     ! envelope for the generation of radiation
itmx2 5              ! No. iterations for the above
 
! Notice: the total number of calls is ncall2*itmx2*foldcsi*foldy*foldphi
! these folding numbers yield a negative fraction of 0.5% with bornktmin=10 GeV.
! With these settings: ncall2*itmx2*foldcsi*foldy*foldphi=5M, 60 minutes
foldcsi 5            ! No. folds on csi integration
foldy   5            ! No. folds on  y  integration
foldphi 2            ! No. folds on phi integration
 
nubound 500000       ! No. calls to set up the upper bounding norms for radiation.
                     ! This is performed using only the Born cross section (fast)
 
! OPTIONAL PARAMETERS
 
withnegweights 1     ! (default 0). If 1 use negative weights.
#bornonly 1          ! (default 0). If 1 compute underlying Born using LO
                     ! cross section only.
 
#ptsqmin    0.8      ! (default 0.8 GeV) minimum pt for generation of radiation
#charmthr   1.5      ! (default 1.5 GeV) charm treshold for gluon splitting
#bottomthr  5.0      ! (default 5.0 GeV) bottom treshold for gluon splitting
#testplots  1        ! (default 0, do not) do NLO and PWHG distributions
#charmthrpdf  1.5    ! (default 1.5 GeV) pdf charm treshold
#bottomthrpdf 5.0    ! (default 5.0 GeV) pdf bottom treshold
 
#xupbound 2d0        ! increase upper bound for radiation generation
 
#iseed    5421       ! Start the random number generator with seed iseed
#rand1     0         ! skipping  rand2*100000000+rand1 numbers (see RM48
#rand2     0         ! short writeup in CERNLIB).
#manyseeds 1         ! Used to perform multiple runs with different random
                     ! seeds in the same directory.
                     ! If set to 1, the program asks for an integer j;
                     ! The file pwgseeds.dat at line j is read, and the
                     ! integer at line j is used to initialize the random
                     ! sequence for the generation of the event.
                     ! The event file is called pwgevents-'j'.lhe
 
doublefsr 1          ! Default 0; if 1 use new mechanism to generate regions
                     ! such that the emitted harder than the
                     ! emitter in FSR is suppressed. If doublefsr=0 this is
                     ! only the case for emitted gluons (old behaviour). If
                     ! 1 it is also applied to emitted quarks.
                     ! If set, it strongly reduces spikes on showered output.
 
 
 
#par_diexp 4         ! default is 2. With 4 there is a stronger separation
#par_dijexp 4        ! of regions, it may help to reduce spikes when generating
#par_2gsupp 4        ! weighted events.
End of powheg.input content
PDF package: lha
 Random number generator initialized with:     54217137      14683410             0
-->
<init>
     2212     2212  3.50000E+03  3.50000E+03     -1     -1     -1     -1     -4      1
  3.50574E+09  7.71769E+06  1.00000E+00  10001
</init>
<event>
      5  10001  3.52971E+09  8.15016E+00 -1.00000E+00  2.06615E-01
      -2    -1     0     0     0   514  0.000000000E+00  0.000000000E+00  1.540526680E+02  1.540526680E+02  0.000000000E+00  0.00000E+00  9.000E+00
      21    -1     0     0   512   513  0.000000000E+00  0.000000000E+00 -1.294615956E+01  1.294615956E+01  0.000000000E+00  0.00000E+00  9.000E+00
      -2     1     1     2     0   513 -1.739215284E+01  1.312567761E+01  2.673106603E+01  3.448810207E+01  3.300000131E-01  0.00000E+00  9.000E+00
      21     1     1     2   512   511  9.786646338E+00 -1.605446318E+01  9.852659823E-01  1.882803717E+01  7.068241373E-08  0.00000E+00  9.000E+00
      21     1     1     2   511   514  7.605506503E+00  2.928785567E+00  1.133901765E+02  1.136826884E+02  0.000000000E+00  0.00000E+00  9.000E+00
</event>
<event>
      5  10001  3.52971E+09  9.27763E+00 -1.00000E+00  1.99593E-01
      -1    -1     0     0     0   514  0.000000000E+00  0.000000000E+00  4.154256057E+01  4.154256057E+01  0.000000000E+00  0.00000E+00  9.000E+00
      21    -1     0     0   511   515  0.000000000E+00  0.000000000E+00 -4.055103466E+00  4.055103466E+00  0.000000000E+00  0.00000E+00  9.000E+00
      -1     1     1     2     0   515  7.293945845E+00 -4.062137473E+00  1.565303134E+01  1.774341841E+01  3.300000131E-01  0.00000E+00  9.000E+00
       5     1     1     2   511     0 -5.772676223E+00  7.357625603E+00  1.758483798E+01  2.048719048E+01  4.800000191E+00  0.00000E+00  9.000E+00
      -5     1     1     2     0   514 -1.521269623E+00 -3.295488131E+00  4.249587791E+00  7.367055145E+00  4.800000191E+00  0.00000E+00  9.000E+00
</event>
<event>
      5  10001  3.52971E+09  6.93310E+00 -1.00000E+00  2.16139E-01
      21    -1     0     0   512   511  0.000000000E+00  0.000000000E+00  6.855665122E+02  6.855665122E+02  0.000000000E+00  0.00000E+00  9.000E+00
       1    -1     0     0   513     0  0.000000000E+00  0.000000000E+00 -9.524458211E-01  9.524458211E-01  0.000000000E+00  0.00000E+00  9.000E+00
      21     1     1     2   513   511 -1.015726034E+01  2.655797058E+00  6.300786570E+02  6.301661187E+02  0.000000000E+00  0.00000E+00  9.000E+00
       1     1     1     2   515     0  3.416615305E+00 -4.373311346E+00  1.166876551E+01  1.292548261E+01  3.300000131E-01  0.00000E+00  9.000E+00
      21     1     1     2   512   515  6.740645036E+00  1.717514288E+00  4.286664387E+01  4.342735667E+01  1.348699152E-06  0.00000E+00  9.000E+00
</event>
<event>
      5  10001  3.52971E+09  9.93356E+00 -1.00000E+00  1.96088E-01
      21    -1     0     0   514   513  0.000000000E+00  0.000000000E+00  2.772113011E+01  2.772113011E+01  0.000000000E+00  0.00000E+00  9.000E+00
      -2    -1     0     0     0   514  0.000000000E+00  0.000000000E+00 -5.847801950E+01  5.847801950E+01  0.000000000E+00  0.00000E+00  9.000E+00
      -2     1     1     2     0   511 -3.952385823E+00 -1.477006563E+01 -5.270104125E+01  5.487517509E+01  3.300000131E-01  0.00000E+00  9.000E+00
      21     1     1     2   512   513 -1.029459442E+00  1.228097614E+01  2.257440855E+01  2.571937175E+01  4.768371582E-07  0.00000E+00  9.000E+00
      21     1     1     2   511   512  4.981845265E+00  2.489089493E+00 -6.302566880E-01  5.604602772E+00  5.866593029E-08  0.00000E+00  9.000E+00
</event>
<event>
      5  10001  3.52971E+09  5.25443E+00 -1.00000E+00  2.34804E-01
       1    -1     0     0   512     0  0.000000000E+00  0.000000000E+00  1.231141161E+01  1.231141161E+01  0.000000000E+00  0.00000E+00  9.000E+00
      21    -1     0     0   511   512  0.000000000E+00  0.000000000E+00 -1.913913267E+01  1.913913267E+01  0.000000000E+00  0.00000E+00  9.000E+00
      21     1     1     2   511   515 -9.565027359E+00 -2.903239041E+00 -1.493136321E+01  1.796842098E+01  3.371747881E-07  0.00000E+00  9.000E+00
      21     1     1     2   515   513  3.955706486E+00 -8.090364238E-01  2.890468957E+00  4.965577965E+00  4.214684851E-08  0.00000E+00  9.000E+00
       1     1     1     2   513     0  5.609320873E+00  3.712275465E+00  5.213173190E+00  8.516545339E+00  3.300000131E-01  0.00000E+00  9.000E+00
</event>
<event>
      5  10001  3.52971E+09  1.61580E+01 -1.00000E+00  1.74390E-01
      21    -1     0     0   514   511  0.000000000E+00  0.000000000E+00  8.773972793E+01  8.773972793E+01  0.000000000E+00  0.00000E+00  9.000E+00
      21    -1     0     0   516   514  0.000000000E+00  0.000000000E+00 -2.395282917E+00  2.395282917E+00  0.000000000E+00  0.00000E+00  9.000E+00
      21     1     1     2   517   511 -9.435700681E+00  3.957544076E-01  3.936387575E+01  4.048090640E+01  4.768371582E-07  0.00000E+00  9.000E+00
      21     1     1     2   516   512  6.006647020E+00 -6.814033069E+00  3.698305734E+01  3.808224501E+01  4.768371582E-07  0.00000E+00  9.000E+00
      21     1     1     2   512   517  3.429053660E+00  6.418278661E+00  8.997511934E+00  1.157185944E+01  0.000000000E+00  0.00000E+00  9.000E+00
</event>
<event>
      5  10001  3.52971E+09  4.98856E+00 -1.00000E+00  2.42735E-01
      21    -1     0     0   513   516  0.000000000E+00  0.000000000E+00  2.614967087E+00  2.614967087E+00  0.000000000E+00  0.00000E+00  9.000E+00
      21    -1     0     0   511   515  0.000000000E+00  0.000000000E+00 -5.465935058E+01  5.465935058E+01  0.000000000E+00  0.00000E+00  9.000E+00
      21     1     1     2   513   515  9.415632106E+00 -5.455269726E+00 -1.547233365E+01  1.891579246E+01  1.685873940E-07  0.00000E+00  9.000E+00
       1     1     1     2   511     0 -4.471756869E+00  5.172102961E-01 -1.246576673E+01  1.325776588E+01  3.300000131E-01  0.00000E+00  9.000E+00
      -1     1     1     2     0   516 -4.943875236E+00  4.938059430E+00 -2.410628312E+01  2.510075933E+01  3.300000131E-01  0.00000E+00  9.000E+00
</event>
<event>
      5  10001  3.52971E+09  2.73503E+00 -1.00000E+00  3.09599E-01
      21    -1     0     0   512   513  0.000000000E+00  0.000000000E+00  2.301670967E+03  2.301670967E+03  0.000000000E+00  0.00000E+00  9.000E+00
      21    -1     0     0   514   512  0.000000000E+00  0.000000000E+00 -1.471776024E+00  1.471776024E+00  0.000000000E+00  0.00000E+00  9.000E+00
      21     1     1     2   511   516 -1.557522051E+01  9.034286846E+00  3.119417037E+02  3.124609293E+02  3.814697266E-06  0.00000E+00  9.000E+00
      21     1     1     2   514   511  1.815337067E+01 -9.947269845E+00  8.723422587E+01  8.965658485E+01  2.697398305E-06  0.00000E+00  9.000E+00
      21     1     1     2   516   513 -2.578150160E+00  9.129829982E-01  1.901023261E+03  1.901025229E+03  2.157918644E-05  0.00000E+00  9.000E+00
</event>
<event>
      5  10001  3.52971E+09  7.31585E+00 -1.00000E+00  2.12874E-01
      21    -1     0     0   515   513  0.000000000E+00  0.000000000E+00  1.653170042E+00  1.653170042E+00  0.000000000E+00  0.00000E+00  9.000E+00
       2    -1     0     0   514     0  0.000000000E+00  0.000000000E+00 -2.857860501E+02  2.857860501E+02  0.000000000E+00  0.00000E+00  9.000E+00
      21     1     1     2   514   511 -1.507506268E+00 -3.477074056E+00 -6.498853532E+00  7.523145377E+00  3.039252468E-07  0.00000E+00  9.000E+00
       2     1     1     2   515     0  1.095485721E+01  7.598992484E+00 -2.510462913E+02  2.514002841E+02  3.300000131E-01  0.00000E+00  9.000E+00
      21     1     1     2   511   513 -9.447350947E+00 -4.121918428E+00 -2.658773526E+01  2.851579067E+01  7.539457465E-07  0.00000E+00  9.000E+00
</event>
<event>
      5  10001  3.52971E+09  6.61177E+00 -1.00000E+00  2.19111E-01
      -2    -1     0     0     0   512  0.000000000E+00  0.000000000E+00  1.221220050E+01  1.221220050E+01  0.000000000E+00  0.00000E+00  9.000E+00
      21    -1     0     0   512   513  0.000000000E+00  0.000000000E+00 -3.827374254E+01  3.827374254E+01  0.000000000E+00  0.00000E+00  9.000E+00
      -2     1     1     2     0   515 -1.016793411E+00  3.850941642E+00  4.769124774E+00  6.222304355E+00  3.300000131E-01  0.00000E+00  9.000E+00
      21     1     1     2   514   513  1.779866738E+00 -1.355551894E+01 -3.166794127E+01  3.449316633E+01  4.768371582E-07  0.00000E+00  9.000E+00
      21     1     1     2   515   514 -7.630733272E-01  9.704577302E+00  8.372744588E-01  9.770472355E+00  1.537782508E-07  0.00000E+00  9.000E+00
</event>
<event>
      5  10001  3.52971E+09  7.62966E+00 -1.00000E+00  2.10393E-01
      21    -1     0     0   513   512  0.000000000E+00  0.000000000E+00  8.297296334E+01  8.297296334E+01  0.000000000E+00  0.00000E+00  9.000E+00
       3    -1     0     0   512     0  0.000000000E+00  0.000000000E+00 -1.719672611E+02  1.719672611E+02  0.000000000E+00  0.00000E+00  9.000E+00
      21     1     1     2   514   511 -1.009106763E+01 -6.001980632E+00 -3.513817773E+01  3.704787378E+01  0.000000000E+00  0.00000E+00  9.000E+00
       3     1     1     2   511     0  8.371201858E+00  1.343522898E+01 -1.352336736E+02  1.361579189E+02  5.000000000E-01  0.00000E+00  9.000E+00
      21     1     1     2   513   514  1.719865777E+00 -7.433248345E+00  8.137755356E+01  8.173443180E+01  1.651812370E-06  0.00000E+00  9.000E+00
</event>
<event>
      5  10001  3.52971E+09  4.75734E+00 -1.00000E+00  2.46895E-01
      21    -1     0     0   515   516  0.000000000E+00  0.000000000E+00  9.182069697E+02  9.182069697E+02  0.000000000E+00  0.00000E+00  9.000E+00
      21    -1     0     0   512   515  0.000000000E+00  0.000000000E+00 -4.772594610E+01  4.772594610E+01  0.000000000E+00  0.00000E+00  9.000E+00
      21     1     1     2   512   514 -8.146100823E+00 -4.205393659E+00 -4.720093727E+01  4.808297800E+01  2.780414531E-06  0.00000E+00  9.000E+00
      21     1     1     2   514   511  9.260514672E+00  8.830369790E+00  6.795714400E+02  6.796918968E+02  7.629394531E-06  0.00000E+00  9.000E+00
      21     1     1     2   511   516 -1.114413849E+00 -4.624976131E+00  2.381105210E+02  2.381580411E+02  2.697398305E-06  0.00000E+00  9.000E+00
</event>
<event>
      5  10001  3.52971E+09  5.14993E+00 -1.00000E+00  2.36289E-01
      21    -1     0     0   514   512  0.000000000E+00  0.000000000E+00  3.950382853E+02  3.950382853E+02  0.000000000E+00  0.00000E+00  9.000E+00
       4    -1     0     0   512     0  0.000000000E+00  0.000000000E+00 -7.079694505E+00  7.079694505E+00  0.000000000E+00  0.00000E+00  9.000E+00
      21     1     1     2   513   511  3.222411203E+00 -1.307467177E+01  5.559938232E+00  1.456859255E+01  1.788139343E-07  0.00000E+00  9.000E+00
       4     1     1     2   511     0 -4.184697072E-01  8.758227164E+00  5.176508895E+00  1.029212827E+01  1.500000000E+00  0.00000E+00  9.000E+00
      21     1     1     2   514   513 -2.803941496E+00  4.316444606E+00  3.772221437E+02  3.772572590E+02  7.629394531E-06  0.00000E+00  9.000E+00
</event>
<event>
      5  10001  3.52971E+09  3.14085E+00 -1.00000E+00  2.90939E-01
      -2    -1     0     0     0   513  0.000000000E+00  0.000000000E+00  7.283638091E+02  7.283638091E+02  0.000000000E+00  0.00000E+00  9.000E+00
      -4    -1     0     0     0   512  0.000000000E+00  0.000000000E+00 -2.955031283E+00  2.955031283E+00  0.000000000E+00  0.00000E+00  9.000E+00
      -4     1     1     2     0   513 -5.571475958E+00  1.512222294E+01  2.147299607E+01  2.688982207E+01  1.500000000E+00  0.00000E+00  9.000E+00
      -2     1     1     2     0   511  3.739520677E+00 -1.257208219E+01  6.907474637E+02  6.908720640E+02  3.300000131E-01  0.00000E+00  9.000E+00
      21     1     1     2   511   512  1.831955281E+00 -2.550140745E+00  1.318831797E+01  1.355695426E+01  1.685873940E-07  0.00000E+00  9.000E+00
</event>
<event>
      5  10001  3.52971E+09  7.10772E+00 -1.00000E+00  2.14615E-01
      21    -1     0     0   514   516  0.000000000E+00  0.000000000E+00  1.629925604E+02  1.629925604E+02  0.000000000E+00  0.00000E+00  9.000E+00
      21    -1     0     0   515   514  0.000000000E+00  0.000000000E+00 -4.324689816E+01  4.324689816E+01  0.000000000E+00  0.00000E+00  9.000E+00
      21     1     1     2   515   512 -1.249197932E+01  1.436159983E+00 -3.950569222E+01  4.145855545E+01  9.536743164E-07  0.00000E+00  9.000E+00
      21     1     1     2   512   513  7.660224391E+00  3.776698370E+00  4.112291918E+00  9.479105080E+00  2.384185791E-07  0.00000E+00  9.000E+00
      21     1     1     2   513   516  4.831754926E+00 -5.212858353E+00  1.551390626E+02  1.553017981E+02  2.697398305E-06  0.00000E+00  9.000E+00
</event>
<event>
      5  10001  3.52971E+09  7.25841E+00 -1.00000E+00  2.13347E-01
      21    -1     0     0   514   512  0.000000000E+00  0.000000000E+00  1.830956914E+01  1.830956914E+01  0.000000000E+00  0.00000E+00  9.000E+00
      21    -1     0     0   516   511  0.000000000E+00  0.000000000E+00 -1.021993886E+02  1.021993886E+02  0.000000000E+00  0.00000E+00  9.000E+00
      21     1     1     2   516   515 -1.853535355E+00 -9.206563102E+00 -9.442826718E+01  9.489412015E+01  1.348699152E-06  0.00000E+00  9.000E+00
      21     1     1     2   515   512  8.253986305E+00  1.262981763E+01  1.045467761E+01  1.835594910E+01  4.298152060E-07  0.00000E+00  9.000E+00
      21     1     1     2   514   511 -6.400450951E+00 -3.423254532E+00  8.377015356E-02  7.258888441E+00  2.047236834E-07  0.00000E+00  9.000E+00
</event>
<event>
      5  10001  3.52971E+09  1.62672E+00 -1.00000E+00  4.10863E-01
      21    -1     0     0   513   512  0.000000000E+00  0.000000000E+00  1.255143318E+02  1.255143318E+02  0.000000000E+00  0.00000E+00  9.000E+00
      -1    -1     0     0     0   515  0.000000000E+00  0.000000000E+00 -1.559897636E+00  1.559897636E+00  0.000000000E+00  0.00000E+00  9.000E+00
      -1     1     1     2     0   512  4.291592867E+00  1.001294599E+01  8.203120751E+01  8.275206803E+01  3.300000131E-01  0.00000E+00  9.000E+00
      21     1     1     2   513   511 -5.856443713E+00 -9.569530402E+00  4.087593536E+01  4.238768614E+01  8.259061849E-07  0.00000E+00  9.000E+00
      21     1     1     2   511   515  1.564850846E+00 -4.434155879E-01  1.047291320E+00  1.934475294E+00  8.815645848E-08  0.00000E+00  9.000E+00
</event>
<event>
      5  10001  3.52971E+09  7.02213E+00 -1.00000E+00  2.15354E-01
      21    -1     0     0   514   515  0.000000000E+00  0.000000000E+00  6.544695513E+01  6.544695513E+01  0.000000000E+00  0.00000E+00  9.000E+00
      21    -1     0     0   512   516  0.000000000E+00  0.000000000E+00 -1.385896670E+02  1.385896670E+02  0.000000000E+00  0.00000E+00  9.000E+00
      21     1     1     2   514   516 -1.242799280E+01  5.133651814E+00  6.323628765E+01  6.465011572E+01  1.507891493E-06  0.00000E+00  9.000E+00
      21     1     1     2   512   513  9.586007079E+00  3.371308970E-01 -1.305509396E+02  1.309028380E+02  0.000000000E+00  0.00000E+00  9.000E+00
      21     1     1     2   513   515  2.841985720E+00 -5.470782711E+00 -5.828060002E+00  8.483668410E+00  1.192092896E-07  0.00000E+00  9.000E+00
</event>
<event>
      5  10001  3.52971E+09  5.66246E+00 -1.00000E+00  2.29443E-01
       1    -1     0     0   512     0  0.000000000E+00  0.000000000E+00  3.676784145E+02  3.676784145E+02  0.000000000E+00  0.00000E+00  9.000E+00
      21    -1     0     0   511   513  0.000000000E+00  0.000000000E+00 -1.733160594E+00  1.733160594E+00  0.000000000E+00  0.00000E+00  9.000E+00
      21     1     1     2   512   513  5.513130268E+00  8.347976190E+00  1.418866461E+01  1.736091919E+01  5.840038640E-07  0.00000E+00  9.000E+00
       1     1     1     2   514     0 -3.920226528E+00 -3.002554194E+00  2.901199909E+02  2.901621986E+02  3.300000131E-01  0.00000E+00  9.000E+00
      21     1     1     2   511   514 -1.592903740E+00 -5.345421996E+00  6.163659846E+01  6.188845731E+01  9.536743164E-07  0.00000E+00  9.000E+00
</event>
<event>
      5  10001  3.52971E+09  4.56263E+00 -1.00000E+00  2.50684E-01
      -2    -1     0     0     0   515  0.000000000E+00  0.000000000E+00  1.193042659E+02  1.193042659E+02  0.000000000E+00  0.00000E+00  9.000E+00
      21    -1     0     0   513   514  0.000000000E+00  0.000000000E+00 -4.322313685E+00  4.322313685E+00  0.000000000E+00  0.00000E+00  9.000E+00
      -2     1     1     2     0   514 -1.100357216E+01 -3.563590118E+00  1.055204032E+02  1.061529188E+02  3.300000131E-01  0.00000E+00  9.000E+00
      21     1     1     2   512   515  9.601545737E+00 -7.780301459E-01  4.197992502E+00  1.050800421E+01  2.064765462E-07  0.00000E+00  9.000E+00
      21     1     1     2   513   512  1.402026420E+00  4.341620264E+00  5.263556513E+00  6.965656593E+00  0.000000000E+00  0.00000E+00  9.000E+00
</event>
<event>
      5  10001  3.52971E+09  1.05708E+01 -1.00000E+00  1.93006E-01
       2    -1     0     0   514     0  0.000000000E+00  0.000000000E+00  5.738341645E+02  5.738341645E+02  0.000000000E+00  0.00000E+00  9.000E+00
      21    -1     0     0   512   514  0.000000000E+00  0.000000000E+00 -4.595243694E-01  4.595243694E-01  0.000000000E+00  0.00000E+00  9.000E+00
      21     1     1     2   512   515 -7.657337868E+00 -1.472213123E+00  8.038058445E+01  8.075791349E+01  0.000000000E+00  0.00000E+00  9.000E+00
       2     1     1     2   511     0  8.945036100E+00 -5.342443741E+00  4.355297720E+02  4.356545037E+02  3.300000131E-01  0.00000E+00  9.000E+00
      21     1     1     2   515   511 -1.287698232E+00  6.814656863E+00  5.746428363E+01  5.788127165E+01  6.743495762E-07  0.00000E+00  9.000E+00
</event>
<event>
      5  10001  3.52971E+09  2.19554E+01 -1.00000E+00  1.63091E-01
      21    -1     0     0   513   511  0.000000000E+00  0.000000000E+00  3.973364175E+00  3.973364175E+00  0.000000000E+00  0.00000E+00  9.000E+00
       4    -1     0     0   515     0  0.000000000E+00  0.000000000E+00 -4.881843353E+01  4.881843353E+01  0.000000000E+00  0.00000E+00  9.000E+00
      21     1     1     2   515   511  3.641971939E+00 -4.426359776E-01 -9.101150782E+00  9.812789194E+00  1.192092896E-07  0.00000E+00  9.000E+00
      21     1     1     2   513   512 -2.637873069E+00  2.417696755E-01  3.108554951E+00  4.084108322E+00  2.149076030E-07  0.00000E+00  9.000E+00
       4     1     1     2   512     0 -1.004098870E+00  2.008663021E-01 -3.885247353E+01  3.889490019E+01  1.500000000E+00  0.00000E+00  9.000E+00
</event>
<event>
      5  10001  3.52971E+09  6.57371E+00 -1.00000E+00  2.19478E-01
      21    -1     0     0   514   512  0.000000000E+00  0.000000000E+00  6.896369286E+02  6.896369286E+02  0.000000000E+00  0.00000E+00  9.000E+00
      21    -1     0     0   516   514  0.000000000E+00  0.000000000E+00 -1.125914106E+00  1.125914106E+00  0.000000000E+00  0.00000E+00  9.000E+00
      21     1     1     2   517   512 -1.117111488E+01  4.427604893E+00  6.467362150E+02  6.468478409E+02  7.629394531E-06  0.00000E+00  9.000E+00
      21     1     1     2   511   517  4.894141085E+00 -5.165292387E+00  2.484750805E+01  2.584630571E+01  5.840038640E-07  0.00000E+00  9.000E+00
      21     1     1     2   516   511  6.276973792E+00  7.376874935E-01  1.692729143E+01  1.806869607E+01  7.539457465E-07  0.00000E+00  9.000E+00
</event>
<event>
      5  10001  3.52971E+09  1.81915E+01 -1.00000E+00  1.69835E-01
      21    -1     0     0   513   511  0.000000000E+00  0.000000000E+00  1.304618758E+01  1.304618758E+01  0.000000000E+00  0.00000E+00  9.000E+00
      21    -1     0     0   515   513  0.000000000E+00  0.000000000E+00 -6.595205627E+01  6.595205627E+01  0.000000000E+00  0.00000E+00  9.000E+00
      21     1     1     2   515   516  6.147446110E+00  9.548627900E+00 -5.670949608E+01  5.783540727E+01  6.743495762E-07  0.00000E+00  9.000E+00
      21     1     1     2   512   511 -8.159458456E+00  2.317402662E+00  3.347426145E+00  9.118792639E+00  8.429369702E-08  0.00000E+00  9.000E+00
      21     1     1     2   516   512  2.012012346E+00 -1.186603056E+01  4.562012449E-01  1.204404394E+01  1.825012075E-08  0.00000E+00  9.000E+00
</event>
<event>
      5  10001  3.52971E+09  5.47970E+00 -1.00000E+00  2.31763E-01
      21    -1     0     0   512   511  0.000000000E+00  0.000000000E+00  1.368848511E+02  1.368848511E+02  0.000000000E+00  0.00000E+00  9.000E+00
       2    -1     0     0   513     0  0.000000000E+00  0.000000000E+00 -1.054181039E+02  1.054181039E+02  0.000000000E+00  0.00000E+00  9.000E+00
      21     1     1     2   512   514  7.659040725E+00  1.160627084E+01  1.354210578E+02  1.361331309E+02  0.000000000E+00  0.00000E+00  9.000E+00
       2     1     1     2   514     0 -3.463888037E+00 -1.513155798E+01 -6.481300352E+01  6.664680707E+01  3.300000131E-01  0.00000E+00  9.000E+00
      21     1     1     2   513   511 -4.195152687E+00  3.525287140E+00 -3.914130712E+01  3.952301708E+01  8.259061849E-07  0.00000E+00  9.000E+00
</event>
<event>
      5  10001  3.52971E+09  1.24107E+01 -1.00000E+00  1.85500E-01
      -3    -1     0     0     0   514  0.000000000E+00  0.000000000E+00  2.290881911E+02  2.290881911E+02  0.000000000E+00  0.00000E+00  9.000E+00
      21    -1     0     0   511   512  0.000000000E+00  0.000000000E+00 -1.447974447E+02  1.447974447E+02  0.000000000E+00  0.00000E+00  9.000E+00
      -3     1     1     2     0   513 -2.515263943E+01  3.946301008E+00  2.018870163E+02  2.034867217E+02  5.000000000E-01  0.00000E+00  9.000E+00
      21     1     1     2   513   512  1.633265792E+01 -1.267743320E+01 -1.417464839E+02  1.432464265E+02  3.303624740E-06  0.00000E+00  9.000E+00
      21     1     1     2   511   514  8.819981513E+00  8.731132194E+00  2.415021403E+01  2.715248757E+01  4.768371582E-07  0.00000E+00  9.000E+00
</event>
<event>
      5  10001  3.52971E+09  1.48768E+01 -1.00000E+00  1.77718E-01
      21    -1     0     0   515   511  0.000000000E+00  0.000000000E+00  5.146465263E+00  5.146465263E+00  0.000000000E+00  0.00000E+00  9.000E+00
      -1    -1     0     0     0   515  0.000000000E+00  0.000000000E+00 -7.029012007E+01  7.029012007E+01  0.000000000E+00  0.00000E+00  9.000E+00
      -1     1     1     2     0   512  9.612047457E+00 -6.378400537E+00 -5.784862604E+01  5.898854028E+01  3.300000131E-01  0.00000E+00  9.000E+00
      21     1     1     2   512   513 -4.510557212E+00 -1.741555018E+00 -4.102598044E+00  6.341092253E+00  1.192092896E-07  0.00000E+00  9.000E+00
      21     1     1     2   513   511 -5.101490245E+00  8.119955555E+00 -3.192430720E+00  1.010695280E+01  3.125693942E-07  0.00000E+00  9.000E+00
</event>
<event>
      5  10001  3.52971E+09  8.57392E+00 -1.00000E+00  2.03808E-01
      21    -1     0     0   515   512  0.000000000E+00  0.000000000E+00  2.521384408E+01  2.521384408E+01  0.000000000E+00  0.00000E+00  9.000E+00
      21    -1     0     0   516   511  0.000000000E+00  0.000000000E+00 -1.396886051E+02  1.396886051E+02  0.000000000E+00  0.00000E+00  9.000E+00
      21     1     1     2   514   511  1.452120618E+01 -6.969955825E+00  1.813791592E+01  2.425757010E+01  7.152557373E-07  0.00000E+00  9.000E+00
      21     1     1     2   516   512 -6.655803746E+00  3.557112459E+00 -1.318183993E+02  1.320342500E+02  1.907348633E-06  0.00000E+00  9.000E+00
      21     1     1     2   515   514 -7.865402429E+00  3.412843366E+00 -7.942775594E-01  8.610629017E+00  2.200130084E-07  0.00000E+00  9.000E+00
</event>
<event>
      5  10001  3.52971E+09  4.88426E+00 -1.00000E+00  2.44569E-01
      21    -1     0     0   513   511  0.000000000E+00  0.000000000E+00  1.899517992E+02  1.899517992E+02  0.000000000E+00  0.00000E+00  9.000E+00
      21    -1     0     0   517   513  0.000000000E+00  0.000000000E+00 -9.271642216E-01  9.271642216E-01  0.000000000E+00  0.00000E+00  9.000E+00
      21     1     1     2   517   514 -4.366304534E+00 -9.748978365E+00  4.316558491E+01  4.446768394E+01  4.768371582E-07  0.00000E+00  9.000E+00
      21     1     1     2   512   511  6.019368733E+00  5.648896219E+00  9.957755355E+01  9.991912730E+01  1.907348633E-06  0.00000E+00  9.000E+00
      21     1     1     2   514   512 -1.653064199E+00  4.100082145E+00  4.628149647E+01  4.649215214E+01  9.536743164E-07  0.00000E+00  9.000E+00
</event>
<event>
      5  10001  3.52971E+09  8.47184E+00 -1.00000E+00  2.04464E-01
      21    -1     0     0   515   512  0.000000000E+00  0.000000000E+00  5.496505590E+00  5.496505590E+00  0.000000000E+00  0.00000E+00  9.000E+00
      21    -1     0     0   514   516  0.000000000E+00  0.000000000E+00 -1.451571535E+02  1.451571535E+02  0.000000000E+00  0.00000E+00  9.000E+00
      21     1     1     2   515   516  1.290364183E+01  8.997674442E+00 -1.259023638E+02  1.268813120E+02  2.336015456E-06  0.00000E+00  9.000E+00
      21     1     1     2   514   511 -3.857796306E+00 -7.193806154E+00 -1.291879199E+00  8.264526071E+00  4.400260168E-07  0.00000E+00  9.000E+00
      21     1     1     2   511   512 -9.045845522E+00 -1.803868288E+00 -1.246640489E+01  1.550782102E+01  2.384185791E-07  0.00000E+00  9.000E+00
</event>
<event>
      5  10001  3.52971E+09  4.48622E+00 -1.00000E+00  2.52250E-01
       2    -1     0     0   514     0  0.000000000E+00  0.000000000E+00  1.818356689E+02  1.818356689E+02  0.000000000E+00  0.00000E+00  9.000E+00
      21    -1     0     0   511   513  0.000000000E+00  0.000000000E+00 -7.571085983E+01  7.571085983E+01  0.000000000E+00  0.00000E+00  9.000E+00
      21     1     1     2   515   513 -7.691498639E+00  7.739967172E+00 -6.879665085E+01  6.965662503E+01  1.651812370E-06  0.00000E+00  9.000E+00
       2     1     1     2   511     0  6.984504759E+00 -1.255754516E+01  1.801631636E+02  1.807355794E+02  3.300000131E-01  0.00000E+00  9.000E+00
      21     1     1     2   514   515  7.069938794E-01  4.817577984E+00 -5.241703699E+00  7.154324262E+00  1.788139343E-07  0.00000E+00  9.000E+00
</event>
<event>
      5  10001  3.52971E+09  4.84478E+00 -1.00000E+00  2.45281E-01
      21    -1     0     0   512   515  0.000000000E+00  0.000000000E+00  2.189828314E+01  2.189828314E+01  0.000000000E+00  0.00000E+00  9.000E+00
      -2    -1     0     0     0   511  0.000000000E+00  0.000000000E+00 -1.566368747E+01  1.566368747E+01  0.000000000E+00  0.00000E+00  9.000E+00
      -2     1     1     2     0   514  1.167236917E+01  7.316640294E+00 -6.584200682E+00  1.527213233E+01  3.300000131E-01  0.00000E+00  9.000E+00
      21     1     1     2   514   515 -6.828022595E+00 -7.323852972E+00  1.408622484E+01  1.728243169E+01  4.768371582E-07  0.00000E+00  9.000E+00
      21     1     1     2   512   511 -4.844346573E+00  7.212678262E-03 -1.267428498E+00  5.007406588E+00  8.024520885E-08  0.00000E+00  9.000E+00
</event>
<event>
      5  10001  3.52971E+09  3.80365E+01 -1.00000E+00  1.46206E-01
       1    -1     0     0   511     0  0.000000000E+00  0.000000000E+00  5.937084271E+01  5.937084271E+01  0.000000000E+00  0.00000E+00  9.000E+00
      21    -1     0     0   513   511  0.000000000E+00  0.000000000E+00 -9.970742254E+00  9.970742254E+00  0.000000000E+00  0.00000E+00  9.000E+00
      21     1     1     2   513   514 -1.550778217E+00 -5.958412094E+00  8.716414234E+00  1.067161960E+01  2.665600750E-07  0.00000E+00  9.000E+00
       1     1     1     2   512     0 -1.708617492E+01  2.914794704E+00  3.481952197E+01  3.889654756E+01  3.300000131E-01  0.00000E+00  9.000E+00
      21     1     1     2   514   512  1.863695314E+01  3.043617390E+00  5.864164245E+00  1.977341780E+01  6.419616708E-07  0.00000E+00  9.000E+00
</event>
<event>
      5  10001  3.52971E+09  3.43942E+00 -1.00000E+00  2.79934E-01
      21    -1     0     0   515   513  0.000000000E+00  0.000000000E+00  3.886064095E+02  3.886064095E+02  0.000000000E+00  0.00000E+00  9.000E+00
      21    -1     0     0   516   515  0.000000000E+00  0.000000000E+00 -1.558982544E+00  1.558982544E+00  0.000000000E+00  0.00000E+00  9.000E+00
      21     1     1     2   512   513 -3.725503857E+00  1.044297596E+01  3.503889017E+02  3.505642845E+02  0.000000000E+00  0.00000E+00  9.000E+00
      21     1     1     2   511   512  3.776732776E+00 -1.238345490E+01  3.022369108E+01  3.287985962E+01  1.118282261E-06  0.00000E+00  9.000E+00
      21     1     1     2   516   511 -5.122891974E-02  1.940478948E+00  6.434834129E+00  6.721247892E+00  1.192092896E-07  0.00000E+00  9.000E+00
</event>
<event>
      5  10001  3.52971E+09  8.33811E+00 -1.00000E+00  2.05342E-01
      21    -1     0     0   514   511  0.000000000E+00  0.000000000E+00  2.197904273E+02  2.197904273E+02  0.000000000E+00  0.00000E+00  9.000E+00
      21    -1     0     0   513   517  0.000000000E+00  0.000000000E+00 -1.433125305E+00  1.433125305E+00  0.000000000E+00  0.00000E+00  9.000E+00
      21     1     1     2   514   517  7.287111431E+00  6.590731584E+00  2.109134270E+01  2.326767012E+01  4.768371582E-07  0.00000E+00  9.000E+00
      21     1     1     2   512   511 -2.913023692E+00 -3.535930317E+00  1.749887568E+02  1.750487175E+02  1.907348633E-06  0.00000E+00  9.000E+00
      21     1     1     2   513   512 -4.374087739E+00 -3.054801267E+00  2.227720246E+01  2.290716490E+01  2.384185791E-07  0.00000E+00  9.000E+00
</event>
<event>
      5  10001  3.52971E+09  8.61621E+00 -1.00000E+00  2.03539E-01
      21    -1     0     0   515   512  0.000000000E+00  0.000000000E+00  4.104963041E+01  4.104963041E+01  0.000000000E+00  0.00000E+00  9.000E+00
      21    -1     0     0   513   515  0.000000000E+00  0.000000000E+00 -3.341061070E+02  3.341061070E+02  0.000000000E+00  0.00000E+00  9.000E+00
      21     1     1     2   513   516  1.010919750E+01 -6.087354186E+00 -3.231991224E+02  3.234144778E+02  3.814697266E-06  0.00000E+00  9.000E+00
      21     1     1     2   511   512 -6.840829033E+00  2.539332055E+00  4.005668628E+01  4.071588467E+01  4.768371582E-07  0.00000E+00  9.000E+00
      21     1     1     2   516   511 -3.268368468E+00  3.548022132E+00 -9.914040500E+00  1.102537494E+01  0.000000000E+00  0.00000E+00  9.000E+00
</event>
<event>
      5  10001  3.52971E+09  7.24961E+00 -1.00000E+00  2.13420E-01
      -1    -1     0     0     0   514  0.000000000E+00  0.000000000E+00  9.231134130E+01  9.231134130E+01  0.000000000E+00  0.00000E+00  9.000E+00
      21    -1     0     0   512   511  0.000000000E+00  0.000000000E+00 -4.342597427E+00  4.342597427E+00  0.000000000E+00  0.00000E+00  9.000E+00
      -1     1     1     2     0   511 -1.330965246E+01 -6.585948346E+00  7.557092404E+01  7.701684897E+01  3.300000131E-01  0.00000E+00  9.000E+00
      21     1     1     2   513   514  1.344582797E+00  1.828990556E+00  1.172572150E+00  2.555001918E+00  7.598131170E-08  0.00000E+00  9.000E+00
      21     1     1     2   512   513  1.196506966E+01  4.756957790E+00  1.122524768E+01  1.708208784E+01  2.665600750E-07  0.00000E+00  9.000E+00
</event>
<event>
      5  10001  3.52971E+09  1.17515E+01 -1.00000E+00  1.87984E-01
      21    -1     0     0   513   514  0.000000000E+00  0.000000000E+00  4.113850615E+00  4.113850615E+00  0.000000000E+00  0.00000E+00  9.000E+00
       2    -1     0     0   514     0  0.000000000E+00  0.000000000E+00 -1.460850837E+02  1.460850837E+02  0.000000000E+00  0.00000E+00  9.000E+00
      21     1     1     2   513   511  8.678238013E+00  1.025116371E+01 -1.958927825E+01  2.375158931E+01  0.000000000E+00  0.00000E+00  9.000E+00
       2     1     1     2   512     0 -4.557712093E+00 -1.191184509E+01 -1.211735343E+02  1.218433384E+02  3.300000131E-01  0.00000E+00  9.000E+00
      21     1     1     2   511   512 -4.120525919E+00  1.660681378E+00 -1.208420492E+00  4.604006579E+00  1.125012999E-07  0.00000E+00  9.000E+00
</event>
<event>
      5  10001  3.52971E+09  1.11911E+01 -1.00000E+00  1.90268E-01
      21    -1     0     0   515   512  0.000000000E+00  0.000000000E+00  5.806378902E+01  5.806378902E+01  0.000000000E+00  0.00000E+00  9.000E+00
      21    -1     0     0   511   516  0.000000000E+00  0.000000000E+00 -1.653468972E+01  1.653468972E+01  0.000000000E+00  0.00000E+00  9.000E+00
      21     1     1     2   515   516 -7.888383404E+00 -1.176625668E+01 -1.191181776E+01  1.850845189E+01  4.129530925E-07  0.00000E+00  9.000E+00
       1     1     1     2   511     0  3.109221159E+00  5.553371481E-01  2.422743302E+01  2.443466935E+01  3.300000131E-01  0.00000E+00  9.000E+00
      -1     1     1     2     0   512  4.779162245E+00  1.121091953E+01  2.921348404E+01  3.165535750E+01  3.300000131E-01  0.00000E+00  9.000E+00
</event>
<event>
      5  10001  3.52971E+09  3.06637E+00 -1.00000E+00  2.94003E-01
      21    -1     0     0   514   512  0.000000000E+00  0.000000000E+00  2.340074554E+01  2.340074554E+01  0.000000000E+00  0.00000E+00  9.000E+00
       1    -1     0     0   512     0  0.000000000E+00  0.000000000E+00 -8.722987469E+02  8.722987469E+02  0.000000000E+00  0.00000E+00  9.000E+00
      21     1     1     2   511   513  6.971353294E+00 -8.503379358E+00  5.432081127E+00  1.226436842E+01  1.126196601E-06  0.00000E+00  9.000E+00
       1     1     1     2   513     0 -4.060193555E+00  9.466574313E+00 -8.686901696E+02  8.687512997E+02  3.300000131E-01  0.00000E+00  9.000E+00
      21     1     1     2   514   511 -2.911159739E+00 -9.631949554E-01  1.436008706E+01  1.468382430E+01  4.768371582E-07  0.00000E+00  9.000E+00
</event>
<event>
      5  10001  3.52971E+09  6.23330E+00 -1.00000E+00  2.22923E-01
      21    -1     0     0   515   513  0.000000000E+00  0.000000000E+00  5.697950433E+01  5.697950433E+01  0.000000000E+00  0.00000E+00  9.000E+00
      21    -1     0     0   512   511  0.000000000E+00  0.000000000E+00 -1.063110464E+01  1.063110464E+01  0.000000000E+00  0.00000E+00  9.000E+00
      21     1     1     2   515   511  7.703521941E+00  7.025628326E+00 -6.243286265E+00  1.215246177E+01  8.429369702E-08  0.00000E+00  9.000E+00
      21     1     1     2   516   513 -1.149555225E+01 -6.383109973E+00  4.583240426E+01  4.768124469E+01  9.536743164E-07  0.00000E+00  9.000E+00
      21     1     1     2   512   516  3.792030312E+00 -6.425183529E-01  6.759281685E+00  7.776902508E+00  8.429369702E-08  0.00000E+00  9.000E+00
</event>
<event>
      5  10001  3.52971E+09  7.78921E+00 -1.00000E+00  2.09193E-01
      21    -1     0     0   514   511  0.000000000E+00  0.000000000E+00  2.722277509E+01  2.722277509E+01  0.000000000E+00  0.00000E+00  9.000E+00
      21    -1     0     0   512   517  0.000000000E+00  0.000000000E+00 -5.760422863E+01  5.760422863E+01  0.000000000E+00  0.00000E+00  9.000E+00
      21     1     1     2   514   517 -1.175633303E+01 -4.575467636E+00  2.347433701E+01  2.664940466E+01  3.371747881E-07  0.00000E+00  9.000E+00
      -3     1     1     2     0   511  6.378505931E+00  7.898372754E+00 -4.938121891E+01  5.041650932E+01  5.000000000E-01  0.00000E+00  9.000E+00
       3     1     1     2   512     0  5.377827098E+00 -3.322905118E+00 -4.474571636E+00  7.761089746E+00  5.000000000E-01  0.00000E+00  9.000E+00
</event>
<event>
      5  10001  3.52971E+09  3.00616E+00 -1.00000E+00  2.96588E-01
      21    -1     0     0   513   511  0.000000000E+00  0.000000000E+00  1.484318646E+00  1.484318646E+00  0.000000000E+00  0.00000E+00  9.000E+00
       1    -1     0     0   511     0  0.000000000E+00  0.000000000E+00 -1.178498611E+02  1.178498611E+02  0.000000000E+00  0.00000E+00  9.000E+00
      21     1     1     2   513   512  6.107769151E+00  7.910868713E+00 -1.924237131E+01  2.168307039E+01  4.129530925E-07  0.00000E+00  9.000E+00
      21     1     1     2   512   514 -9.545805355E-01 -2.353522521E+00 -2.215472378E+01  2.229982238E+01  2.384185791E-07  0.00000E+00  9.000E+00
       1     1     1     2   514     0 -5.153188616E+00 -5.557346192E+00 -7.496844731E+01  7.535128693E+01  3.300000131E-01  0.00000E+00  9.000E+00
</event>
<event>
      5  10001  3.52971E+09  7.05169E+00 -1.00000E+00  2.15097E-01
      -1    -1     0     0     0   515  0.000000000E+00  0.000000000E+00  1.362090043E+02  1.362090043E+02  0.000000000E+00  0.00000E+00  9.000E+00
      21    -1     0     0   513   514  0.000000000E+00  0.000000000E+00 -8.078860991E+01  8.078860991E+01  0.000000000E+00  0.00000E+00  9.000E+00
      -1     1     1     2     0   511 -1.868793639E+01  3.433594858E+00  1.290946153E+02  1.304858503E+02  3.300000131E-01  0.00000E+00  9.000E+00
      21     1     1     2   513   515  1.591235709E+01  1.229011562E+00 -7.797269751E+01  7.958929033E+01  9.536743164E-07  0.00000E+00  9.000E+00
      21     1     1     2   511   514  2.775579294E+00 -4.662606420E+00  4.298476647E+00  6.922473585E+00  8.429369702E-08  0.00000E+00  9.000E+00
</event>
<event>
      5  10001  3.52971E+09  1.04770E+01 -1.00000E+00  1.93442E-01
      21    -1     0     0   512   511  0.000000000E+00  0.000000000E+00  3.537479867E+00  3.537479867E+00  0.000000000E+00  0.00000E+00  9.000E+00
      21    -1     0     0   516   512  0.000000000E+00  0.000000000E+00 -4.858904120E+01  4.858904120E+01  0.000000000E+00  0.00000E+00  9.000E+00
      21     1     1     2   516   514  7.006627932E+00  8.663158188E+00 -2.006993664E+01  2.295529354E+01  3.371747881E-07  0.00000E+00  9.000E+00
      21     1     1     2   513   511 -2.758055806E+00 -4.764880882E+00 -2.200293445E+01  2.268127170E+01  4.129530925E-07  0.00000E+00  9.000E+00
      21     1     1     2   514   513 -4.248572126E+00 -3.898277305E+00 -2.978690246E+00  6.489955827E+00  1.632340424E-07  0.00000E+00  9.000E+00
</event>
<event>
      5  10001  3.52971E+09  1.78889E+01 -1.00000E+00  1.70465E-01
      21    -1     0     0   515   513  0.000000000E+00  0.000000000E+00  5.074498286E+01  5.074498286E+01  0.000000000E+00  0.00000E+00  9.000E+00
      21    -1     0     0   517   515  0.000000000E+00  0.000000000E+00 -1.395826934E+01  1.395826934E+01  0.000000000E+00  0.00000E+00  9.000E+00
      21     1     1     2   517   516 -1.457041731E+01  2.481570376E+00 -5.295189738E+00  1.570013651E+01  2.308477966E-07  0.00000E+00  9.000E+00
      21     1     1     2   516   511  1.481388104E+01  5.541055469E+00  1.993834052E+01  2.544978959E+01  0.000000000E+00  0.00000E+00  9.000E+00
      21     1     1     2   511   513 -2.434637325E-01 -8.022625844E+00  2.214356274E+01  2.355332611E+01  4.129530925E-07  0.00000E+00  9.000E+00
</event>
<event>
      5  10001  3.52971E+09  6.20294E+00 -1.00000E+00  2.23245E-01
      21    -1     0     0   512   516  0.000000000E+00  0.000000000E+00  2.411939280E+00  2.411939280E+00  0.000000000E+00  0.00000E+00  9.000E+00
      21    -1     0     0   514   513  0.000000000E+00  0.000000000E+00 -8.964499273E+01  8.964499273E+01  0.000000000E+00  0.00000E+00  9.000E+00
      21     1     1     2   512   513 -2.373130580E+00 -9.042333924E+00 -6.961290073E+01  7.023782100E+01  0.000000000E+00  0.00000E+00  9.000E+00
      21     1     1     2   515   516  5.460821081E+00  7.356035499E+00 -1.429150593E+01  1.697583480E+01  1.685873940E-07  0.00000E+00  9.000E+00
      21     1     1     2   514   515 -3.087690501E+00  1.686298424E+00 -3.328646787E+00  4.843276209E+00  8.429369702E-08  0.00000E+00  9.000E+00
</event>
<event>
      5  10001  3.52971E+09  6.64223E+00 -1.00000E+00  2.18819E-01
       2    -1     0     0   511     0  0.000000000E+00  0.000000000E+00  2.861926145E+02  2.861926145E+02  0.000000000E+00  0.00000E+00  9.000E+00
      -4    -1     0     0     0   513  0.000000000E+00  0.000000000E+00 -1.522732912E+01  1.522732912E+01  0.000000000E+00  0.00000E+00  9.000E+00
      -4     1     1     2     0   512  6.631721295E-01 -1.435181003E+01 -9.062914674E+00  1.705287867E+01  1.500000000E+00  0.00000E+00  9.000E+00
       2     1     1     2   512     0 -5.133488377E+00  9.440403591E+00  2.767537577E+02  2.769624979E+02  3.300000131E-01  0.00000E+00  9.000E+00
      21     1     1     2   511   513  4.470316247E+00  4.911406439E+00  3.274442297E+00  7.404567031E+00  1.115100797E-07  0.00000E+00  9.000E+00
</event>
<event>
      5  10001  3.52971E+09  5.26513E+00 -1.00000E+00  2.34654E-01
      21    -1     0     0   514   512  0.000000000E+00  0.000000000E+00  1.027245400E+03  1.027245400E+03  0.000000000E+00  0.00000E+00  9.000E+00
      21    -1     0     0   515   514  0.000000000E+00  0.000000000E+00 -5.934830796E-01  5.934830796E-01  0.000000000E+00  0.00000E+00  9.000E+00
      21     1     1     2   515   513  1.087625096E+00  1.161858830E+01  6.758689494E+01  6.858690028E+01  2.336015456E-06  0.00000E+00  9.000E+00
      -5     1     1     2     0   512 -4.181660121E+00 -8.150740134E+00  7.690452956E+02  7.691148338E+02  4.800000191E+00  0.00000E+00  9.000E+00
       5     1     1     2   513     0  3.094035025E+00 -3.467848165E+00  1.900197264E+02  1.901371491E+02  4.800000191E+00  0.00000E+00  9.000E+00
</event>
<event>
      5  10001  3.52971E+09  1.21757E+01 -1.00000E+00  1.86362E-01
      21    -1     0     0   511   513  0.000000000E+00  0.000000000E+00  2.599723611E+01  2.599723611E+01  0.000000000E+00  0.00000E+00  9.000E+00
      21    -1     0     0   516   511  0.000000000E+00  0.000000000E+00 -2.247745519E+02  2.247745519E+02  0.000000000E+00  0.00000E+00  9.000E+00
      21     1     1     2   516   515  1.257719834E+01  1.099323708E+00 -2.146948346E+02  2.150657258E+02  0.000000000E+00  0.00000E+00  9.000E+00
      21     1     1     2   512   513 -2.061782116E+01  1.031904732E+00  1.770711997E+01  2.719745346E+01  8.920806376E-07  0.00000E+00  9.000E+00
      21     1     1     2   515   512  8.040622828E+00 -2.131228440E+00 -1.789601174E+00  8.508608728E+00  1.381876841E-07  0.00000E+00  9.000E+00
</event>
<event>
      5  10001  3.52971E+09  1.47029E+01 -1.00000E+00  1.78202E-01
      21    -1     0     0   514   512  0.000000000E+00  0.000000000E+00  3.387453283E+02  3.387453283E+02  0.000000000E+00  0.00000E+00  9.000E+00
      21    -1     0     0   515   517  0.000000000E+00  0.000000000E+00 -3.146215662E+01  3.146215662E+01  0.000000000E+00  0.00000E+00  9.000E+00
      21     1     1     2   514   517 -1.038762565E+01 -4.874289895E+00 -3.029514895E+01  3.239533174E+01  9.536743164E-07  0.00000E+00  9.000E+00
      21     1     1     2   511   512  2.255206145E+00 -5.831390342E-01  3.628360174E+01  3.635829700E+01  8.259061849E-07  0.00000E+00  9.000E+00
      21     1     1     2   515   511  8.132419501E+00  5.457428930E+00  3.012947189E+02  3.014538561E+02  0.000000000E+00  0.00000E+00  9.000E+00
</event>
<event>
      5  10001  3.52971E+09  1.65396E+01 -1.00000E+00  1.73474E-01
      21    -1     0     0   513   515  0.000000000E+00  0.000000000E+00  2.592694619E+01  2.592694619E+01  0.000000000E+00  0.00000E+00  9.000E+00
      -2    -1     0     0     0   513  0.000000000E+00  0.000000000E+00 -9.436995075E+01  9.436995075E+01  0.000000000E+00  0.00000E+00  9.000E+00
      -2     1     1     2     0   512 -1.584363288E+01  5.798535392E+00 -8.155492742E+01  8.328240392E+01  3.300000131E-01  0.00000E+00  9.000E+00
      21     1     1     2   512   514  1.308369243E+01 -1.654517747E+01  1.483288028E+01  2.578643524E+01  7.539457465E-07  0.00000E+00  9.000E+00
      21     1     1     2   514   515  2.759940444E+00  1.074664208E+01 -1.720957416E+00  1.122805778E+01  2.117852927E-07  0.00000E+00  9.000E+00
</event>
<event>
      5  10001  3.52971E+09  9.04346E+00 -1.00000E+00  2.00939E-01
       5    -1     0     0   511     0  0.000000000E+00  0.000000000E+00  3.639494471E-01  3.639494471E-01  0.000000000E+00  0.00000E+00  9.000E+00
      -2    -1     0     0     0   511  0.000000000E+00  0.000000000E+00 -7.869415832E+02  7.869415832E+02  0.000000000E+00  0.00000E+00  9.000E+00
      -2     1     1     2     0   512 -2.675949621E+00  1.595475318E+00 -4.819254973E+02  4.819356805E+02  3.300000131E-01  0.00000E+00  9.000E+00
       5     1     1     2   513     0  8.283915041E+00  3.187182170E+00 -8.543304821E+01  8.602689758E+01  4.800000191E+00  0.00000E+00  9.000E+00
      21     1     1     2   512   513 -5.607965420E+00 -4.782657488E+00 -2.192190881E+02  2.193429545E+02  3.814697266E-06  0.00000E+00  9.000E+00
</event>
<event>
      5  10001  3.52971E+09  2.21923E+01 -1.00000E+00  1.62723E-01
      21    -1     0     0   514   513  0.000000000E+00  0.000000000E+00  3.649390809E+01  3.649390809E+01  0.000000000E+00  0.00000E+00  9.000E+00
      21    -1     0     0   512   515  0.000000000E+00  0.000000000E+00 -6.715426213E+01  6.715426213E+01  0.000000000E+00  0.00000E+00  9.000E+00
      21     1     1     2   514   515  9.646116747E+00  5.377027671E+00 -5.922150476E+01  6.024239887E+01  0.000000000E+00  0.00000E+00  9.000E+00
      21     1     1     2   512   511 -1.100302831E+01 -1.735203312E+01  1.951052254E+01  2.833408151E+01  7.152557373E-07  0.00000E+00  9.000E+00
      21     1     1     2   511   513  1.356911559E+00  1.197500545E+01  9.050628183E+00  1.507168985E+01  0.000000000E+00  0.00000E+00  9.000E+00
</event>
<event>
      5  10001  3.52971E+09  4.64217E+00 -1.00000E+00  2.49102E-01
      21    -1     0     0   514   512  0.000000000E+00  0.000000000E+00  1.918678488E+01  1.918678488E+01  0.000000000E+00  0.00000E+00  9.000E+00
      21    -1     0     0   517   513  0.000000000E+00  0.000000000E+00 -1.733444027E+01  1.733444027E+01  0.000000000E+00  0.00000E+00  9.000E+00
      21     1     1     2   516   513 -1.282963231E+01 -7.978033677E-01 -4.144272782E+00  1.350595988E+01  2.149076030E-07  0.00000E+00  9.000E+00
      21     1     1     2   517   512  8.583138720E+00 -1.077564098E+00 -5.748273690E+00  1.038624403E+01  1.460009660E-07  0.00000E+00  9.000E+00
      21     1     1     2   514   516  4.246493589E+00  1.875367466E+00  1.174489108E+01  1.262902124E+01  1.685873940E-07  0.00000E+00  9.000E+00
</event>
<event>
      5  10001  3.52971E+09  5.52424E+00 -1.00000E+00  2.31186E-01
       2    -1     0     0   513     0  0.000000000E+00  0.000000000E+00  9.372356857E+01  9.372356857E+01  0.000000000E+00  0.00000E+00  9.000E+00
       2    -1     0     0   514     0  0.000000000E+00  0.000000000E+00 -5.515212516E+01  5.515212516E+01  0.000000000E+00  0.00000E+00  9.000E+00
      21     1     1     2   514   511 -6.342919036E+00 -9.904355264E+00  1.590726827E+01  1.978307507E+01  5.331201500E-07  0.00000E+00  9.000E+00
       2     1     1     2   511     0  1.035974181E+00  1.143826362E+01  7.529753850E+01  7.616912315E+01  3.300000131E-01  0.00000E+00  9.000E+00
       2     1     1     2   513     0  5.306944855E+00 -1.533908352E+00 -5.263336337E+01  5.292349552E+01  3.300000131E-01  0.00000E+00  9.000E+00
</event>
<event>
      5  10001  3.52971E+09  4.18526E+00 -1.00000E+00  2.58913E-01
       3    -1     0     0   514     0  0.000000000E+00  0.000000000E+00  9.153074766E+00  9.153074766E+00  0.000000000E+00  0.00000E+00  9.000E+00
      21    -1     0     0   512   513  0.000000000E+00  0.000000000E+00 -7.708673091E+01  7.708673091E+01  0.000000000E+00  0.00000E+00  9.000E+00
      21     1     1     2   511   513 -1.713099106E+01  8.762129505E+00 -5.501257522E+01  5.828060741E+01  0.000000000E+00  0.00000E+00  9.000E+00
       3     1     1     2   512     0  1.977036798E+01 -5.514557115E+00 -9.871078814E+00  2.278082499E+01  5.000000000E-01  0.00000E+00  9.000E+00
      21     1     1     2   514   511 -2.639376913E+00 -3.247572390E+00 -3.050002108E+00  5.178373275E+00  4.214684851E-08  0.00000E+00  9.000E+00
</event>
<event>
      5  10001  3.52971E+09  6.58251E+00 -1.00000E+00  2.19393E-01
      21    -1     0     0   515   512  0.000000000E+00  0.000000000E+00  3.065065694E+01  3.065065694E+01  0.000000000E+00  0.00000E+00  9.000E+00
      21    -1     0     0   516   511  0.000000000E+00  0.000000000E+00 -8.111681738E+00  8.111681738E+00  0.000000000E+00  0.00000E+00  9.000E+00
      21     1     1     2   515   511  6.193790921E+00  1.305936055E+01  1.124936085E+01  1.831551428E+01  1.192092896E-07  0.00000E+00  9.000E+00
      21     1     1     2   513   512 -7.316078585E+00 -7.791663316E+00  4.063788600E+00  1.143457043E+01  8.429369702E-08  0.00000E+00  9.000E+00
      21     1     1     2   516   513  1.122287664E+00 -5.267697234E+00  7.225825755E+00  9.012253968E+00  1.884864366E-07  0.00000E+00  9.000E+00
</event>
<event>
      5  10001  3.52971E+09  1.37139E+01 -1.00000E+00  1.81127E-01
      21    -1     0     0   514   511  0.000000000E+00  0.000000000E+00  4.769119732E-01  4.769119732E-01  0.000000000E+00  0.00000E+00  9.000E+00
      21    -1     0     0   516   517  0.000000000E+00  0.000000000E+00 -5.338233900E+02  5.338233900E+02  0.000000000E+00  0.00000E+00  9.000E+00
      21     1     1     2   514   517 -1.146873225E+01 -1.323147950E+00 -3.358118024E+02  3.360101921E+02  3.814697266E-06  0.00000E+00  9.000E+00
      21     1     1     2   516   512  7.212378279E+00  4.593827473E+00 -1.712267946E+02  1.714401844E+02  1.907348633E-06  0.00000E+00  9.000E+00
      21     1     1     2   512   511  4.256353969E+00 -3.270679523E+00 -2.630788103E+01  2.684992547E+01  1.215700987E-06  0.00000E+00  9.000E+00
</event>
<event>
      5  10001  3.52971E+09  8.47133E+00 -1.00000E+00  2.04467E-01
      21    -1     0     0   513   516  0.000000000E+00  0.000000000E+00  2.884573944E+01  2.884573944E+01  0.000000000E+00  0.00000E+00  9.000E+00
      21    -1     0     0   515   511  0.000000000E+00  0.000000000E+00 -4.953684009E+00  4.953684009E+00  0.000000000E+00  0.00000E+00  9.000E+00
      21     1     1     2   513   511 -6.511571180E+00 -7.325591672E+00  1.793292859E+01  2.043660394E+01  2.384185791E-07  0.00000E+00  9.000E+00
      21     1     1     2   515   514  3.857889108E+00  3.167038856E+00  6.720504972E+00  8.371298022E+00  1.192092896E-07  0.00000E+00  9.000E+00
      21     1     1     2   514   516  2.653682071E+00  4.158552816E+00 -7.613781394E-01  4.991521485E+00  2.202651724E-07  0.00000E+00  9.000E+00
</event>
<event>
      5  10001  3.52971E+09  3.23043E+00 -1.00000E+00  2.87434E-01
      21    -1     0     0   512   514  0.000000000E+00  0.000000000E+00  1.483448336E+00  1.483448336E+00  0.000000000E+00  0.00000E+00  9.000E+00
       2    -1     0     0   511     0  0.000000000E+00  0.000000000E+00 -1.026572277E+03  1.026572277E+03  0.000000000E+00  0.00000E+00  9.000E+00
      21     1     1     2   515   514 -5.721061401E+00 -2.985905409E+01 -2.092733461E+02  2.114701564E+02  6.607249480E-06  0.00000E+00  9.000E+00
       2     1     1     2   512     0  3.070356588E+00  3.170541093E+01 -6.991011977E+02  6.998265883E+02  3.300000131E-01  0.00000E+00  9.000E+00
      21     1     1     2   511   515  2.650704814E+00 -1.846356844E+00 -1.167142846E+02  1.167589804E+02  1.348699152E-06  0.00000E+00  9.000E+00
</event>
<event>
      5  10001  3.52971E+09  2.69634E+00 -1.00000E+00  3.11667E-01
      21    -1     0     0   513   512  0.000000000E+00  0.000000000E+00  4.793907246E+01  4.793907246E+01  0.000000000E+00  0.00000E+00  9.000E+00
      21    -1     0     0   511   513  0.000000000E+00  0.000000000E+00 -1.113482302E+02  1.113482302E+02  0.000000000E+00  0.00000E+00  9.000E+00
      21     1     1     2   511   515  6.560073049E+00 -6.336981742E+00 -8.120106049E+01  8.171171349E+01  1.651812370E-06  0.00000E+00  9.000E+00
      21     1     1     2   515   514 -9.059575110E+00  7.348284392E+00 -2.871325817E+01  3.099232775E+01  6.743495762E-07  0.00000E+00  9.000E+00
      21     1     1     2   514   512  2.499502061E+00 -1.011302650E+00  4.650516097E+01  4.658326138E+01  6.743495762E-07  0.00000E+00  9.000E+00
</event>
<event>
      5  10001  3.52971E+09  6.52397E+00 -1.00000E+00  2.19963E-01
      21    -1     0     0   516   515  0.000000000E+00  0.000000000E+00  2.179780088E+01  2.179780088E+01  0.000000000E+00  0.00000E+00  9.000E+00
      21    -1     0     0   512   513  0.000000000E+00  0.000000000E+00 -1.271018295E+02  1.271018295E+02  0.000000000E+00  0.00000E+00  9.000E+00
      21     1     1     2   512   511  1.474915068E+01  5.558098362E+00 -1.146734729E+02  1.157516103E+02  0.000000000E+00  0.00000E+00  9.000E+00
      21     1     1     2   511   515 -1.088405032E+01 -3.023258235E-01  1.877354280E+01  2.170253122E+01  2.384185791E-07  0.00000E+00  9.000E+00
      21     1     1     2   516   513 -3.865100367E+00 -5.255772538E+00 -9.404098535E+00  1.144548885E+01  1.192092896E-07  0.00000E+00  9.000E+00
</event>
<event>
      5  10001  3.52971E+09  8.08241E+00 -1.00000E+00  2.07085E-01
      -2    -1     0     0     0   514  0.000000000E+00  0.000000000E+00  9.558496411E-01  9.558496411E-01  0.000000000E+00  0.00000E+00  9.000E+00
      21    -1     0     0   515   513  0.000000000E+00  0.000000000E+00 -2.623454019E+02  2.623454019E+02  0.000000000E+00  0.00000E+00  9.000E+00
      -2     1     1     2     0   511 -3.849508561E+00 -1.059075959E+01 -5.503316144E+01  5.617597941E+01  3.300000131E-01  0.00000E+00  9.000E+00
      21     1     1     2   515   514 -6.265581981E-01  9.814945807E+00 -1.863608788E+02  1.866202103E+02  2.697398305E-06  0.00000E+00  9.000E+00
      21     1     1     2   511   513  4.476066759E+00  7.758137879E-01 -1.999551204E+01  2.050506187E+01  0.000000000E+00  0.00000E+00  9.000E+00
</event>
<event>
      5  10001  3.52971E+09  3.41569E+00 -1.00000E+00  2.80742E-01
      21    -1     0     0   512   514  0.000000000E+00  0.000000000E+00  2.107139910E+00  2.107139910E+00  0.000000000E+00  0.00000E+00  9.000E+00
      21    -1     0     0   516   512  0.000000000E+00  0.000000000E+00 -5.650108569E+01  5.650108569E+01  0.000000000E+00  0.00000E+00  9.000E+00
      21     1     1     2   513   514 -3.267770383E+00  9.556115931E+00 -2.259512274E+01  2.474948983E+01  2.384185791E-07  0.00000E+00  9.000E+00
      21     1     1     2   516   515  3.529291222E+00 -7.758490718E+00 -1.772192616E+01  1.966511484E+01  2.384185791E-07  0.00000E+00  9.000E+00
      21     1     1     2   515   513 -2.615208387E-01 -1.797625213E+00 -1.407689687E+01  1.419362093E+01  2.384185791E-07  0.00000E+00  9.000E+00
</event>
<event>
      5  10001  3.52971E+09  6.94215E+00 -1.00000E+00  2.16059E-01
      21    -1     0     0   511   515  0.000000000E+00  0.000000000E+00  2.700773186E+00  2.700773186E+00  0.000000000E+00  0.00000E+00  9.000E+00
       1    -1     0     0   514     0  0.000000000E+00  0.000000000E+00 -1.840397456E+02  1.840397456E+02  0.000000000E+00  0.00000E+00  9.000E+00
      21     1     1     2   514   515 -2.193875066E+00  9.252528254E+00 -7.384644380E+00  1.203974001E+01  3.953724850E-07  0.00000E+00  9.000E+00
       1     1     1     2   512     0 -1.896144052E+00 -5.808071229E+00 -1.513104804E+02  1.514341423E+02  3.300000131E-01  0.00000E+00  9.000E+00
      21     1     1     2   511   512  4.090019118E+00 -3.444457025E+00 -2.264384764E+01  2.326663655E+01  3.371747881E-07  0.00000E+00  9.000E+00
</event>
<event>
      5  10001  3.52971E+09  1.15184E+01 -1.00000E+00  1.88914E-01
       1    -1     0     0   514     0  0.000000000E+00  0.000000000E+00  4.897733182E+02  4.897733182E+02  0.000000000E+00  0.00000E+00  9.000E+00
       1    -1     0     0   511     0  0.000000000E+00  0.000000000E+00 -3.596324964E+00  3.596324964E+00  0.000000000E+00  0.00000E+00  9.000E+00
       1     1     1     2   511     0  9.917366431E+00 -1.147822556E+01  3.637770036E+02  3.640932862E+02  3.300000131E-01  0.00000E+00  9.000E+00
       1     1     1     2   513     0 -7.686958212E-01  1.847576321E+01  2.447855858E+01  3.067985413E+01  3.300000131E-01  0.00000E+00  9.000E+00
      21     1     1     2   514   513 -9.148670610E+00 -6.997537653E+00  9.792143107E+01  9.859650283E+01  1.348699152E-06  0.00000E+00  9.000E+00
</event>
<event>
      5  10001  3.52971E+09  1.20707E+01 -1.00000E+00  1.86756E-01
       2    -1     0     0   514     0  0.000000000E+00  0.000000000E+00  6.212274473E+01  6.212274473E+01  0.000000000E+00  0.00000E+00  9.000E+00
      21    -1     0     0   512   513  0.000000000E+00  0.000000000E+00 -2.818566514E+00  2.818566514E+00  0.000000000E+00  0.00000E+00  9.000E+00
      21     1     1     2   514   513  2.955195653E+00  7.351823122E+00  3.391677768E+01  3.483001999E+01  4.768371582E-07  0.00000E+00  9.000E+00
       2     1     1     2   511     0  1.116163132E+00 -9.750426838E+00  2.256040584E+01  2.460482585E+01  3.300000131E-01  0.00000E+00  9.000E+00
      21     1     1     2   512   511 -4.071358785E+00  2.398603717E+00  2.826994698E+00  5.506465397E+00  1.192092896E-07  0.00000E+00  9.000E+00
</event>
<event>
      5  10001  3.52971E+09  1.47695E+01 -1.00000E+00  1.78016E-01
       2    -1     0     0   513     0  0.000000000E+00  0.000000000E+00  1.470993427E+02  1.470993427E+02  0.000000000E+00  0.00000E+00  9.000E+00
      21    -1     0     0   511   514  0.000000000E+00  0.000000000E+00 -6.813498522E+00  6.813498522E+00  0.000000000E+00  0.00000E+00  9.000E+00
      21     1     1     2   511   515 -2.704744311E+00 -6.266400893E+00  8.387886509E+00  1.081388284E+01  6.307962682E-07  0.00000E+00  9.000E+00
       2     1     1     2   515     0  1.717583857E+01  3.314539765E+00  1.259787602E+02  1.271878631E+02  3.300000131E-01  0.00000E+00  9.000E+00
      21     1     1     2   513   514 -1.447109426E+01  2.951861128E+00  5.919197448E+00  1.591109524E+01  8.429369702E-08  0.00000E+00  9.000E+00
</event>
<event>
      5  10001  3.52971E+09  5.18121E+00 -1.00000E+00  2.35839E-01
      21    -1     0     0   512   511  0.000000000E+00  0.000000000E+00  4.347263484E+01  4.347263484E+01  0.000000000E+00  0.00000E+00  9.000E+00
      21    -1     0     0   516   512  0.000000000E+00  0.000000000E+00 -2.076487016E+01  2.076487016E+01  0.000000000E+00  0.00000E+00  9.000E+00
      21     1     1     2   514   511 -1.030750732E+01 -4.028077850E+00  3.940718045E+01  4.093160135E+01  0.000000000E+00  0.00000E+00  9.000E+00
      21     1     1     2   516   515  5.835005759E+00  2.194656153E+00 -1.734311503E+01  1.842952650E+01  0.000000000E+00  0.00000E+00  9.000E+00
      21     1     1     2   515   514  4.472501563E+00  1.833421697E+00  6.436992742E-01  4.876377150E+00  1.326538162E-07  0.00000E+00  9.000E+00
</event>
<event>
      5  10001  3.52971E+09  6.50741E+00 -1.00000E+00  2.20126E-01
      21    -1     0     0   515   512  0.000000000E+00  0.000000000E+00  2.839278555E+02  2.839278555E+02  0.000000000E+00  0.00000E+00  9.000E+00
       2    -1     0     0   511     0  0.000000000E+00  0.000000000E+00 -1.772742902E+01  1.772742902E+01  0.000000000E+00  0.00000E+00  9.000E+00
      21     1     1     2   515   513 -4.677056913E-01 -1.286315545E+01  2.317854064E+01  2.651271889E+01  6.743495762E-07  0.00000E+00  9.000E+00
       2     1     1     2   513     0 -6.019186569E+00  1.337897692E+01 -1.265828671E+01  1.937959630E+01  3.300000131E-01  0.00000E+00  9.000E+00
      21     1     1     2   511   512  6.486892260E+00 -5.158214752E-01  2.556801725E+02  2.557629693E+02  0.000000000E+00  0.00000E+00  9.000E+00
</event>
<event>
      5  10001  3.52971E+09  9.79506E+00 -1.00000E+00  1.96798E-01
      21    -1     0     0   515   513  0.000000000E+00  0.000000000E+00  4.892638723E+02  4.892638723E+02  0.000000000E+00  0.00000E+00  9.000E+00
      21    -1     0     0   511   514  0.000000000E+00  0.000000000E+00 -5.968621829E+00  5.968621829E+00  0.000000000E+00  0.00000E+00  9.000E+00
      21     1     1     2   511   512 -6.801606491E+00 -1.847214764E+01  1.635082018E+01  2.558967389E+01  1.092571186E-06  0.00000E+00  9.000E+00
      21     1     1     2   512   513 -1.086985312E+00  2.427846244E+01  1.139621406E+02  1.165246530E+02  1.907348633E-06  0.00000E+00  9.000E+00
      21     1     1     2   515   514  7.888591802E+00 -5.806314800E+00  3.529822897E+02  3.531181672E+02  0.000000000E+00  0.00000E+00  9.000E+00
</event>
<event>
      5  10001  3.52971E+09  6.34403E+00 -1.00000E+00  2.21770E-01
      21    -1     0     0   516   512  0.000000000E+00  0.000000000E+00  3.943150831E+01  3.943150831E+01  0.000000000E+00  0.00000E+00  9.000E+00
      21    -1     0     0   517   516  0.000000000E+00  0.000000000E+00 -5.795981911E+00  5.795981911E+00  0.000000000E+00  0.00000E+00  9.000E+00
      21     1     1     2   517   511 -9.565570143E+00 -4.047568177E+00  6.196220846E-01  1.040513680E+01  1.170950655E-07  0.00000E+00  9.000E+00
      21     1     1     2   513   512  2.324491343E+00 -5.228228264E-01  9.557651812E+00  9.850142734E+00  0.000000000E+00  0.00000E+00  9.000E+00
      21     1     1     2   511   513  7.241078800E+00  4.570391004E+00  2.345825250E+01  2.497221069E+01  0.000000000E+00  0.00000E+00  9.000E+00
</event>
<event>
      5  10001  3.52971E+09  4.45718E+00 -1.00000E+00  2.52858E-01
       2    -1     0     0   514     0  0.000000000E+00  0.000000000E+00  2.179907453E+03  2.179907453E+03  0.000000000E+00  0.00000E+00  9.000E+00
      21    -1     0     0   511   515  0.000000000E+00  0.000000000E+00 -2.964515268E+00  2.964515268E+00  0.000000000E+00  0.00000E+00  9.000E+00
      21     1     1     2   514   515 -8.690845424E+00  9.774668280E+00  1.864640603E+01  2.277637794E+01  2.384185791E-07  0.00000E+00  9.000E+00
      21     1     1     2   511   513  8.242036079E+00 -5.340158409E+00  2.597803822E+01  2.777241294E+01  6.743495762E-07  0.00000E+00  9.000E+00
       2     1     1     2   513     0  4.488093455E-01 -4.434509871E+00  2.132318493E+03  2.132323177E+03  3.300000131E-01  0.00000E+00  9.000E+00
</event>
<event>
      5  10001  3.52971E+09  3.94277E+00 -1.00000E+00  2.64945E-01
      21    -1     0     0   514   511  0.000000000E+00  0.000000000E+00  3.845170427E+01  3.845170427E+01  0.000000000E+00  0.00000E+00  9.000E+00
      21    -1     0     0   517   516  0.000000000E+00  0.000000000E+00 -5.033216493E+02  5.033216493E+02  0.000000000E+00  0.00000E+00  9.000E+00
      21     1     1     2   512   516  9.960821510E+00  5.649451745E+00 -4.477489706E+02  4.478953840E+02  1.078959322E-05  0.00000E+00  9.000E+00
      21     1     1     2   517   511 -9.489022327E+00 -1.735009343E+00 -5.497715672E+01  5.581701858E+01  1.651812370E-06  0.00000E+00  9.000E+00
      21     1     1     2   514   512 -4.717991831E-01 -3.914442401E+00  3.785618232E+01  3.806095104E+01  1.261592536E-06  0.00000E+00  9.000E+00
</event>
<event>
      5  10001  3.52971E+09  7.18130E+00 -1.00000E+00  2.13990E-01
      21    -1     0     0   513   516  0.000000000E+00  0.000000000E+00  9.588180567E+01  9.588180567E+01  0.000000000E+00  0.00000E+00  9.000E+00
      21    -1     0     0   515   511  0.000000000E+00  0.000000000E+00 -1.023410593E+02  1.023410593E+02  0.000000000E+00  0.00000E+00  9.000E+00
      21     1     1     2   513   512 -4.783590714E+00  1.144565835E+01  8.656168813E+01  8.744605015E+01  1.348699152E-06  0.00000E+00  9.000E+00
      21     1     1     2   515   516  9.128122742E+00 -5.727610122E+00  5.428124225E+00  1.206617898E+01  4.214684851E-07  0.00000E+00  9.000E+00
      21     1     1     2   512   511 -4.344532028E+00 -5.718048229E+00 -9.844906604E+01  9.871063589E+01  1.348699152E-06  0.00000E+00  9.000E+00
</event>
<event>
      5  10001  3.52971E+09  1.92363E+01 -1.00000E+00  1.67773E-01
      21    -1     0     0   514   512  0.000000000E+00  0.000000000E+00  2.877415255E+01  2.877415255E+01  0.000000000E+00  0.00000E+00  9.000E+00
      21    -1     0     0   517   514  0.000000000E+00  0.000000000E+00 -5.532614133E+01  5.532614133E+01  0.000000000E+00  0.00000E+00  9.000E+00
      21     1     1     2   517   511  3.539873286E+00 -1.773244699E+01 -4.034726629E+01  4.421393758E+01  4.768371582E-07  0.00000E+00  9.000E+00
      21     1     1     2   511   513  8.257089864E+00  1.656219466E+01  1.936699653E+01  2.678742951E+01  5.331201500E-07  0.00000E+00  9.000E+00
      21     1     1     2   513   512 -1.179696315E+01  1.170252334E+00 -5.571719023E+00  1.309892679E+01  2.457562462E-07  0.00000E+00  9.000E+00
</event>
<event>
      5  10001  3.52971E+09  3.39957E+00 -1.00000E+00  2.81297E-01
      21    -1     0     0   513   512  0.000000000E+00  0.000000000E+00  2.143429989E+00  2.143429989E+00  0.000000000E+00  0.00000E+00  9.000E+00
      -2    -1     0     0     0   515  0.000000000E+00  0.000000000E+00 -1.809922373E+02  1.809922373E+02  0.000000000E+00  0.00000E+00  9.000E+00
      -2     1     1     2     0   512  1.029653788E+01 -1.032813151E+01 -1.453158472E+02  1.460462028E+02  3.300000131E-01  0.00000E+00  9.000E+00
      21     1     1     2   513   511 -6.683733171E+00  1.024641018E+01 -2.605757600E+01  2.878642870E+01  6.743495762E-07  0.00000E+00  9.000E+00
      21     1     1     2   511   515 -3.612804712E+00  8.172132974E-02 -7.475384096E+00  8.303035809E+00  8.429369702E-08  0.00000E+00  9.000E+00
</event>
<event>
      5  10001  3.52971E+09  6.53881E+00 -1.00000E+00  2.19818E-01
      21    -1     0     0   514   512  0.000000000E+00  0.000000000E+00  9.022339981E+00  9.022339981E+00  0.000000000E+00  0.00000E+00  9.000E+00
      21    -1     0     0   513   514  0.000000000E+00  0.000000000E+00 -9.044785370E+01  9.044785370E+01  0.000000000E+00  0.00000E+00  9.000E+00
      21     1     1     2   516   515  1.519369205E+01  4.104834333E+00 -6.480580396E+01  6.668950570E+01  1.348699152E-06  0.00000E+00  9.000E+00
      21     1     1     2   515   512 -8.759367149E+00 -5.269073999E+00  4.130199790E+00  1.102489020E+01  1.032382731E-07  0.00000E+00  9.000E+00
      21     1     1     2   513   516 -6.434324898E+00  1.164239666E+00 -2.074990955E+01  2.175579778E+01  2.384185791E-07  0.00000E+00  9.000E+00
</event>
<event>
      5  10001  3.52971E+09  8.23293E+00 -1.00000E+00  2.06049E-01
      21    -1     0     0   511   515  0.000000000E+00  0.000000000E+00  5.600710995E-01  5.600710995E-01  0.000000000E+00  0.00000E+00  9.000E+00
      21    -1     0     0   513   516  0.000000000E+00  0.000000000E+00 -3.644117987E+02  3.644117987E+02  0.000000000E+00  0.00000E+00  9.000E+00
      21     1     1     2   511   516  1.083002298E+01 -2.568148830E+00 -1.064290319E+02  1.070094557E+02  2.336015456E-06  0.00000E+00  9.000E+00
      21     1     1     2   513   512 -9.343400006E+00 -4.054519407E-01 -2.422193333E+02  2.423998122E+02  2.697398305E-06  0.00000E+00  9.000E+00
      21     1     1     2   512   515 -1.486622976E+00  2.973600771E+00 -1.520336243E+01  1.556260192E+01  2.384185791E-07  0.00000E+00  9.000E+00
</event>
<event>
      5  10001  3.52971E+09  9.01108E+00 -1.00000E+00  2.01130E-01
       1    -1     0     0   511     0  0.000000000E+00  0.000000000E+00  5.450621360E+01  5.450621360E+01  0.000000000E+00  0.00000E+00  9.000E+00
      21    -1     0     0   514   511  0.000000000E+00  0.000000000E+00 -4.919543408E+00  4.919543408E+00  0.000000000E+00  0.00000E+00  9.000E+00
      21     1     1     2   514   512 -9.301697920E+00  8.257541276E+00  7.456303204E+00  1.450189745E+01  2.665600750E-07  0.00000E+00  9.000E+00
       1     1     1     2   513     0  1.707662408E+00 -4.504412079E+00  2.827407349E+01  2.868340933E+01  3.300000131E-01  0.00000E+00  9.000E+00
      21     1     1     2   512   513  7.594035512E+00 -3.753129197E+00  1.385629349E+01  1.624045022E+01  0.000000000E+00  0.00000E+00  9.000E+00
</event>
<event>
      5  10001  3.52971E+09  6.51859E+00 -1.00000E+00  2.20016E-01
      21    -1     0     0   515   514  0.000000000E+00  0.000000000E+00  8.347068754E+02  8.347068754E+02  0.000000000E+00  0.00000E+00  9.000E+00
      21    -1     0     0   511   515  0.000000000E+00  0.000000000E+00 -1.482876880E+01  1.482876880E+01  0.000000000E+00  0.00000E+00  9.000E+00
      21     1     1     2   513   514 -4.548905620E+00 -1.413880508E+01  6.176398631E+02  6.178184189E+02  7.629394531E-06  0.00000E+00  9.000E+00
      21     1     1     2   516   513  8.408225249E+00  8.885462412E+00  2.160754516E+02  2.164214649E+02  3.814697266E-06  0.00000E+00  9.000E+00
      21     1     1     2   511   516 -3.859319629E+00  5.253342663E+00 -1.383720806E+01  1.529576033E+01  1.608221240E-06  0.00000E+00  9.000E+00
</event>
<event>
      5  10001  3.52971E+09  1.56929E+01 -1.00000E+00  1.75552E-01
      21    -1     0     0   512   514  0.000000000E+00  0.000000000E+00  3.701631787E+00  3.701631787E+00  0.000000000E+00  0.00000E+00  9.000E+00
      21    -1     0     0   511   517  0.000000000E+00  0.000000000E+00 -5.177364016E+01  5.177364016E+01  0.000000000E+00  0.00000E+00  9.000E+00
      21     1     1     2   512   517  1.151142713E+01 -5.989686476E-01 -1.940436630E+01  2.256991692E+01  3.371747881E-07  0.00000E+00  9.000E+00
      21     1     1     2   511   513 -1.990266395E+00  4.843709835E+00 -6.053930494E+00  8.004546191E+00  8.429369702E-08  0.00000E+00  9.000E+00
      21     1     1     2   513   514 -9.521160738E+00 -4.244741187E+00 -2.261371158E+01  2.490080884E+01  2.384185791E-07  0.00000E+00  9.000E+00
</event>
<event>
      5  10001  3.52971E+09  6.27591E+00 -1.00000E+00  2.22476E-01
      -1    -1     0     0     0   514  0.000000000E+00  0.000000000E+00  1.019932551E+01  1.019932551E+01  0.000000000E+00  0.00000E+00  9.000E+00
      21    -1     0     0   512   513  0.000000000E+00  0.000000000E+00 -8.159205109E+01  8.159205109E+01  0.000000000E+00  0.00000E+00  9.000E+00
      21     1     1     2   511   513  7.890154835E+00  6.779501720E-01 -5.267385049E-01  7.936725597E+00  2.488984628E-07  0.00000E+00  9.000E+00
      21     1     1     2   512   514 -1.384836640E+01 -7.145509139E-01 -7.520737366E+01  7.647507364E+01  0.000000000E+00  0.00000E+00  9.000E+00
      -1     1     1     2     0   511  5.958211561E+00  3.660074191E-02  4.341386581E+00  7.379577364E+00  3.300000131E-01  0.00000E+00  9.000E+00
</event>
<event>
      5  10001  3.52971E+09  5.43237E+00 -1.00000E+00  2.32384E-01
      21    -1     0     0   515   512  0.000000000E+00  0.000000000E+00  1.133168171E+01  1.133168171E+01  0.000000000E+00  0.00000E+00  9.000E+00
      21    -1     0     0   516   513  0.000000000E+00  0.000000000E+00 -8.507516869E+01  8.507516869E+01  0.000000000E+00  0.00000E+00  9.000E+00
      21     1     1     2   515   511 -8.045463599E+00  1.555409078E-01 -6.769975710E+01  6.817632132E+01  9.536743164E-07  0.00000E+00  9.000E+00
      21     1     1     2   516   512  1.347065933E+01  1.235164008E-01  6.204710700E+00  1.483146499E+01  4.986882368E-07  0.00000E+00  9.000E+00
      21     1     1     2   511   513 -5.425195726E+00 -2.790573086E-01 -1.224844058E+01  1.339906408E+01  1.685873940E-07  0.00000E+00  9.000E+00
</event>
<event>
      5  10001  3.52971E+09  2.64479E+00 -1.00000E+00  3.14516E-01
      21    -1     0     0   514   511  0.000000000E+00  0.000000000E+00  1.145927755E+00  1.145927755E+00  0.000000000E+00  0.00000E+00  9.000E+00
      21    -1     0     0   517   514  0.000000000E+00  0.000000000E+00 -1.914454828E+02  1.914454828E+02  0.000000000E+00  0.00000E+00  9.000E+00
      21     1     1     2   517   513 -2.312816657E+00  8.585327488E+00 -2.176243408E+01  2.350873255E+01  0.000000000E+00  0.00000E+00  9.000E+00
      -5     1     1     2     0   511  2.854311250E+00 -4.964927348E+00 -1.012104618E+02  1.014859359E+02  4.800000191E+00  0.00000E+00  9.000E+00
       5     1     1     2   513     0 -5.414945927E-01 -3.620400140E+00 -6.732665916E+01  6.759674214E+01  4.800000191E+00  0.00000E+00  9.000E+00
</event>
<event>
      5  10001  3.52971E+09  1.20399E+01 -1.00000E+00  1.86872E-01
      21    -1     0     0   512   511  0.000000000E+00  0.000000000E+00  8.727023060E+02  8.727023060E+02  0.000000000E+00  0.00000E+00  9.000E+00
       4    -1     0     0   513     0  0.000000000E+00  0.000000000E+00 -2.041410631E-01  2.041410631E-01  0.000000000E+00  0.00000E+00  9.000E+00
      21     1     1     2   514   511  3.115032248E+00  3.544778870E+00  9.970140514E+01  9.981302054E+01  1.348699152E-06  0.00000E+00  9.000E+00
       4     1     1     2   512     0 -1.052380377E+01 -3.710325554E+00  2.606580199E+02  2.609010738E+02  1.500000000E+00  0.00000E+00  9.000E+00
      21     1     1     2   513   514  7.408771526E+00  1.655466840E-01  5.121387399E+02  5.121923527E+02  7.629394531E-06  0.00000E+00  9.000E+00
</event>
<event>
      5  10001  3.52971E+09  7.78829E+00 -1.00000E+00  2.09200E-01
       2    -1     0     0   514     0  0.000000000E+00  0.000000000E+00  5.539515304E+01  5.539515304E+01  0.000000000E+00  0.00000E+00  9.000E+00
      21    -1     0     0   512   514  0.000000000E+00  0.000000000E+00 -7.512208486E+01  7.512208486E+01  0.000000000E+00  0.00000E+00  9.000E+00
       5     1     1     2   512     0 -7.834528809E+00 -1.122758793E+00 -5.485975536E+01  5.563517942E+01  4.800000191E+00  0.00000E+00  9.000E+00
       2     1     1     2   515     0  9.376997813E+00 -5.978057029E+00  5.345237988E+01  5.459790352E+01  3.300000131E-01  0.00000E+00  9.000E+00
      -5     1     1     2     0   515 -1.542469004E+00  7.100815822E+00 -1.831955634E+01  2.028415495E+01  4.800000191E+00  0.00000E+00  9.000E+00
</event>
<event>
      5  10001  3.52971E+09  4.04491E+00 -1.00000E+00  2.62324E-01
      21    -1     0     0   511   512  0.000000000E+00  0.000000000E+00  9.185647525E+01  9.185647525E+01  0.000000000E+00  0.00000E+00  9.000E+00
      21    -1     0     0   514   511  0.000000000E+00  0.000000000E+00 -1.371751907E+01  1.371751907E+01  0.000000000E+00  0.00000E+00  9.000E+00
      21     1     1     2   515   512 -8.610716829E+00 -5.313376796E+00  7.531116533E+01  7.598781508E+01  0.000000000E+00  0.00000E+00  9.000E+00
      21     1     1     2   513   515  1.045909736E+01  1.715485861E+00  1.408326878E+01  1.762594874E+01  5.840038640E-07  0.00000E+00  9.000E+00
      21     1     1     2   514   513 -1.848380535E+00  3.597890936E+00 -1.125547794E+01  1.196023050E+01  3.769728732E-07  0.00000E+00  9.000E+00
</event>
<event>
      5  10001  3.52971E+09  2.63722E+00 -1.00000E+00  3.14944E-01
      -1    -1     0     0     0   516  0.000000000E+00  0.000000000E+00  2.443116596E+00  2.443116596E+00  0.000000000E+00  0.00000E+00  9.000E+00
       2    -1     0     0   515     0  0.000000000E+00  0.000000000E+00 -9.417309069E+02  9.417309069E+02  0.000000000E+00  0.00000E+00  9.000E+00
      -1     1     1     2     0   511 -1.489194902E+01 -2.121864933E+00 -2.455029073E+01  2.879406417E+01  3.300000131E-01  0.00000E+00  9.000E+00
      21     1     1     2   515   516  1.225617701E+01  2.207122058E+00 -1.212194481E+02  1.218574571E+02  1.907348633E-06  0.00000E+00  9.000E+00
       2     1     1     2   511     0  2.635772007E+00 -8.525712439E-02 -7.935180515E+02  7.935225022E+02  3.300000131E-01  0.00000E+00  9.000E+00
</event>
<event>
      5  10001  3.52971E+09  1.16150E+00 -1.00000E+00  5.54871E-01
       1    -1     0     0   512     0  0.000000000E+00  0.000000000E+00  2.321197013E+02  2.321197013E+02  0.000000000E+00  0.00000E+00  9.000E+00
       2    -1     0     0   513     0  0.000000000E+00  0.000000000E+00 -2.067074821E+00  2.067074821E+00  0.000000000E+00  0.00000E+00  9.000E+00
       1     1     1     2   511     0 -5.263116400E+00  8.663152016E+00  2.124349690E+02  2.126769277E+02  3.300000131E-01  0.00000E+00  9.000E+00
       2     1     1     2   512     0  6.418961092E+00 -8.776199950E+00  1.411964409E+01  1.782408473E+01  3.300000131E-01  0.00000E+00  9.000E+00
      21     1     1     2   513   511 -1.155844692E+00  1.130479339E-01  3.498013417E+00  3.685763782E+00  0.000000000E+00  0.00000E+00  9.000E+00
</event>
<event>
      5  10001  3.52971E+09  9.51954E+00 -1.00000E+00  1.98257E-01
      21    -1     0     0   514   515  0.000000000E+00  0.000000000E+00  2.465091454E+01  2.465091454E+01  0.000000000E+00  0.00000E+00  9.000E+00
      21    -1     0     0   513   512  0.000000000E+00  0.000000000E+00 -1.570072117E+01  1.570072117E+01  0.000000000E+00  0.00000E+00  9.000E+00
      21     1     1     2   514   511 -7.712885816E+00  1.450622510E+01  1.208907684E+01  2.039767028E+01  3.371747881E-07  0.00000E+00  9.000E+00
      21     1     1     2   513   515  9.827015792E-01 -7.773751858E+00  3.256772928E+00  8.485487036E+00  1.397852826E-07  0.00000E+00  9.000E+00
      21     1     1     2   511   512  6.730184237E+00 -6.732473241E+00 -6.395656392E+00  1.146847839E+01  1.460009660E-07  0.00000E+00  9.000E+00
</event>
<event>
      5  10001  3.52971E+09  5.92276E+00 -1.00000E+00  2.26343E-01
      21    -1     0     0   516   512  0.000000000E+00  0.000000000E+00  2.337493382E+01  2.337493382E+01  0.000000000E+00  0.00000E+00  9.000E+00
      21    -1     0     0   511   513  0.000000000E+00  0.000000000E+00 -7.264472648E+01  7.264472648E+01  0.000000000E+00  0.00000E+00  9.000E+00
      21     1     1     2   516   517 -8.714217995E+00  4.381663073E+00  2.036376148E+01  2.257917953E+01  7.152557373E-07  0.00000E+00  9.000E+00
      21     1     1     2   511   512  6.522533541E+00 -9.883993600E+00 -6.457393197E+01  6.565081464E+01  0.000000000E+00  0.00000E+00  9.000E+00
      21     1     1     2   517   513  2.191684454E+00  5.502330527E+00 -5.059622168E+00  7.789666133E+00  8.429369702E-08  0.00000E+00  9.000E+00
</event>
<event>
      5  10001  3.52971E+09  1.42366E+01 -1.00000E+00  1.79544E-01
      21    -1     0     0   514   511  0.000000000E+00  0.000000000E+00  1.643662931E+01  1.643662931E+01  0.000000000E+00  0.00000E+00  9.000E+00
      21    -1     0     0   515   512  0.000000000E+00  0.000000000E+00 -1.189089018E+02  1.189089018E+02  0.000000000E+00  0.00000E+00  9.000E+00
      21     1     1     2   515   513 -9.926018274E+00 -3.975717957E+00 -9.363624416E+01  9.424477912E+01  0.000000000E+00  0.00000E+00  9.000E+00
      21     1     1     2   513   511  1.378204112E+01 -9.728754327E+00  8.317543741E+00  1.880890353E+01  3.769728732E-07  0.00000E+00  9.000E+00
      21     1     1     2   514   512 -3.856022843E+00  1.370447228E+01 -1.715357211E+01  2.229184849E+01  0.000000000E+00  0.00000E+00  9.000E+00
</event>
<event>
      5  10001  3.52971E+09  3.62042E+00 -1.00000E+00  2.74099E-01
      21    -1     0     0   513   511  0.000000000E+00  0.000000000E+00  9.732328216E-01  9.732328216E-01  0.000000000E+00  0.00000E+00  9.000E+00
      21    -1     0     0   511   512  0.000000000E+00  0.000000000E+00 -2.521706741E+02  2.521706741E+02  0.000000000E+00  0.00000E+00  9.000E+00
      -1     1     1     2     0   512 -2.388517855E+00  8.949726982E+00 -1.811920869E+02  1.814290051E+02  3.300000131E-01  0.00000E+00  9.000E+00
       1     1     1     2   516     0  5.776147080E+00 -1.022428807E+01 -5.791169351E+01  5.909122682E+01  3.300000131E-01  0.00000E+00  9.000E+00
      21     1     1     2   513   516 -3.387629225E+00  1.274561090E+00 -1.209366082E+01  1.262367497E+01  1.685873940E-07  0.00000E+00  9.000E+00
</event>
<event>
      5  10001  3.52971E+09  6.72019E+00 -1.00000E+00  2.18083E-01
       3    -1     0     0   512     0  0.000000000E+00  0.000000000E+00  3.650605338E+01  3.650605338E+01  0.000000000E+00  0.00000E+00  9.000E+00
      21    -1     0     0   511   514  0.000000000E+00  0.000000000E+00 -8.970910498E+01  8.970910498E+01  0.000000000E+00  0.00000E+00  9.000E+00
      21     1     1     2   512   514 -1.002152953E+01 -1.219985716E+01 -3.814497471E+00  1.624247394E+01  4.712160915E-07  0.00000E+00  9.000E+00
       3     1     1     2   513     0  4.906804183E+00  7.841134482E+00  2.943755344E+01  3.086064921E+01  5.000000000E-01  0.00000E+00  9.000E+00
      21     1     1     2   511   513  5.114725344E+00  4.358722680E+00 -7.882610757E+01  7.911203520E+01  9.536743164E-07  0.00000E+00  9.000E+00
</event>
<event>
      5  10001  3.52971E+09  1.38707E+01 -1.00000E+00  1.80643E-01
      21    -1     0     0   511   513  0.000000000E+00  0.000000000E+00  5.784643824E-01  5.784643824E-01  0.000000000E+00  0.00000E+00  9.000E+00
       2    -1     0     0   515     0  0.000000000E+00  0.000000000E+00 -8.001305135E+02  8.001305135E+02  0.000000000E+00  0.00000E+00  9.000E+00
      -3     1     1     2     0   513 -9.374627760E+00  1.131897397E+01 -2.385025351E+02  2.389554604E+02  5.000000000E-01  0.00000E+00  9.000E+00
       2     1     1     2   511     0  4.933844896E+00 -1.396438471E+01 -5.342575707E+02  5.344629151E+02  3.300000131E-01  0.00000E+00  9.000E+00
       3     1     1     2   515     0  4.440782864E+00  2.645410740E+00 -2.679194335E+01  2.729060239E+01  5.000000000E-01  0.00000E+00  9.000E+00
</event>
<event>
      5  10001  3.52971E+09  4.27785E+00 -1.00000E+00  2.56774E-01
      21    -1     0     0   512   514  0.000000000E+00  0.000000000E+00  1.013872907E+01  1.013872907E+01  0.000000000E+00  0.00000E+00  9.000E+00
       2    -1     0     0   511     0  0.000000000E+00  0.000000000E+00 -3.923773109E+02  3.923773109E+02  0.000000000E+00  0.00000E+00  9.000E+00
      21     1     1     2   511   514  8.596313213E+00 -1.246880645E+01  4.216077756E+00  1.572078391E+01  1.180111758E-06  0.00000E+00  9.000E+00
       2     1     1     2   513     0 -7.184811228E+00  1.027801688E+01 -2.489145680E+02  2.492304761E+02  3.300000131E-01  0.00000E+00  9.000E+00
      21     1     1     2   512   513 -1.411501985E+00  2.190789568E+00 -1.375400916E+02  1.375647800E+02  1.907348633E-06  0.00000E+00  9.000E+00
</event>
<event>
      5  10001  3.52971E+09  5.95848E+00 -1.00000E+00  2.25935E-01
      21    -1     0     0   514   513  0.000000000E+00  0.000000000E+00  4.528400209E+01  4.528400209E+01  0.000000000E+00  0.00000E+00  9.000E+00
      21    -1     0     0   511   516  0.000000000E+00  0.000000000E+00 -3.368164816E+02  3.368164816E+02  0.000000000E+00  0.00000E+00  9.000E+00
      21     1     1     2   515   516  5.529917202E+00  8.563797168E+00 -3.086799806E+02  3.088482621E+02  3.814697266E-06  0.00000E+00  9.000E+00
      21     1     1     2   511   513 -9.891090501E+00 -4.503798140E+00 -2.679101870E+01  2.891152974E+01  3.371747881E-07  0.00000E+00  9.000E+00
      21     1     1     2   514   515  4.361173299E+00 -4.059999027E+00  4.393851982E+01  4.434069179E+01  6.743495762E-07  0.00000E+00  9.000E+00
</event>
<event>
      5  10001  3.52971E+09  3.88193E+00 -1.00000E+00  2.66566E-01
      21    -1     0     0   512   511  0.000000000E+00  0.000000000E+00  6.449446583E-01  6.449446583E-01  0.000000000E+00  0.00000E+00  9.000E+00
      21    -1     0     0   513   516  0.000000000E+00  0.000000000E+00 -4.814477065E+02  4.814477065E+02  0.000000000E+00  0.00000E+00  9.000E+00
      21     1     1     2   513   511 -1.121770396E+00 -1.412539214E+01 -1.083522442E+02  1.092748548E+02  2.336015456E-06  0.00000E+00  9.000E+00
       4     1     1     2   512     0  2.497664281E+00  1.052530953E+01 -1.852747642E+02  1.855963596E+02  1.500000000E+00  0.00000E+00  9.000E+00
      -4     1     1     2     0   516 -1.375893884E+00  3.600082615E+00 -1.871757535E+02  1.872214367E+02  1.500000000E+00  0.00000E+00  9.000E+00
</event>
<event>
      5  10001  3.52971E+09  9.35984E+00 -1.00000E+00  1.99133E-01
      21    -1     0     0   514   512  0.000000000E+00  0.000000000E+00  4.124059942E+01  4.124059942E+01  0.000000000E+00  0.00000E+00  9.000E+00
      21    -1     0     0   511   515  0.000000000E+00  0.000000000E+00 -1.073927851E+01  1.073927851E+01  0.000000000E+00  0.00000E+00  9.000E+00
      21     1     1     2   514   515 -1.038200478E+00  1.348070340E+01  1.905901220E+01  2.336778061E+01  4.129530925E-07  0.00000E+00  9.000E+00
      21     1     1     2   511   513  9.040514800E+00 -8.625860927E+00 -1.558742120E+00  1.259230168E+01  3.513641990E-07  0.00000E+00  9.000E+00
      21     1     1     2   513   512 -8.002314322E+00 -4.854842476E+00  1.300105082E+01  1.601979564E+01  2.384185791E-07  0.00000E+00  9.000E+00
</event>
<event>
      5  10001  3.52971E+09  2.37167E+01 -1.00000E+00  1.60481E-01
      -2    -1     0     0     0   512  0.000000000E+00  0.000000000E+00  4.416106107E+02  4.416106107E+02  0.000000000E+00  0.00000E+00  9.000E+00
      21    -1     0     0   512   514  0.000000000E+00  0.000000000E+00 -6.720214527E-01  6.720214527E-01  0.000000000E+00  0.00000E+00  9.000E+00
      -2     1     1     2     0   513 -3.566563605E-01 -9.949836082E+00  2.632820157E+02  2.634704066E+02  3.300000131E-01  0.00000E+00  9.000E+00
      21     1     1     2   511   514 -8.881651511E-01  5.566124029E+00  1.684041847E+02  1.684984866E+02  0.000000000E+00  0.00000E+00  9.000E+00
      21     1     1     2   513   511  1.244821512E+00  4.383712053E+00  9.252388878E+00  1.031373899E+01  9.233911863E-07  0.00000E+00  9.000E+00
</event>
<event>
      5  10001  3.52971E+09  1.34874E+01 -1.00000E+00  1.81842E-01
      21    -1     0     0   515   511  0.000000000E+00  0.000000000E+00  5.128007398E+01  5.128007398E+01  0.000000000E+00  0.00000E+00  9.000E+00
      21    -1     0     0   512   516  0.000000000E+00  0.000000000E+00 -9.410124408E+01  9.410124408E+01  0.000000000E+00  0.00000E+00  9.000E+00
      21     1     1     2   515   516  1.690169731E+01  5.974041609E+00  4.859509894E+01  5.179614065E+01  1.784161275E-06  0.00000E+00  9.000E+00
      21     1     1     2   514   511 -8.798398356E+00 -3.252973353E+00 -2.655611781E+01  2.816418013E+01  6.743495762E-07  0.00000E+00  9.000E+00
      21     1     1     2   512   514 -8.103298958E+00 -2.721068256E+00 -6.486015124E+01  6.542099728E+01  1.348699152E-06  0.00000E+00  9.000E+00
</event>
<event>
      5  10001  3.52971E+09  5.46087E+00 -1.00000E+00  2.32009E-01
       2    -1     0     0   512     0  0.000000000E+00  0.000000000E+00  1.269034038E+02  1.269034038E+02  0.000000000E+00  0.00000E+00  9.000E+00
       2    -1     0     0   513     0  0.000000000E+00  0.000000000E+00 -5.666374872E+02  5.666374872E+02  0.000000000E+00  0.00000E+00  9.000E+00
      21     1     1     2   512   514  7.993017447E+00  1.932830187E+00  1.177096102E+01  1.435895831E+01  6.743495762E-07  0.00000E+00  9.000E+00
       2     1     1     2   513     0 -1.339670114E+01 -2.721059337E+00  1.134145154E+02  1.142358830E+02  3.300000131E-01  0.00000E+00  9.000E+00
       2     1     1     2   514     0  5.403683698E+00  7.882291497E-01 -5.649195598E+02  5.649460497E+02  3.300000131E-01  0.00000E+00  9.000E+00
</event>
<event>
      5  10001  3.52971E+09  9.42880E+00 -1.00000E+00  1.98752E-01
       2    -1     0     0   513     0  0.000000000E+00  0.000000000E+00  1.080923477E+02  1.080923477E+02  0.000000000E+00  0.00000E+00  9.000E+00
      21    -1     0     0   511   515  0.000000000E+00  0.000000000E+00 -6.402251484E+01  6.402251484E+01  0.000000000E+00  0.00000E+00  9.000E+00
      21     1     1     2   513   515  1.381566542E+01 -2.911243414E+00 -6.229796402E+01  6.387788561E+01  6.743495762E-07  0.00000E+00  9.000E+00
       2     1     1     2   512     0 -6.931680694E+00  7.957111376E+00  7.456400664E+01  7.530779378E+01  3.300000131E-01  0.00000E+00  9.000E+00
      21     1     1     2   511   512 -6.883984731E+00 -5.045867962E+00  3.180379026E+01  3.292918317E+01  4.768371582E-07  0.00000E+00  9.000E+00
</event>
<event>
      5  10001  3.52971E+09  8.77025E+00 -1.00000E+00  2.02579E-01
      -2    -1     0     0     0   514  0.000000000E+00  0.000000000E+00  6.812358789E+01  6.812358789E+01  0.000000000E+00  0.00000E+00  9.000E+00
      21    -1     0     0   515   512  0.000000000E+00  0.000000000E+00 -8.941267715E+01  8.941267715E+01  0.000000000E+00  0.00000E+00  9.000E+00
      -2     1     1     2     0   512 -5.883307048E+00  2.083548233E+01  6.320178366E+01  6.680797096E+01  3.300000131E-01  0.00000E+00  9.000E+00
      21     1     1     2   513   514  3.584403344E+00 -1.237193671E+01 -1.166959943E+01  1.738080310E+01  2.384185791E-07  0.00000E+00  9.000E+00
      21     1     1     2   515   513  2.298903704E+00 -8.463545620E+00 -7.282127348E+01  7.334749099E+01  1.651812370E-06  0.00000E+00  9.000E+00
</event>
<event>
      5  10001  3.52971E+09  5.29788E+00 -1.00000E+00  2.34201E-01
      21    -1     0     0   514   512  0.000000000E+00  0.000000000E+00  6.220652330E+02  6.220652330E+02  0.000000000E+00  0.00000E+00  9.000E+00
      21    -1     0     0   515   516  0.000000000E+00  0.000000000E+00 -8.049919804E+00  8.049919804E+00  0.000000000E+00  0.00000E+00  9.000E+00
      21     1     1     2   511   516  7.834398646E+00 -4.322553729E+00 -4.856846595E+00  1.018092490E+01  1.460009660E-07  0.00000E+00  9.000E+00
      21     1     1     2   515   512 -1.202053394E+01  7.569672980E+00  9.695006997E+01  9.798525018E+01  1.348699152E-06  0.00000E+00  9.000E+00
      21     1     1     2   514   511  4.186135289E+00 -3.247119251E+00  5.219220899E+02  5.219489778E+02  7.629394531E-06  0.00000E+00  9.000E+00
</event>
<event>
      5  10001  3.52971E+09  7.42453E+00 -1.00000E+00  2.11996E-01
       3    -1     0     0   513     0  0.000000000E+00  0.000000000E+00  2.734899232E+00  2.734899232E+00  0.000000000E+00  0.00000E+00  9.000E+00
       1    -1     0     0   511     0  0.000000000E+00  0.000000000E+00 -1.033717822E+03  1.033717822E+03  0.000000000E+00  0.00000E+00  9.000E+00
       1     1     1     2   513     0 -1.355421497E+01 -1.163014031E+01 -1.000674610E+03  1.000834033E+03  3.300000131E-01  0.00000E+00  9.000E+00
       3     1     1     2   512     0  5.733779138E+00  6.452951383E+00 -1.935497848E+01  2.119863196E+01  5.000000000E-01  0.00000E+00  9.000E+00
      21     1     1     2   511   512  7.820435832E+00  5.177188924E+00 -1.095333437E+01  1.442005671E+01  7.539457465E-07  0.00000E+00  9.000E+00
</event>
<event>
      5  10001  3.52971E+09  3.20919E+00 -1.00000E+00  2.88248E-01
      21    -1     0     0   514   515  0.000000000E+00  0.000000000E+00  1.926434748E+02  1.926434748E+02  0.000000000E+00  0.00000E+00  9.000E+00
      21    -1     0     0   513   514  0.000000000E+00  0.000000000E+00 -2.422987131E+01  2.422987131E+01  0.000000000E+00  0.00000E+00  9.000E+00
      21     1     1     2   512   515  9.204436268E+00 -7.875785761E+00  1.523045951E+02  1.527855992E+02  2.697398305E-06  0.00000E+00  9.000E+00
      21     1     1     2   511   512 -6.245264894E+00  9.117648282E+00  3.922394019E+01  4.075110217E+01  8.259061849E-07  0.00000E+00  9.000E+00
      21     1     1     2   513   511 -2.959171374E+00 -1.241862522E+00 -2.311493176E+01  2.333664474E+01  3.371747881E-07  0.00000E+00  9.000E+00
</event>
<event>
      5  10001  3.52971E+09  6.66829E+00 -1.00000E+00  2.18571E-01
      -2    -1     0     0     0   516  0.000000000E+00  0.000000000E+00  1.887846334E+02  1.887846334E+02  0.000000000E+00  0.00000E+00  9.000E+00
      21    -1     0     0   512   511  0.000000000E+00  0.000000000E+00 -8.803608736E-01  8.803608736E-01  0.000000000E+00  0.00000E+00  9.000E+00
      -2     1     1     2     0   514  2.488706856E+00  6.139706288E+00  4.282023420E+01  4.333094751E+01  3.300000131E-01  0.00000E+00  9.000E+00
      21     1     1     2   512   516  6.273902279E-01 -1.110828327E+01  1.223809365E+02  1.228856428E+02  2.336015456E-06  0.00000E+00  9.000E+00
      21     1     1     2   514   511 -3.116097084E+00  4.968576978E+00  2.270310181E+01  2.344840400E+01  4.768371582E-07  0.00000E+00  9.000E+00
</event>
<event>
      5  10001  3.52971E+09  1.45835E+01 -1.00000E+00  1.78540E-01
       2    -1     0     0   512     0  0.000000000E+00  0.000000000E+00  4.555638253E+02  4.555638253E+02  0.000000000E+00  0.00000E+00  9.000E+00
      21    -1     0     0   513   511  0.000000000E+00  0.000000000E+00 -2.537361248E+02  2.537361248E+02  0.000000000E+00  0.00000E+00  9.000E+00
      21     1     1     2   512   515  5.186908226E-01 -1.359481027E+01 -1.461506670E+02  1.467825105E+02  3.303624740E-06  0.00000E+00  9.000E+00
       2     1     1     2   513     0  1.354705518E+01  2.536189379E+01  4.540059143E+02  4.549156268E+02  3.300000131E-01  0.00000E+00  9.000E+00
      21     1     1     2   515   511 -1.406574600E+01 -1.176708352E+01 -1.060275467E+02  1.076018129E+02  3.015782986E-06  0.00000E+00  9.000E+00
</event>
<event>
      5  10001  3.52971E+09  4.72698E+00 -1.00000E+00  2.47468E-01
      21    -1     0     0   514   511  0.000000000E+00  0.000000000E+00  1.083716138E+01  1.083716138E+01  0.000000000E+00  0.00000E+00  9.000E+00
      21    -1     0     0   515   512  0.000000000E+00  0.000000000E+00 -2.670237938E+01  2.670237938E+01  0.000000000E+00  0.00000E+00  9.000E+00
      21     1     1     2   514   516  1.056882805E+01 -1.025712335E+01  4.883906224E-02  1.472790178E+01  1.933184296E-07  0.00000E+00  9.000E+00
      21     1     1     2   515   511 -6.698217752E+00  7.543686489E+00 -5.773680189E+00  1.162362722E+01  2.528810911E-07  0.00000E+00  9.000E+00
      21     1     1     2   516   512 -3.870610296E+00  2.713436859E+00 -1.014037688E+01  1.118801175E+01  1.685873940E-07  0.00000E+00  9.000E+00
</event>
<event>
      5  10001  3.52971E+09  6.67798E+00 -1.00000E+00  2.18480E-01
      21    -1     0     0   513   511  0.000000000E+00  0.000000000E+00  1.068412636E+00  1.068412636E+00  0.000000000E+00  0.00000E+00  9.000E+00
      21    -1     0     0   517   513  0.000000000E+00  0.000000000E+00 -2.282243445E+02  2.282243445E+02  0.000000000E+00  0.00000E+00  9.000E+00
      21     1     1     2   512   511  1.412853872E+01  4.400496562E+00 -1.096703822E+02  1.106642341E+02  1.348699152E-06  0.00000E+00  9.000E+00
      21     1     1     2   517   514 -8.320063578E+00 -3.685936182E-01 -8.355849660E+01  8.397250546E+01  9.536743164E-07  0.00000E+00  9.000E+00
      21     1     1     2   514   512 -5.808475142E+00 -4.031902944E+00 -3.392705308E+01  3.465601759E+01  4.768371582E-07  0.00000E+00  9.000E+00
</event>
<event>
      5  10001  3.52971E+09  6.53107E+00 -1.00000E+00  2.19894E-01
       3    -1     0     0   515     0  0.000000000E+00  0.000000000E+00  1.014405290E+01  1.014405290E+01  0.000000000E+00  0.00000E+00  9.000E+00
      21    -1     0     0   514   513  0.000000000E+00  0.000000000E+00 -2.699761821E+01  2.699761821E+01  0.000000000E+00  0.00000E+00  9.000E+00
      -2     1     1     2     0   513  9.604671965E+00 -1.323266823E+00 -6.477186404E+00  1.166463040E+01  3.300000131E-01  0.00000E+00  9.000E+00
       3     1     1     2   514     0 -1.530452369E+01  1.441283213E-01 -1.196624659E+01  1.943425522E+01  5.000000000E-01  0.00000E+00  9.000E+00
       2     1     1     2   515     0  5.699851725E+00  1.179138501E+00  1.589867681E+00  6.042785495E+00  3.300000131E-01  0.00000E+00  9.000E+00
</event>
<event>
      5  10001  3.52971E+09  5.23991E+00 -1.00000E+00  2.35007E-01
      21    -1     0     0   512   513  0.000000000E+00  0.000000000E+00  1.607142949E+01  1.607142949E+01  0.000000000E+00  0.00000E+00  9.000E+00
       2    -1     0     0   514     0  0.000000000E+00  0.000000000E+00 -9.910963851E+01  9.910963851E+01  0.000000000E+00  0.00000E+00  9.000E+00
      21     1     1     2   512   511  1.229321755E+01 -3.803404829E+00 -1.158602072E+01  1.731545444E+01  0.000000000E+00  0.00000E+00  9.000E+00
       2     1     1     2   511     0 -8.117398825E+00  6.382630000E-01 -8.393395373E+01  8.432862523E+01  3.300000131E-01  0.00000E+00  9.000E+00
      21     1     1     2   514   513 -4.175818727E+00  3.165141829E+00  1.248176544E+01  1.353698834E+01  5.057621821E-07  0.00000E+00  9.000E+00
</event>
<event>
      5  10001  3.52971E+09  1.46947E+01 -1.00000E+00  1.78225E-01
      21    -1     0     0   515   511  0.000000000E+00  0.000000000E+00  9.015774255E+00  9.015774255E+00  0.000000000E+00  0.00000E+00  9.000E+00
      21    -1     0     0   514   513  0.000000000E+00  0.000000000E+00 -1.176671315E+02  1.176671315E+02  0.000000000E+00  0.00000E+00  9.000E+00
      21     1     1     2   515   513  1.096652645E+01 -1.182420521E+01 -1.072515191E+02  1.084572030E+02  0.000000000E+00  0.00000E+00  9.000E+00
      21     1     1     2   512   511 -5.184419337E+00  4.257719347E+00 -4.650945090E+00  8.163189826E+00  5.960464478E-08  0.00000E+00  9.000E+00
      21     1     1     2   514   512 -5.782107117E+00  7.566485864E+00  3.251106916E+00  1.006251297E+01  4.107966647E-07  0.00000E+00  9.000E+00
</event>
<event>
      5  10001  3.52971E+09  9.78789E+00 -1.00000E+00  1.96835E-01
      21    -1     0     0   514   511  0.000000000E+00  0.000000000E+00  3.962874539E+00  3.962874539E+00  0.000000000E+00  0.00000E+00  9.000E+00
       1    -1     0     0   512     0  0.000000000E+00  0.000000000E+00 -5.376497244E+01  5.376497244E+01  0.000000000E+00  0.00000E+00  9.000E+00
      21     1     1     2   513   511  2.284030431E+00 -3.454080032E+00 -7.630404943E+00  8.681621016E+00  1.685873940E-07  0.00000E+00  9.000E+00
       1     1     1     2   514     0 -1.166144868E+01  5.773941981E+00 -3.395413792E+01  3.636372056E+01  3.300000131E-01  0.00000E+00  9.000E+00
      21     1     1     2   512   513  9.377418246E+00 -2.319861949E+00 -8.217555036E+00  1.268250540E+01  1.192092896E-07  0.00000E+00  9.000E+00
</event>
<event>
      5  10001  3.52971E+09  3.72711E+00 -1.00000E+00  2.70908E-01
      21    -1     0     0   515   512  0.000000000E+00  0.000000000E+00  1.262666408E+02  1.262666408E+02  0.000000000E+00  0.00000E+00  9.000E+00
      21    -1     0     0   511   513  0.000000000E+00  0.000000000E+00 -9.302011334E+01  9.302011334E+01  0.000000000E+00  0.00000E+00  9.000E+00
      21     1     1     2   515   513  1.111783262E+01 -2.262066959E+00 -9.238754116E+01  9.308158202E+01  1.907348633E-06  0.00000E+00  9.000E+00
      21     1     1     2   511   514 -6.215076298E+00  3.071202688E+00  6.536093003E+01  6.572754851E+01  1.348699152E-06  0.00000E+00  9.000E+00
      21     1     1     2   514   512 -4.902756321E+00 -8.091357290E-01  6.027313855E+01  6.047762356E+01  1.168007728E-06  0.00000E+00  9.000E+00
</event>
<event>
      5  10001  3.52971E+09  3.45395E+00 -1.00000E+00  2.79445E-01
      21    -1     0     0   516   514  0.000000000E+00  0.000000000E+00  2.469759006E+02  2.469759006E+02  0.000000000E+00  0.00000E+00  9.000E+00
      21    -1     0     0   513   516  0.000000000E+00  0.000000000E+00 -7.299888707E+01  7.299888707E+01  0.000000000E+00  0.00000E+00  9.000E+00
      21     1     1     2   511   514  3.350484801E+00  1.202074409E+01  2.404886799E+02  2.408122281E+02  5.394796609E-06  0.00000E+00  9.000E+00
      21     1     1     2   512   511 -5.447448546E+00 -1.476528769E+01 -3.585126102E+00  1.614129937E+01  6.419616708E-07  0.00000E+00  9.000E+00
      21     1     1     2   513   512  2.096963745E+00  2.744543600E+00 -6.292654024E+01  6.302126024E+01  1.168007728E-06  0.00000E+00  9.000E+00
</event>
<event>
      5  10001  3.52971E+09  6.10365E+00 -1.00000E+00  2.24317E-01
      21    -1     0     0   515   512  0.000000000E+00  0.000000000E+00  4.186047276E+01  4.186047276E+01  0.000000000E+00  0.00000E+00  9.000E+00
      21    -1     0     0   513   517  0.000000000E+00  0.000000000E+00 -7.189306391E+00  7.189306391E+00  0.000000000E+00  0.00000E+00  9.000E+00
      21     1     1     2   515   517  5.425050027E+00  8.962705111E+00  3.563595030E+01  3.714407361E+01  6.743495762E-07  0.00000E+00  9.000E+00
      21     1     1     2   511   512 -1.707545902E-01 -3.302809375E+00 -2.353324717E+00  4.059044730E+00  1.032382731E-07  0.00000E+00  9.000E+00
      21     1     1     2   513   511 -5.254295437E+00 -5.659895737E+00  1.388540782E+00  7.846660805E+00  2.128311523E-07  0.00000E+00  9.000E+00
</event>
<event>
      5  10001  3.52971E+09  6.57978E+00 -1.00000E+00  2.19419E-01
      21    -1     0     0   514   511  0.000000000E+00  0.000000000E+00  2.489457524E+00  2.489457524E+00  0.000000000E+00  0.00000E+00  9.000E+00
       2    -1     0     0   513     0  0.000000000E+00  0.000000000E+00 -4.417062970E+02  4.417062970E+02  0.000000000E+00  0.00000E+00  9.000E+00
      21     1     1     2   514   516  8.812161551E+00 -1.075002808E+01 -3.618282191E+01  3.876098420E+01  4.768371582E-07  0.00000E+00  9.000E+00
      21     1     1     2   513   511 -5.233920761E+00  5.228491657E+00 -1.049463035E+01  1.284010583E+01  3.371747881E-07  0.00000E+00  9.000E+00
       2     1     1     2   516     0 -3.578240791E+00  5.521536423E+00 -3.925393873E+02  3.925946645E+02  3.300000131E-01  0.00000E+00  9.000E+00
</event>
<event>
      5  10001  3.52971E+09  4.21063E+00 -1.00000E+00  2.58319E-01
      21    -1     0     0   512   513  0.000000000E+00  0.000000000E+00  1.439665465E+01  1.439665465E+01  0.000000000E+00  0.00000E+00  9.000E+00
      21    -1     0     0   515   512  0.000000000E+00  0.000000000E+00 -3.073303550E+01  3.073303550E+01  0.000000000E+00  0.00000E+00  9.000E+00
      21     1     1     2   515   517 -3.819228249E+00  8.896291611E+00 -2.523931334E+01  2.703245174E+01  3.371747881E-07  0.00000E+00  9.000E+00
      21     1     1     2   517   511  5.915239740E+00 -9.892576001E+00  1.024086910E+01  1.541844743E+01  2.665600750E-07  0.00000E+00  9.000E+00
      21     1     1     2   511   513 -2.096011490E+00  9.962843901E-01 -1.337936613E+00  2.678790984E+00  2.980232239E-08  0.00000E+00  9.000E+00
</event>
<event>
      5  10001  3.52971E+09  4.59389E+00 -1.00000E+00  2.50057E-01
      -2    -1     0     0     0   511  0.000000000E+00  0.000000000E+00  6.283747312E+01  6.283747312E+01  0.000000000E+00  0.00000E+00  9.000E+00
       1    -1     0     0   511     0  0.000000000E+00  0.000000000E+00 -1.452005997E+01  1.452005997E+01  0.000000000E+00  0.00000E+00  9.000E+00
      -2     1     1     2     0   512  8.026421179E+00  1.114029916E+01  5.583914214E+01  5.750346422E+01  3.300000131E-01  0.00000E+00  9.000E+00
       1     1     1     2   514     0 -1.095424587E+01 -1.023559772E+01 -7.550889995E+00  1.678951467E+01  3.300000131E-01  0.00000E+00  9.000E+00
      21     1     1     2   512   514  2.927824687E+00 -9.047014360E-01  2.916100550E-02  3.064554201E+00  3.311765266E-08  0.00000E+00  9.000E+00
</event>
<event>
      5  10001  3.52971E+09  9.65876E+00 -1.00000E+00  1.97512E-01
      -1    -1     0     0     0   513  0.000000000E+00  0.000000000E+00  2.072415534E+01  2.072415534E+01  0.000000000E+00  0.00000E+00  9.000E+00
      21    -1     0     0   515   514  0.000000000E+00  0.000000000E+00 -1.124423143E+01  1.124423143E+01  0.000000000E+00  0.00000E+00  9.000E+00
      21     1     1     2   511   514 -5.243404553E+00  3.066291263E+00  4.703148843E+00  7.682124866E+00  1.460009660E-07  0.00000E+00  9.000E+00
      21     1     1     2   515   513  4.242406779E+00 -9.038691822E+00 -6.194581668E+00  1.175026839E+01  1.884864366E-07  0.00000E+00  9.000E+00
      -1     1     1     2     0   511  1.000997774E+00  5.972400559E+00  1.097135673E+01  1.253599352E+01  3.300000131E-01  0.00000E+00  9.000E+00
</event>
<event>
      5  10001  3.52971E+09  2.03214E+00 -1.00000E+00  3.59855E-01
      21    -1     0     0   512   513  0.000000000E+00  0.000000000E+00  2.175302920E+01  2.175302920E+01  0.000000000E+00  0.00000E+00  9.000E+00
      21    -1     0     0   516   512  0.000000000E+00  0.000000000E+00 -2.823807329E+01  2.823807329E+01  0.000000000E+00  0.00000E+00  9.000E+00
      21     1     1     2   515   511  5.289537808E+00  9.423486685E+00  1.106291151E-01  1.080710647E+01  1.259181185E-07  0.00000E+00  9.000E+00
      21     1     1     2   516   515 -6.181255571E+00 -1.124953056E+01 -2.101347456E+01  2.462368720E+01  0.000000000E+00  0.00000E+00  9.000E+00
      21     1     1     2   511   513  8.917177627E-01  1.826043872E+00  1.441780136E+01  1.456030881E+01  0.000000000E+00  0.00000E+00  9.000E+00
</event>
<event>
      5  10001  3.52971E+09  4.09601E+00 -1.00000E+00  2.61058E-01
       1    -1     0     0   512     0  0.000000000E+00  0.000000000E+00  7.070766160E-01  7.070766160E-01  0.000000000E+00  0.00000E+00  9.000E+00
       3    -1     0     0   511     0  0.000000000E+00  0.000000000E+00 -9.477625835E+02  9.477625835E+02  0.000000000E+00  0.00000E+00  9.000E+00
       1     1     1     2   511     0  2.742709534E+00  2.171493457E+01 -2.378997864E+02  2.389047469E+02  3.300000131E-01  0.00000E+00  9.000E+00
       3     1     1     2   514     0 -1.376549479E+00 -1.857076435E+01 -6.701426251E+02  6.704014888E+02  5.000000000E-01  0.00000E+00  9.000E+00
      21     1     1     2   512   514 -1.366160055E+00 -3.144170219E+00 -3.901309544E+01  3.916342447E+01  6.743495762E-07  0.00000E+00  9.000E+00
</event>
<event>
      5  10001  3.52971E+09  6.39685E+00 -1.00000E+00  2.21231E-01
      21    -1     0     0   514   515  0.000000000E+00  0.000000000E+00  1.761485815E+02  1.761485815E+02  0.000000000E+00  0.00000E+00  9.000E+00
       3    -1     0     0   511     0  0.000000000E+00  0.000000000E+00 -2.118670245E+02  2.118670245E+02  0.000000000E+00  0.00000E+00  9.000E+00
      21     1     1     2   514   513  1.127355771E+01  1.571085532E+01 -4.227001661E+01  4.648309781E+01  1.168007728E-06  0.00000E+00  9.000E+00
       3     1     1     2   513     0 -5.447419023E+00 -1.306972110E+01 -1.671318504E+02  1.677313251E+02  5.000000000E-01  0.00000E+00  9.000E+00
      21     1     1     2   511   515 -5.826138688E+00 -2.641134214E+00  1.736834240E+02  1.738011831E+02  0.000000000E+00  0.00000E+00  9.000E+00
</event>
<event>
      5  10001  3.52971E+09  3.99541E+00 -1.00000E+00  2.63579E-01
       2    -1     0     0   513     0  0.000000000E+00  0.000000000E+00  2.322288832E+02  2.322288832E+02  0.000000000E+00  0.00000E+00  9.000E+00
      21    -1     0     0   512   516  0.000000000E+00  0.000000000E+00 -4.846977625E+00  4.846977625E+00  0.000000000E+00  0.00000E+00  9.000E+00
      21     1     1     2   511   516  1.724802498E+01  6.129470152E+00  1.670098103E+01  2.477877191E+01  1.092571186E-06  0.00000E+00  9.000E+00
       2     1     1     2   512     0 -2.030114956E+01 -3.552472018E+00  1.960459701E+02  1.971265787E+02  3.300000131E-01  0.00000E+00  9.000E+00
      21     1     1     2   513   511  3.053124582E+00 -2.576998134E+00  1.463495442E+01  1.517051021E+01  0.000000000E+00  0.00000E+00  9.000E+00
</event>
<event>
      5  10001  3.52971E+09  4.40912E+00 -1.00000E+00  2.53880E-01
      21    -1     0     0   512   511  0.000000000E+00  0.000000000E+00  3.568259928E+02  3.568259928E+02  0.000000000E+00  0.00000E+00  9.000E+00
       1    -1     0     0   515     0  0.000000000E+00  0.000000000E+00 -1.210031952E+00  1.210031952E+00  0.000000000E+00  0.00000E+00  9.000E+00
      21     1     1     2   512   514  1.488951875E+01  3.032930565E+00  1.901964628E+02  1.908024919E+02  0.000000000E+00  0.00000E+00  9.000E+00
       1     1     1     2   514     0 -1.481168307E+01  1.375126482E+00  1.572324488E+02  1.579348878E+02  3.300000131E-01  0.00000E+00  9.000E+00
      21     1     1     2   515   511 -7.783567688E-02 -4.408057046E+00  8.187049275E+00  9.298645124E+00  2.384185791E-07  0.00000E+00  9.000E+00
</event>
<event>
      5  10001  3.52971E+09  9.63601E+00 -1.00000E+00  1.97632E-01
      21    -1     0     0   512   516  0.000000000E+00  0.000000000E+00  1.112351033E+01  1.112351033E+01  0.000000000E+00  0.00000E+00  9.000E+00
      21    -1     0     0   511   513  0.000000000E+00  0.000000000E+00 -3.283532225E+02  3.283532225E+02  0.000000000E+00  0.00000E+00  9.000E+00
      21     1     1     2   515   516  1.484358147E+01  6.155527387E+00 -7.562285673E+00  1.775980272E+01  6.364034565E-07  0.00000E+00  9.000E+00
      21     1     1     2   511   515 -7.776487377E+00 -1.270600841E+01 -3.115439530E+02  3.118999055E+02  5.394796609E-06  0.00000E+00  9.000E+00
      21     1     1     2   512   513 -7.067094091E+00  6.550481025E+00  1.876526486E+00  9.817024610E+00  3.002500784E-07  0.00000E+00  9.000E+00
</event>
<event>
      5  10001  3.52971E+09  7.71314E+00 -1.00000E+00  2.09761E-01
      21    -1     0     0   511   515  0.000000000E+00  0.000000000E+00  2.152226882E-01  2.152226882E-01  0.000000000E+00  0.00000E+00  9.000E+00
       2    -1     0     0   515     0  0.000000000E+00  0.000000000E+00 -7.836152843E+02  7.836152843E+02  0.000000000E+00  0.00000E+00  9.000E+00
      21     1     1     2   511   514 -1.889036690E+00  9.598957011E+00 -5.783569522E+02  5.784396880E+02  1.078959322E-05  0.00000E+00  9.000E+00
      21     1     1     2   514   516 -2.689094792E-01 -6.089046457E+00 -1.692710757E+02  1.693807719E+02  0.000000000E+00  0.00000E+00  9.000E+00
       2     1     1     2   516     0  2.157946169E+00 -3.509910554E+00 -3.577203369E+01  3.601004718E+01  3.300000131E-01  0.00000E+00  9.000E+00
</event>
<event>
      5  10001  3.52971E+09  1.01288E+01 -1.00000E+00  1.95112E-01
       2    -1     0     0   511     0  0.000000000E+00  0.000000000E+00  3.699311934E+01  3.699311934E+01  0.000000000E+00  0.00000E+00  9.000E+00
      21    -1     0     0   513   511  0.000000000E+00  0.000000000E+00 -6.253043682E+01  6.253043682E+01  0.000000000E+00  0.00000E+00  9.000E+00
      21     1     1     2   513   514  5.512216499E+00  1.407047710E+01 -2.853623343E+01  3.229054776E+01  4.768371582E-07  0.00000E+00  9.000E+00
       2     1     1     2   512     0 -1.322097063E+00 -2.261251835E+01  3.058011741E+01  3.805688384E+01  3.300000131E-01  0.00000E+00  9.000E+00
      21     1     1     2   514   512 -4.190119435E+00  8.542041249E+00 -2.758120147E+01  2.917612455E+01  4.768371582E-07  0.00000E+00  9.000E+00
</event>
<event>
      5  10001  3.52971E+09  8.67887E+00 -1.00000E+00  2.03146E-01
      21    -1     0     0   515   513  0.000000000E+00  0.000000000E+00  3.856439776E+01  3.856439776E+01  0.000000000E+00  0.00000E+00  9.000E+00
      21    -1     0     0   516   515  0.000000000E+00  0.000000000E+00 -2.050328765E+01  2.050328765E+01  0.000000000E+00  0.00000E+00  9.000E+00
      21     1     1     2   512   513 -1.354482743E+01 -3.245729039E+00  3.352948254E+01  3.630734508E+01  4.768371582E-07  0.00000E+00  9.000E+00
      21     1     1     2   516   511  1.104186178E+01  2.736436663E+00 -5.817336002E+00  1.277701825E+01  1.884864366E-07  0.00000E+00  9.000E+00
      21     1     1     2   511   512  2.502965655E+00  5.092923755E-01 -9.651036423E+00  9.983322084E+00  3.153981341E-07  0.00000E+00  9.000E+00
</event>
<event>
      5  10001  3.52971E+09  5.71523E+00 -1.00000E+00  2.28796E-01
       3    -1     0     0   512     0  0.000000000E+00  0.000000000E+00  1.461918467E+02  1.461918467E+02  0.000000000E+00  0.00000E+00  9.000E+00
      21    -1     0     0   513   512  0.000000000E+00  0.000000000E+00 -1.049620258E+02  1.049620258E+02  0.000000000E+00  0.00000E+00  9.000E+00
      21     1     1     2   514   511 -7.102118834E+00 -1.270579986E+01  3.806056562E+00  1.504538164E+01  2.827296549E-07  0.00000E+00  9.000E+00
       3     1     1     2   511     0  3.049591184E+00  8.675843787E+00  1.365286600E+02  1.368389392E+02  5.000000000E-01  0.00000E+00  9.000E+00
      21     1     1     2   513   514  4.052527650E+00  4.029956073E+00 -9.910489572E+01  9.926955163E+01  0.000000000E+00  0.00000E+00  9.000E+00
</event>
<event>
      5  10001  3.52971E+09  8.09571E+00 -1.00000E+00  2.06992E-01
      21    -1     0     0   515   511  0.000000000E+00  0.000000000E+00  8.198753723E+01  8.198753723E+01  0.000000000E+00  0.00000E+00  9.000E+00
      21    -1     0     0   512   515  0.000000000E+00  0.000000000E+00 -2.440023636E+01  2.440023636E+01  0.000000000E+00  0.00000E+00  9.000E+00
      21     1     1     2   513   514 -1.303988192E+01  1.289674086E+01 -1.061869876E+01  2.119248000E+01  7.725644944E-07  0.00000E+00  9.000E+00
      21     1     1     2   514   511  6.539799687E+00 -8.070821009E+00  7.432490532E+01  7.504730963E+01  1.651812370E-06  0.00000E+00  9.000E+00
      21     1     1     2   512   513  6.500082234E+00 -4.825919851E+00 -6.118905686E+00  1.014798395E+01  1.460009660E-07  0.00000E+00  9.000E+00
</event>
<event>
      5  10001  3.52971E+09  9.38241E+00 -1.00000E+00  1.99008E-01
      21    -1     0     0   516   511  0.000000000E+00  0.000000000E+00  5.677712722E+01  5.677712722E+01  0.000000000E+00  0.00000E+00  9.000E+00
      21    -1     0     0   512   516  0.000000000E+00  0.000000000E+00 -7.235040648E+00  7.235040648E+00  0.000000000E+00  0.00000E+00  9.000E+00
      21     1     1     2   517   511 -1.262804339E+01  1.151363262E+01  3.924406148E+01  4.280335942E+01  6.743495762E-07  0.00000E+00  9.000E+00
      21     1     1     2   512   514  2.370576291E+00 -4.033228678E+00 -2.762815153E-01  4.686458897E+00  1.678035502E-07  0.00000E+00  9.000E+00
      21     1     1     2   514   517  1.025746710E+01 -7.480403944E+00  1.057430660E+01  1.652234955E+01  2.665600750E-07  0.00000E+00  9.000E+00
</event>
<event>
      5  10001  3.52971E+09  1.22805E+01 -1.00000E+00  1.85975E-01
      21    -1     0     0   513   512  0.000000000E+00  0.000000000E+00  2.505339023E+02  2.505339023E+02  0.000000000E+00  0.00000E+00  9.000E+00
      21    -1     0     0   511   515  0.000000000E+00  0.000000000E+00 -9.401137837E-01  9.401137837E-01  0.000000000E+00  0.00000E+00  9.000E+00
      21     1     1     2   513   515 -1.139441240E+01 -2.640205573E+00  1.647743504E+02  1.651889521E+02  4.264961200E-06  0.00000E+00  9.000E+00
      21     1     1     2   511   516  4.500916614E+00 -3.918982810E+00  2.429891161E+01  2.502106677E+01  3.371747881E-07  0.00000E+00  9.000E+00
      21     1     1     2   516   512  6.893495788E+00  6.559188383E+00  6.052052644E+01  6.126399723E+01  0.000000000E+00  0.00000E+00  9.000E+00
</event>
<event>
      5  10001  3.52971E+09  8.48959E+00 -1.00000E+00  2.04349E-01
      21    -1     0     0   514   511  0.000000000E+00  0.000000000E+00  1.503660063E+02  1.503660063E+02  0.000000000E+00  0.00000E+00  9.000E+00
      21    -1     0     0   517   512  0.000000000E+00  0.000000000E+00 -1.887881766E+00  1.887881766E+00  0.000000000E+00  0.00000E+00  9.000E+00
      21     1     1     2   514   512  7.925947026E+00 -3.906837632E+00  1.071493204E+02  1.075130730E+02  1.907348633E-06  0.00000E+00  9.000E+00
      21     1     1     2   517   513 -5.663871876E+00  8.329233955E+00  1.583123431E+01  1.876388986E+01  3.769728732E-07  0.00000E+00  9.000E+00
      21     1     1     2   513   511 -2.262075150E+00 -4.422396323E+00  2.549756991E+01  2.597692523E+01  0.000000000E+00  0.00000E+00  9.000E+00
</event>
<event>
      5  10001  3.52971E+09  2.99054E+01 -1.00000E+00  1.53132E-01
      21    -1     0     0   512   513  0.000000000E+00  0.000000000E+00  6.199449332E+01  6.199449332E+01  0.000000000E+00  0.00000E+00  9.000E+00
      21    -1     0     0   511   515  0.000000000E+00  0.000000000E+00 -2.218028893E+02  2.218028893E+02  0.000000000E+00  0.00000E+00  9.000E+00
      21     1     1     2   516   513  1.992021543E+01  2.867096118E-01 -6.001895209E+00  2.080672803E+01  8.920806376E-07  0.00000E+00  9.000E+00
      21     1     1     2   511   516  5.381207551E+00 -1.622939520E+01 -2.039182529E+02  2.046338304E+02  0.000000000E+00  0.00000E+00  9.000E+00
      21     1     1     2   512   515 -2.530142298E+01  1.594268559E+01  5.011175215E+01  5.835682421E+01  9.536743164E-07  0.00000E+00  9.000E+00
</event>
<event>
      5  10001  3.52971E+09  8.33806E+00 -1.00000E+00  2.05343E-01
      21    -1     0     0   514   511  0.000000000E+00  0.000000000E+00  8.997812481E+00  8.997812481E+00  0.000000000E+00  0.00000E+00  9.000E+00
       1    -1     0     0   517     0  0.000000000E+00  0.000000000E+00 -1.993577688E+02  1.993577688E+02  0.000000000E+00  0.00000E+00  9.000E+00
      21     1     1     2   517   515 -3.597844524E+00 -1.121515536E+01 -6.274348149E+00  1.334509796E+01  1.192092896E-07  0.00000E+00  9.000E+00
      21     1     1     2   515   511  9.431783851E+00  5.258124216E+00 -6.284414627E-02  1.079862798E+01  2.018307311E-07  0.00000E+00  9.000E+00
       1     1     1     2   514     0 -5.833939328E+00  5.957031142E+00 -1.840227640E+02  1.842118553E+02  3.300000131E-01  0.00000E+00  9.000E+00
</event>
<event>
      5  10001  3.52971E+09  5.29968E+00 -1.00000E+00  2.34176E-01
      21    -1     0     0   512   511  0.000000000E+00  0.000000000E+00  1.249949535E+01  1.249949535E+01  0.000000000E+00  0.00000E+00  9.000E+00
       2    -1     0     0   513     0  0.000000000E+00  0.000000000E+00 -1.639654896E+01  1.639654896E+01  0.000000000E+00  0.00000E+00  9.000E+00
      21     1     1     2   513   511  1.183503208E+00  1.343634008E+01 -2.647004001E+00  1.374563730E+01  2.889442359E-07  0.00000E+00  9.000E+00
       2     1     1     2   515     0 -1.324071533E+00 -8.500426598E+00  2.483036792E+00  8.960177984E+00  3.300000131E-01  0.00000E+00  9.000E+00
      21     1     1     2   512   515  1.405683255E-01 -4.935913479E+00 -3.733086405E+00  6.190229029E+00  1.192092896E-07  0.00000E+00  9.000E+00
</event>
<event>
      5  10001  3.52971E+09  6.39197E+00 -1.00000E+00  2.21281E-01
      21    -1     0     0   514   517  0.000000000E+00  0.000000000E+00  1.517460081E+01  1.517460081E+01  0.000000000E+00  0.00000E+00  9.000E+00
      21    -1     0     0   511   516  0.000000000E+00  0.000000000E+00 -2.741963151E+01  2.741963151E+01  0.000000000E+00  0.00000E+00  9.000E+00
      21     1     1     2   514   516 -1.469277028E+01 -3.791803185E+00 -1.707607598E+01  2.284398478E+01  3.371747881E-07  0.00000E+00  9.000E+00
      21     1     1     2   511   513  8.318266261E+00  4.263994330E+00 -2.836002358E+00  9.768219418E+00  3.793216366E-07  0.00000E+00  9.000E+00
      21     1     1     2   513   517  6.374504023E+00 -4.721911451E-01  7.667047628E+00  9.982028118E+00  1.460009660E-07  0.00000E+00  9.000E+00
</event>
<event>
      5  10001  3.52971E+09  4.70018E+00 -1.00000E+00  2.47979E-01
      -2    -1     0     0     0   512  0.000000000E+00  0.000000000E+00  5.482827142E+01  5.482827142E+01  0.000000000E+00  0.00000E+00  9.000E+00
       3    -1     0     0   511     0  0.000000000E+00  0.000000000E+00 -1.413774374E+01  1.413774374E+01  0.000000000E+00  0.00000E+00  9.000E+00
      -2     1     1     2     0   513  2.454819984E+00  1.768351203E+01  3.532141614E+01  3.957832838E+01  3.300000131E-01  0.00000E+00  9.000E+00
       3     1     1     2   513     0 -5.851752700E+00 -2.093102192E+01  8.919252615E+00  2.349795215E+01  5.000000000E-01  0.00000E+00  9.000E+00
      21     1     1     2   511   512  3.396932716E+00  3.247509890E+00 -3.550141082E+00  5.889734634E+00  9.424321831E-08  0.00000E+00  9.000E+00
</event>
<event>
      5  10001  3.52971E+09  6.22669E+00 -1.00000E+00  2.22993E-01
      21    -1     0     0   515   513  0.000000000E+00  0.000000000E+00  1.085914582E+01  1.085914582E+01  0.000000000E+00  0.00000E+00  9.000E+00
      21    -1     0     0   511   514  0.000000000E+00  0.000000000E+00 -1.209419598E+02  1.209419598E+02  0.000000000E+00  0.00000E+00  9.000E+00
      21     1     1     2   511   512 -7.259229237E+00  1.082230633E+01 -1.038626694E+02  1.046769928E+02  1.907348633E-06  0.00000E+00  9.000E+00
      21     1     1     2   512   513  1.299433040E+01 -8.397385297E+00  3.231822951E+00  1.580548582E+01  6.529361695E-07  0.00000E+00  9.000E+00
      21     1     1     2   515   514 -5.735101162E+00 -2.424921028E+00 -9.451967568E+00  1.131862705E+01  1.192092896E-07  0.00000E+00  9.000E+00
</event>
<event>
      5  10001  3.52971E+09  8.37826E+00 -1.00000E+00  2.05076E-01
       1    -1     0     0   511     0  0.000000000E+00  0.000000000E+00  4.570129567E+02  4.570129567E+02  0.000000000E+00  0.00000E+00  9.000E+00
      21    -1     0     0   515   514  0.000000000E+00  0.000000000E+00 -2.477240979E+01  2.477240979E+01  0.000000000E+00  0.00000E+00  9.000E+00
      21     1     1     2   512   514  2.987830167E+00 -9.142778973E+00 -2.317930181E+01  2.509576794E+01  2.050954167E-06  0.00000E+00  9.000E+00
       1     1     1     2   515     0  5.233364932E+00  1.075733032E+01  4.240905671E+02  4.242593856E+02  3.300000131E-01  0.00000E+00  9.000E+00
      21     1     1     2   511   512 -8.221195098E+00 -1.614551343E+00  3.132928155E+01  3.243021288E+01  0.000000000E+00  0.00000E+00  9.000E+00
</event>
<event>
      5  10001  3.52971E+09  1.09702E+01 -1.00000E+00  1.91216E-01
       2    -1     0     0   512     0  0.000000000E+00  0.000000000E+00  3.953391606E+02  3.953391606E+02  0.000000000E+00  0.00000E+00  9.000E+00
      21    -1     0     0   513   512  0.000000000E+00  0.000000000E+00 -1.048459921E+00  1.048459921E+00  0.000000000E+00  0.00000E+00  9.000E+00
      21     1     1     2   513   511  1.136771126E+01  7.078985275E+00  6.130361180E+01  6.274926065E+01  1.168007728E-06  0.00000E+00  9.000E+00
       2     1     1     2   514     0 -4.237388909E+00 -8.189969763E+00  2.811506624E+02  2.813020350E+02  3.300000131E-01  0.00000E+00  9.000E+00
      21     1     1     2   511   514 -7.130322355E+00  1.110984487E+00  5.183642653E+01  5.233632485E+01  0.000000000E+00  0.00000E+00  9.000E+00
</event>
<event>
      5  10001  3.52971E+09  9.81557E+00 -1.00000E+00  1.96692E-01
      21    -1     0     0   515   513  0.000000000E+00  0.000000000E+00  1.071853556E+02  1.071853556E+02  0.000000000E+00  0.00000E+00  9.000E+00
      21    -1     0     0   511   512  0.000000000E+00  0.000000000E+00 -2.113812970E+01  2.113812970E+01  0.000000000E+00  0.00000E+00  9.000E+00
      21     1     1     2   515   516  1.434557938E+01 -8.517015525E+00  5.259646092E+01  5.517900781E+01  9.536743164E-07  0.00000E+00  9.000E+00
      21     1     1     2   511   513 -8.556048134E+00  5.906888114E-01  5.170881436E+01  5.241523018E+01  6.743495762E-07  0.00000E+00  9.000E+00
      21     1     1     2   516   512 -5.789531244E+00  7.926326714E+00 -1.825804938E+01  2.072924732E+01  4.768371582E-07  0.00000E+00  9.000E+00
</event>
<event>
      5  10001  3.52971E+09  2.04996E+01 -1.00000E+00  1.65486E-01
      21    -1     0     0   514   511  0.000000000E+00  0.000000000E+00  1.244664260E+00  1.244664260E+00  0.000000000E+00  0.00000E+00  9.000E+00
      21    -1     0     0   516   517  0.000000000E+00  0.000000000E+00 -2.638575615E+02  2.638575615E+02  0.000000000E+00  0.00000E+00  9.000E+00
      21     1     1     2   514   517 -7.065594352E+00 -6.815822092E+00 -2.042606667E+02  2.044964499E+02  2.697398305E-06  0.00000E+00  9.000E+00
      21     1     1     2   513   511  2.607338206E+00  5.147449536E+00 -5.349352261E+01  5.380382338E+01  6.743495762E-07  0.00000E+00  9.000E+00
      21     1     1     2   516   513  4.458256146E+00  1.668372556E+00 -4.858707895E+00  6.801952459E+00  1.685873940E-07  0.00000E+00  9.000E+00
</event>
<event>
      5  10001  3.52971E+09  6.62390E+00 -1.00000E+00  2.18994E-01
      -1    -1     0     0     0   512  0.000000000E+00  0.000000000E+00  4.759801550E+02  4.759801550E+02  0.000000000E+00  0.00000E+00  9.000E+00
      21    -1     0     0   511   513  0.000000000E+00  0.000000000E+00 -5.186674867E-01  5.186674867E-01  0.000000000E+00  0.00000E+00  9.000E+00
      -1     1     1     2     0   514  5.758748393E+00 -4.956254528E+00  8.780362720E+01  8.813236348E+01  3.300000131E-01  0.00000E+00  9.000E+00
      21     1     1     2   511   512 -1.028782800E+01  1.080120103E+01  1.963674681E+02  1.969332066E+02  2.697398305E-06  0.00000E+00  9.000E+00
      21     1     1     2   514   513  4.529079607E+00 -5.844946504E+00  1.912903922E+02  1.914332524E+02  3.814697266E-06  0.00000E+00  9.000E+00
</event>
<event>
      5  10001  3.52971E+09  5.01858E+00 -1.00000E+00  2.38228E-01
      21    -1     0     0   515   511  0.000000000E+00  0.000000000E+00  3.750734655E+00  3.750734655E+00  0.000000000E+00  0.00000E+00  9.000E+00
      21    -1     0     0   512   516  0.000000000E+00  0.000000000E+00 -8.901014436E+01  8.901014436E+01  0.000000000E+00  0.00000E+00  9.000E+00
      21     1     1     2   515   516 -1.112050143E+01 -5.622469511E+00 -1.557448006E+01  1.994598066E+01  2.384185791E-07  0.00000E+00  9.000E+00
      21     1     1     2   514   511  7.291386874E+00  8.866552779E+00 -2.153033471E+01  2.439949576E+01  2.384185791E-07  0.00000E+00  9.000E+00
      21     1     1     2   512   514  3.829114554E+00 -3.244083268E+00 -4.815459494E+01  4.841540260E+01  9.536743164E-07  0.00000E+00  9.000E+00
</event>
<event>
      5  10001  3.52971E+09  6.28487E+00 -1.00000E+00  2.22382E-01
      21    -1     0     0   513   514  0.000000000E+00  0.000000000E+00  2.379758017E+01  2.379758017E+01  0.000000000E+00  0.00000E+00  9.000E+00
      21    -1     0     0   511   513  0.000000000E+00  0.000000000E+00 -1.592840878E+01  1.592840878E+01  0.000000000E+00  0.00000E+00  9.000E+00
      21     1     1     2   512   517 -1.332972052E+01  9.400015151E+00  8.145965694E+00  1.823179890E+01  3.769728732E-07  0.00000E+00  9.000E+00
      21     1     1     2   517   514  7.045503182E+00 -9.309341789E+00  5.547203202E+00  1.292572718E+01  1.460009660E-07  0.00000E+00  9.000E+00
      21     1     1     2   511   512  6.284217339E+00 -9.067336169E-02 -5.823997498E+00  8.568462877E+00  1.884864366E-07  0.00000E+00  9.000E+00
</event>
<event>
      5  10001  3.52971E+09  7.47982E+00 -1.00000E+00  2.11557E-01
      21    -1     0     0   515   516  0.000000000E+00  0.000000000E+00  4.172088032E+01  4.172088032E+01  0.000000000E+00  0.00000E+00  9.000E+00
      21    -1     0     0   511   513  0.000000000E+00  0.000000000E+00 -3.554737650E+01  3.554737650E+01  0.000000000E+00  0.00000E+00  9.000E+00
      21     1     1     2   515   512  1.063681325E+00  1.314039601E+01  3.682922819E+01  3.911768748E+01  4.768371582E-07  0.00000E+00  9.000E+00
      21     1     1     2   511   516 -6.790094739E+00 -8.328331340E+00 -2.835826559E+01  3.032585888E+01  3.371747881E-07  0.00000E+00  9.000E+00
      21     1     1     2   512   513  5.726413414E+00 -4.812064668E+00 -2.297458771E+00  7.824710458E+00  8.429369702E-08  0.00000E+00  9.000E+00
</event>
<event>
      5  10001  3.52971E+09  8.98770E+00 -1.00000E+00  2.01268E-01
      21    -1     0     0   511   512  0.000000000E+00  0.000000000E+00  4.450282830E+02  4.450282830E+02  0.000000000E+00  0.00000E+00  9.000E+00
       3    -1     0     0   512     0  0.000000000E+00  0.000000000E+00 -1.708004234E+00  1.708004234E+00  0.000000000E+00  0.00000E+00  9.000E+00
      21     1     1     2   511   514 -1.166960790E+01  1.628607571E+00  3.837341063E+02  3.839149599E+02  5.394796609E-06  0.00000E+00  9.000E+00
      21     1     1     2   514   515  1.022405711E+01  4.877715221E+00  2.310042421E+01  2.572844823E+01  1.305872339E-06  0.00000E+00  9.000E+00
       3     1     1     2   515     0  1.445550798E+00 -6.506322792E+00  3.648574826E+01  3.709287909E+01  5.000000000E-01  0.00000E+00  9.000E+00
</event>
<event>
      5  10001  3.52971E+09  2.78234E+01 -1.00000E+00  1.55344E-01
      21    -1     0     0   513   512  0.000000000E+00  0.000000000E+00  1.714181359E+01  1.714181359E+01  0.000000000E+00  0.00000E+00  9.000E+00
       5    -1     0     0   514     0  0.000000000E+00  0.000000000E+00 -4.730660902E+01  4.730660902E+01  0.000000000E+00  0.00000E+00  9.000E+00
      21     1     1     2   514   512  1.944678136E+00  1.424052301E+01  6.261703012E+00  1.567747407E+01  3.475518164E-07  0.00000E+00  9.000E+00
      21     1     1     2   513   511 -1.094707693E+01 -1.438399534E+01 -1.048887685E+01  2.089866869E+01  2.064765462E-07  0.00000E+00  9.000E+00
       5     1     1     2   511     0  9.002398794E+00  1.434723307E-01 -2.593762159E+01  2.787227984E+01  4.800000191E+00  0.00000E+00  9.000E+00
</event>
<event>
      5  10001  3.52971E+09  1.98036E+01 -1.00000E+00  1.66720E-01
      21    -1     0     0   515   514  0.000000000E+00  0.000000000E+00  5.122429668E+01  5.122429668E+01  0.000000000E+00  0.00000E+00  9.000E+00
      21    -1     0     0   512   516  0.000000000E+00  0.000000000E+00 -2.595284133E+02  2.595284133E+02  0.000000000E+00  0.00000E+00  9.000E+00
      21     1     1     2   515   516  2.660124226E+01 -3.329998138E+00 -2.393296968E+02  2.408265325E+02  0.000000000E+00  0.00000E+00  9.000E+00
      21     1     1     2   513   514 -1.553841245E+01 -3.535726880E+00  4.681962793E+01  4.945726625E+01  1.784161275E-06  0.00000E+00  9.000E+00
      21     1     1     2   512   513 -1.106282981E+01  6.865725018E+00 -1.579404781E+01  2.046891130E+01  1.685873940E-07  0.00000E+00  9.000E+00
</event>
<event>
      5  10001  3.52971E+09  1.67794E+01 -1.00000E+00  1.72913E-01
      21    -1     0     0   514   513  0.000000000E+00  0.000000000E+00  1.023567382E+02  1.023567382E+02  0.000000000E+00  0.00000E+00  9.000E+00
      21    -1     0     0   512   517  0.000000000E+00  0.000000000E+00 -7.783585443E+01  7.783585443E+01  0.000000000E+00  0.00000E+00  9.000E+00
      21     1     1     2   511   517 -3.124967593E+01  1.574061827E+01 -6.079146927E+01  7.014208469E+01  1.348699152E-06  0.00000E+00  9.000E+00
      21     1     1     2   512   513  4.536096476E+01 -2.481915134E+01  7.193947047E+01  8.859398856E+01  1.651812370E-06  0.00000E+00  9.000E+00
      21     1     1     2   514   511 -1.411128883E+01  9.078533069E+00  1.337288253E+01  2.145651934E+01  2.384185791E-07  0.00000E+00  9.000E+00
</event>
<event>
      5  10001  3.52971E+09  1.62870E+01 -1.00000E+00  1.74077E-01
      21    -1     0     0   515   512  0.000000000E+00  0.000000000E+00  1.026256546E+02  1.026256546E+02  0.000000000E+00  0.00000E+00  9.000E+00
      21    -1     0     0   516   511  0.000000000E+00  0.000000000E+00 -2.788147626E+00  2.788147626E+00  0.000000000E+00  0.00000E+00  9.000E+00
      21     1     1     2   515   511 -6.179719545E+00  8.117315838E+00  9.133347933E+00  1.369298340E+01  4.298152060E-07  0.00000E+00  9.000E+00
      21     1     1     2   513   512  3.065707101E+00 -2.903721524E+00  1.095255749E+01  1.173834205E+01  1.192092896E-07  0.00000E+00  9.000E+00
      21     1     1     2   516   513  3.114012443E+00 -5.213594314E+00  7.975160159E+01  7.998247681E+01  9.536743164E-07  0.00000E+00  9.000E+00
</event>
<event>
      5  10001  3.52971E+09  2.66144E+00 -1.00000E+00  3.13584E-01
      21    -1     0     0   511   512  0.000000000E+00  0.000000000E+00  1.870632400E+00  1.870632400E+00  0.000000000E+00  0.00000E+00  9.000E+00
       1    -1     0     0   512     0  0.000000000E+00  0.000000000E+00 -1.465672749E+03  1.465672749E+03  0.000000000E+00  0.00000E+00  9.000E+00
      21     1     1     2   513   514 -1.050991744E+01 -6.463156698E+00 -2.105164265E+02  2.108776815E+02  7.136645101E-06  0.00000E+00  9.000E+00
       1     1     1     2   514     0  1.277859746E+01  7.854621612E+00 -1.253854441E+03  1.253944200E+03  3.300000131E-01  0.00000E+00  9.000E+00
      21     1     1     2   511   513 -2.268680021E+00 -1.391464914E+00  5.687512307E-01  2.721499881E+00  3.434547952E-07  0.00000E+00  9.000E+00
</event>
<event>
      5  10001  3.52971E+09  1.83458E+01 -1.00000E+00  1.69520E-01
      21    -1     0     0   515   514  0.000000000E+00  0.000000000E+00  7.355463280E+01  7.355463280E+01  0.000000000E+00  0.00000E+00  9.000E+00
      21    -1     0     0   512   515  0.000000000E+00  0.000000000E+00 -4.240612781E+00  4.240612781E+00  0.000000000E+00  0.00000E+00  9.000E+00
      21     1     1     2   512   513 -6.063088217E+00  8.553019858E+00  7.500390950E+00  1.289073512E+01  8.429369702E-08  0.00000E+00  9.000E+00
      21     1     1     2   513   516 -5.090235404E+00 -5.903411457E+00  3.267584079E+01  3.359272741E+01  0.000000000E+00  0.00000E+00  9.000E+00
      21     1     1     2   516   514  1.115332362E+01 -2.649608401E+00  2.913778828E+01  3.131178306E+01  4.768371582E-07  0.00000E+00  9.000E+00
</event>
<event>
      5  10001  3.52971E+09  7.68848E+00 -1.00000E+00  2.09946E-01
      21    -1     0     0   511   513  0.000000000E+00  0.000000000E+00  1.083110186E+02  1.083110186E+02  0.000000000E+00  0.00000E+00  9.000E+00
      21    -1     0     0   514   511  0.000000000E+00  0.000000000E+00 -5.220790606E+00  5.220790606E+00  0.000000000E+00  0.00000E+00  9.000E+00
      21     1     1     2   514   512 -1.040875549E+01  5.540740937E+00  3.107376355E+00  1.219417028E+01  2.598106231E-07  0.00000E+00  9.000E+00
      21     1     1     2   512   515  3.301709981E+00 -6.061598708E+00  7.615088509E+01  7.646307323E+01  1.651812370E-06  0.00000E+00  9.000E+00
      21     1     1     2   515   513  7.107045513E+00  5.208577707E-01  2.383196650E+01  2.487456564E+01  5.840038640E-07  0.00000E+00  9.000E+00
</event>
<event>
      5  10001  3.52971E+09  5.44125E+00 -1.00000E+00  2.32267E-01
      21    -1     0     0   516   512  0.000000000E+00  0.000000000E+00  2.683359204E+02  2.683359204E+02  0.000000000E+00  0.00000E+00  9.000E+00
      21    -1     0     0   514   513  0.000000000E+00  0.000000000E+00 -1.145508972E+00  1.145508972E+00  0.000000000E+00  0.00000E+00  9.000E+00
      21     1     1     2   516   513  8.568849682E+00 -3.985290388E+00  2.196317640E+01  2.391001551E+01  4.129530925E-07  0.00000E+00  9.000E+00
      -2     1     1     2     0   512 -4.366397301E+00  5.990002925E+00  1.908573678E+02  1.910015427E+02  3.300000131E-01  0.00000E+00  9.000E+00
       2     1     1     2   514     0 -4.202452381E+00 -2.004712537E+00  5.436986721E+01  5.456987117E+01  3.300000131E-01  0.00000E+00  9.000E+00
</event>
<event>
      5  10001  3.52971E+09  5.43589E+00 -1.00000E+00  2.32338E-01
      21    -1     0     0   511   513  0.000000000E+00  0.000000000E+00  4.091099597E+01  4.091099597E+01  0.000000000E+00  0.00000E+00  9.000E+00
      21    -1     0     0   514   515  0.000000000E+00  0.000000000E+00 -3.552794847E+01  3.552794847E+01  0.000000000E+00  0.00000E+00  9.000E+00
      21     1     1     2   511   515 -4.186916164E-01 -1.058032229E+01  3.917725059E+01  4.058294576E+01  6.743495762E-07  0.00000E+00  9.000E+00
      21     1     1     2   512   513  2.538171331E+00  3.945118290E+00 -1.786110612E+01  1.846687261E+01  2.384185791E-07  0.00000E+00  9.000E+00
      21     1     1     2   514   512 -2.119479714E+00  6.635204001E+00 -1.593309698E+01  1.738912607E+01  2.384185791E-07  0.00000E+00  9.000E+00
</event>
<event>
      5  10001  3.52971E+09  7.86692E+00 -1.00000E+00  2.08622E-01
      21    -1     0     0   516   511  0.000000000E+00  0.000000000E+00  4.060802971E+01  4.060802971E+01  0.000000000E+00  0.00000E+00  9.000E+00
      21    -1     0     0   514   517  0.000000000E+00  0.000000000E+00 -1.482851677E+02  1.482851677E+02  0.000000000E+00  0.00000E+00  9.000E+00
      21     1     1     2   516   517 -1.055324452E+01 -1.084561740E+01 -1.434210044E+02  1.442171379E+02  1.907348633E-06  0.00000E+00  9.000E+00
      21     1     1     2   514   512  6.251493126E+00  1.743222418E+01  2.127011555E+01  2.820250736E+01  3.371747881E-07  0.00000E+00  9.000E+00
      21     1     1     2   512   511  4.301751395E+00 -6.586606780E+00  1.447375085E+01  1.647355207E+01  0.000000000E+00  0.00000E+00  9.000E+00
</event>
<event>
      5  10001  3.52971E+09  5.47737E+01 -1.00000E+00  1.36851E-01
      -3    -1     0     0     0   511  0.000000000E+00  0.000000000E+00  1.306949479E+01  1.306949479E+01  0.000000000E+00  0.00000E+00  9.000E+00
      21    -1     0     0   511   513  0.000000000E+00  0.000000000E+00 -6.781632782E+01  6.781632782E+01  0.000000000E+00  0.00000E+00  9.000E+00
      21     1     1     2   514   512  5.040016907E-01 -3.569222077E+00 -1.787404975E+01  1.823389751E+01  2.384185791E-07  0.00000E+00  9.000E+00
      21     1     1     2   512   513 -1.015723219E+00  8.389598335E+00 -4.892619223E+01  4.965067311E+01  0.000000000E+00  0.00000E+00  9.000E+00
      -3     1     1     2     0   514  5.117215281E-01 -4.820376258E+00  1.205340895E+01  1.300125200E+01  5.000000000E-01  0.00000E+00  9.000E+00
</event>
<event>
      5  10001  3.52971E+09  4.50786E+00 -1.00000E+00  2.51802E-01
      21    -1     0     0   515   511  0.000000000E+00  0.000000000E+00  1.590443424E-01  1.590443424E-01  0.000000000E+00  0.00000E+00  9.000E+00
       1    -1     0     0   512     0  0.000000000E+00  0.000000000E+00 -7.860963100E+02  7.860963100E+02  0.000000000E+00  0.00000E+00  9.000E+00
      21     1     1     2   513   511  5.304463009E+00  4.025977774E+00 -1.467670198E+02  1.469180177E+02  4.264961200E-06  0.00000E+00  9.000E+00
       1     1     1     2   515     0 -9.634031608E+00 -2.743898739E+00 -4.699058053E+02  4.700126789E+02  3.300000131E-01  0.00000E+00  9.000E+00
      21     1     1     2   512   513  4.329568598E+00 -1.282079035E+00 -1.692644406E+02  1.693246578E+02  3.303624740E-06  0.00000E+00  9.000E+00
</event>
<event>
      5  10001  3.52971E+09  1.62962E+01 -1.00000E+00  1.74055E-01
       5    -1     0     0   512     0  0.000000000E+00  0.000000000E+00  2.715528835E+00  2.715528835E+00  0.000000000E+00  0.00000E+00  9.000E+00
       2    -1     0     0   511     0  0.000000000E+00  0.000000000E+00 -4.074755106E+02  4.074755106E+02  0.000000000E+00  0.00000E+00  9.000E+00
      21     1     1     2   512   514 -8.733131237E+00  5.790530156E+00 -1.127816168E+02  1.132673427E+02  1.907348633E-06  0.00000E+00  9.000E+00
       5     1     1     2   511     0  1.460466447E+01 -7.911899507E+00 -2.824795612E+01  3.311919994E+01  4.800000191E+00  0.00000E+00  9.000E+00
       2     1     1     2   514     0 -5.871533230E+00  2.121369351E+00 -2.637304088E+02  2.638044968E+02  3.300000131E-01  0.00000E+00  9.000E+00
</event>
<event>
      5  10001  3.52971E+09  2.76286E+00 -1.00000E+00  3.08148E-01
       1    -1     0     0   512     0  0.000000000E+00  0.000000000E+00  3.824573851E+02  3.824573851E+02  0.000000000E+00  0.00000E+00  9.000E+00
      21    -1     0     0   513   515  0.000000000E+00  0.000000000E+00 -6.506772649E-01  6.506772649E-01  0.000000000E+00  0.00000E+00  9.000E+00
      21     1     1     2   511   515 -1.026719570E+01  2.860787583E+00  5.887125843E+01  5.982829165E+01  9.536743164E-07  0.00000E+00  9.000E+00
       1     1     1     2   513     0  1.157532391E+01 -4.276520515E-01  2.178110367E+02  2.181190676E+02  3.300000131E-01  0.00000E+00  9.000E+00
      21     1     1     2   512   511 -1.308128216E+00 -2.433135531E+00  1.051244126E+02  1.051607031E+02  1.907348633E-06  0.00000E+00  9.000E+00
</event>
<event>
      5  10001  3.52971E+09  8.27326E+00 -1.00000E+00  2.05776E-01
       5    -1     0     0   514     0  0.000000000E+00  0.000000000E+00  7.131388242E+00  7.131388242E+00  0.000000000E+00  0.00000E+00  9.000E+00
      21    -1     0     0   516   514  0.000000000E+00  0.000000000E+00 -8.670882297E+01  8.670882297E+01  0.000000000E+00  0.00000E+00  9.000E+00
      21     1     1     2   516   511  1.262095349E+01  2.206905165E+00 -7.355640823E+01  7.466394102E+01  9.536743164E-07  0.00000E+00  9.000E+00
      21     1     1     2   511   513 -7.406372973E+00  4.054849526E+00 -4.591936268E+00  9.611557834E+00  1.460009660E-07  0.00000E+00  9.000E+00
       5     1     1     2   513     0 -5.214580517E+00 -6.261754691E+00 -1.429090235E+00  9.564712359E+00  4.800000191E+00  0.00000E+00  9.000E+00
</event>
<event>
      5  10001  3.52971E+09  1.12530E+01 -1.00000E+00  1.90007E-01
       3    -1     0     0   512     0  0.000000000E+00  0.000000000E+00  1.039539625E+02  1.039539625E+02  0.000000000E+00  0.00000E+00  9.000E+00
       1    -1     0     0   513     0  0.000000000E+00  0.000000000E+00 -2.581633062E+02  2.581633062E+02  0.000000000E+00  0.00000E+00  9.000E+00
       1     1     1     2   511     0  8.461709582E+00  2.994840250E+00 -2.492997663E+02  2.494615240E+02  3.300000131E-01  0.00000E+00  9.000E+00
       3     1     1     2   513     0 -1.710332954E+01 -1.399537740E+00  1.007507092E+02  1.022029255E+02  5.000000000E-01  0.00000E+00  9.000E+00
      21     1     1     2   512   511  8.641619954E+00 -1.595302510E+00 -5.660286565E+00  1.045281921E+01  0.000000000E+00  0.00000E+00  9.000E+00
</event>
<event>
      5  10001  3.52971E+09  3.08919E+00 -1.00000E+00  2.93049E-01
       4    -1     0     0   513     0  0.000000000E+00  0.000000000E+00  6.579323712E-01  6.579323712E-01  0.000000000E+00  0.00000E+00  9.000E+00
      21    -1     0     0   512   514  0.000000000E+00  0.000000000E+00 -3.166682488E+02  3.166682488E+02  0.000000000E+00  0.00000E+00  9.000E+00
      21     1     1     2   513   515 -5.684190321E+00  2.001821540E+00 -1.684478118E+02  1.685555772E+02  1.907348633E-06  0.00000E+00  9.000E+00
       4     1     1     2   512     0  1.024323728E+01 -5.221160295E-01 -4.864963251E+01  4.974166521E+01  1.500000000E+00  0.00000E+00  9.000E+00
      21     1     1     2   515   514 -4.559046963E+00 -1.479705510E+00 -9.891287215E+01  9.902893877E+01  1.348699152E-06  0.00000E+00  9.000E+00
</event>
<event>
      5  10001  3.52971E+09  6.02443E+00 -1.00000E+00  2.25192E-01
       1    -1     0     0   511     0  0.000000000E+00  0.000000000E+00  7.572567919E+02  7.572567919E+02  0.000000000E+00  0.00000E+00  9.000E+00
      21    -1     0     0   515   516  0.000000000E+00  0.000000000E+00 -8.456099294E+00  8.456099294E+00  0.000000000E+00  0.00000E+00  9.000E+00
      21     1     1     2   511   516 -7.211850598E+00  1.430150530E+01 -5.931727528E-01  1.602796608E+01  1.065693503E-06  0.00000E+00  9.000E+00
      21     1     1     2   515   512  2.424620095E+00 -1.064421463E+01  2.327981664E+02  2.330539945E+02  5.394796609E-06  0.00000E+00  9.000E+00
       1     1     1     2   512     0  4.787230503E+00 -3.657290669E+00  5.165956989E+02  5.166309305E+02  3.300000131E-01  0.00000E+00  9.000E+00
</event>
<event>
      5  10001  3.52971E+09  8.67970E+00 -1.00000E+00  2.03140E-01
      21    -1     0     0   513   512  0.000000000E+00  0.000000000E+00  8.206640039E+00  8.206640039E+00  0.000000000E+00  0.00000E+00  9.000E+00
      21    -1     0     0   514   513  0.000000000E+00  0.000000000E+00 -3.830506336E+02  3.830506336E+02  0.000000000E+00  0.00000E+00  9.000E+00
      21     1     1     2   515   512  1.446525603E+00 -1.275092980E+01  2.929889591E+00  1.316293660E+01  4.674311620E-07  0.00000E+00  9.000E+00
      21     1     1     2   511   515 -3.155890416E+00  1.003354905E+01 -1.884959829E+02  1.887892140E+02  2.697398305E-06  0.00000E+00  9.000E+00
      21     1     1     2   514   511  1.709364813E+00  2.717380746E+00 -1.892779002E+02  1.893051230E+02  2.697398305E-06  0.00000E+00  9.000E+00
</event>
<event>
      5  10001  3.52971E+09  1.19802E+01 -1.00000E+00  1.87099E-01
      21    -1     0     0   516   515  0.000000000E+00  0.000000000E+00  2.765722192E+02  2.765722192E+02  0.000000000E+00  0.00000E+00  9.000E+00
      21    -1     0     0   514   516  0.000000000E+00  0.000000000E+00 -8.393623498E+00  8.393623498E+00  0.000000000E+00  0.00000E+00  9.000E+00
      21     1     1     2   511   515 -1.622978532E+01 -1.968519420E+00  2.413953328E+02  2.419483162E+02  5.394796609E-06  0.00000E+00  9.000E+00
      21     1     1     2   512   511  1.005538397E+01 -3.704243171E-01 -4.516205981E+00  1.102923739E+01  3.998401125E-07  0.00000E+00  9.000E+00
      21     1     1     2   514   512  6.174401351E+00  2.338943737E+00  3.129946888E+01  3.198828914E+01  3.371747881E-07  0.00000E+00  9.000E+00
</event>
<event>
      5  10001  3.52971E+09  3.80923E+00 -1.00000E+00  2.68564E-01
      21    -1     0     0   513   511  0.000000000E+00  0.000000000E+00  9.281731796E+01  9.281731796E+01  0.000000000E+00  0.00000E+00  9.000E+00
      21    -1     0     0   515   513  0.000000000E+00  0.000000000E+00 -6.658941529E+00  6.658941529E+00  0.000000000E+00  0.00000E+00  9.000E+00
      21     1     1     2   512   511  7.193916068E+00 -8.573599156E+00  8.265940374E+01  8.341364431E+01  2.132480600E-06  0.00000E+00  9.000E+00
      21     1     1     2   514   512 -4.304834096E+00  1.105622310E+01  2.781621318E+00  1.218643028E+01  5.430241572E-07  0.00000E+00  9.000E+00
      21     1     1     2   515   514 -2.889081973E+00 -2.482623948E+00  7.173513695E-01  3.876184889E+00  8.624670582E-08  0.00000E+00  9.000E+00
</event>
<event>
      5  10001  3.52971E+09  3.41981E+00 -1.00000E+00  2.80601E-01
      21    -1     0     0   512   514  0.000000000E+00  0.000000000E+00  1.364189752E+01  1.364189752E+01  0.000000000E+00  0.00000E+00  9.000E+00
      -3    -1     0     0     0   516  0.000000000E+00  0.000000000E+00 -1.044364771E+02  1.044364771E+02  0.000000000E+00  0.00000E+00  9.000E+00
      -3     1     1     2     0   511 -7.606497573E+00 -6.958830895E+00 -8.665838020E+01  8.727089430E+01  5.000000000E-01  0.00000E+00  9.000E+00
      21     1     1     2   512   516  1.129642445E+01  5.951975585E+00  9.964972610E+00  1.619678665E+01  2.064765462E-07  0.00000E+00  9.000E+00
      21     1     1     2   511   514 -3.689926881E+00  1.006855310E+00 -1.410117196E+01  1.461069364E+01  2.384185791E-07  0.00000E+00  9.000E+00
</event>
<event>
      5  10001  3.52971E+09  1.04587E+01 -1.00000E+00  1.93528E-01
       3    -1     0     0   513     0  0.000000000E+00  0.000000000E+00  1.237952141E+01  1.237952141E+01  0.000000000E+00  0.00000E+00  9.000E+00
      -2    -1     0     0     0   513  0.000000000E+00  0.000000000E+00 -1.136412809E+01  1.136412809E+01  0.000000000E+00  0.00000E+00  9.000E+00
      -2     1     1     2     0   512 -6.965495454E+00 -6.424371122E+00 -2.927946544E+00  9.923328182E+00  3.300000131E-01  0.00000E+00  9.000E+00
       3     1     1     2   514     0  2.266544417E+00  7.518469307E+00  4.836511459E-01  7.883433436E+00  5.000000000E-01  0.00000E+00  9.000E+00
      21     1     1     2   512   514  4.698951037E+00 -1.094098185E+00  3.459688722E+00  5.936887884E+00  2.421152116E-07  0.00000E+00  9.000E+00
</event>
<event>
      5  10001  3.52971E+09  9.02537E+00 -1.00000E+00  2.01045E-01
      21    -1     0     0   511   514  0.000000000E+00  0.000000000E+00  6.450602722E+02  6.450602722E+02  0.000000000E+00  0.00000E+00  9.000E+00
      21    -1     0     0   512   515  0.000000000E+00  0.000000000E+00 -1.160767297E+00  1.160767297E+00  0.000000000E+00  0.00000E+00  9.000E+00
      21     1     1     2   511   515 -4.748386002E+00 -1.433664839E+01  5.740121017E+02  5.742107449E+02  7.629394531E-06  0.00000E+00  9.000E+00
      21     1     1     2   512   513  6.423791227E+00  6.070529682E+00  3.928068874E+01  4.026274869E+01  4.768371582E-07  0.00000E+00  9.000E+00
      21     1     1     2   513   514 -1.675405225E+00  8.266118703E+00  3.060671448E+01  3.174754593E+01  9.536743164E-07  0.00000E+00  9.000E+00
</event>
<event>
      5  10001  3.52971E+09  4.70002E+00 -1.00000E+00  2.47982E-01
       2    -1     0     0   512     0  0.000000000E+00  0.000000000E+00  1.077308445E+03  1.077308445E+03  0.000000000E+00  0.00000E+00  9.000E+00
      21    -1     0     0   513   516  0.000000000E+00  0.000000000E+00 -2.783114733E-01  2.783114733E-01  0.000000000E+00  0.00000E+00  9.000E+00
      -1     1     1     2     0   516  5.501564731E+00 -5.094848353E+00  6.464132589E+01  6.507560685E+01  3.300000131E-01  0.00000E+00  9.000E+00
       2     1     1     2   513     0 -9.219692737E+00  3.821923496E+00  8.958009004E+02  8.958565576E+02  3.300000131E-01  0.00000E+00  9.000E+00
       1     1     1     2   512     0  3.718128007E+00  1.272924857E+00  1.165879074E+02  1.166545922E+02  3.300000131E-01  0.00000E+00  9.000E+00
</event>
<event>
      5  10001  3.52971E+09  4.04024E+00 -1.00000E+00  2.62442E-01
      21    -1     0     0   515   513  0.000000000E+00  0.000000000E+00  1.162920822E+00  1.162920822E+00  0.000000000E+00  0.00000E+00  9.000E+00
      -2    -1     0     0     0   511  0.000000000E+00  0.000000000E+00 -4.496673014E+02  4.496673014E+02  0.000000000E+00  0.00000E+00  9.000E+00
      -2     1     1     2     0   513  1.102785178E+01  7.323064345E-02 -3.946097756E+02  3.947639837E+02  3.300000131E-01  0.00000E+00  9.000E+00
      21     1     1     2   514   511 -1.034399592E+01  3.908489481E+00 -4.422779868E+01  4.558917326E+01  1.784161275E-06  0.00000E+00  9.000E+00
      21     1     1     2   515   514 -6.838558556E-01 -3.981720124E+00 -9.666806286E+00  1.047706532E+01  4.768371582E-07  0.00000E+00  9.000E+00
</event>
<event>
      5  10001  3.52971E+09  9.92478E+00 -1.00000E+00  1.96132E-01
      21    -1     0     0   514   513  0.000000000E+00  0.000000000E+00  1.249458667E+01  1.249458667E+01  0.000000000E+00  0.00000E+00  9.000E+00
       2    -1     0     0   513     0  0.000000000E+00  0.000000000E+00 -3.272700221E+02  3.272700221E+02  0.000000000E+00  0.00000E+00  9.000E+00
      -5     1     1     2     0   512  4.440826193E+00  4.010106072E+00  5.510796216E+00  9.445145036E+00  4.800000191E+00  0.00000E+00  9.000E+00
       2     1     1     2   512     0 -1.576912680E+01 -2.011774702E+00 -3.170409471E+02  3.174394173E+02  3.300000131E-01  0.00000E+00  9.000E+00
       5     1     1     2   514     0  1.132830061E+01 -1.998331370E+00 -3.245284519E+00  1.288004644E+01  4.800000191E+00  0.00000E+00  9.000E+00
</event>
<event>
      5  10001  3.52971E+09  8.65805E+00 -1.00000E+00  2.03276E-01
       2    -1     0     0   512     0  0.000000000E+00  0.000000000E+00  1.274652713E+02  1.274652713E+02  0.000000000E+00  0.00000E+00  9.000E+00
       1    -1     0     0   511     0  0.000000000E+00  0.000000000E+00 -2.845080718E+02  2.845080718E+02  0.000000000E+00  0.00000E+00  9.000E+00
      21     1     1     2   512   514  5.194656075E+00  3.894990739E+00  6.332429267E+00  9.069457813E+00  5.462855929E-07  0.00000E+00  9.000E+00
       2     1     1     2   511     0 -1.377843549E+01 -5.026519543E+00  1.192484317E+02  1.201474450E+02  3.300000131E-01  0.00000E+00  9.000E+00
       1     1     1     2   514     0  8.583779411E+00  1.131528804E+00 -2.826236614E+02  2.827564403E+02  3.300000131E-01  0.00000E+00  9.000E+00
</event>
<event>
      5  10001  3.52971E+09  1.36761E+01 -1.00000E+00  1.81245E-01
      21    -1     0     0   515   511  0.000000000E+00  0.000000000E+00  4.308864768E+02  4.308864768E+02  0.000000000E+00  0.00000E+00  9.000E+00
      21    -1     0     0   513   515  0.000000000E+00  0.000000000E+00 -9.189098314E-01  9.189098314E-01  0.000000000E+00  0.00000E+00  9.000E+00
      21     1     1     2   512   511 -2.418155698E+00 -1.270410057E+01  8.174274444E+01  8.275939775E+01  1.651812370E-06  0.00000E+00  9.000E+00
       5     1     1     2   513     0  8.455599515E+00  1.200915481E+01  1.879100502E+02  1.885442758E+02  4.800000191E+00  0.00000E+00  9.000E+00
      -5     1     1     2     0   512 -6.037443817E+00  6.949457623E-01  1.603147723E+02  1.605017131E+02  4.800000191E+00  0.00000E+00  9.000E+00
</event>
<event>
      5  10001  3.52971E+09  1.09768E+01 -1.00000E+00  1.91187E-01
      21    -1     0     0   513   511  0.000000000E+00  0.000000000E+00  1.444195392E+03  1.444195392E+03  0.000000000E+00  0.00000E+00  9.000E+00
       2    -1     0     0   511     0  0.000000000E+00  0.000000000E+00 -4.837690758E+02  4.837690758E+02  0.000000000E+00  0.00000E+00  9.000E+00
       1     1     1     2   513     0 -7.186157619E+00  1.206542950E+01  1.366286706E+03  1.366358916E+03  3.300000131E-01  0.00000E+00  9.000E+00
       2     1     1     2   514     0 -3.231876055E+00 -1.145831421E+01 -4.833093072E+02  4.834560303E+02  3.300000131E-01  0.00000E+00  9.000E+00
      -1     1     1     2     0   514  1.041803367E+01 -6.071152871E-01  7.744891798E+01  7.814952214E+01  3.300000131E-01  0.00000E+00  9.000E+00
</event>
<event>
      5  10001  3.52971E+09  9.43174E+00 -1.00000E+00  1.98736E-01
      21    -1     0     0   512   514  0.000000000E+00  0.000000000E+00  1.179756214E+02  1.179756214E+02  0.000000000E+00  0.00000E+00  9.000E+00
       2    -1     0     0   511     0  0.000000000E+00  0.000000000E+00 -1.409271814E+03  1.409271814E+03  0.000000000E+00  0.00000E+00  9.000E+00
      21     1     1     2   512   515 -6.990603428E+00 -3.798511821E-01 -7.855980234E+02  7.856292174E+02  0.000000000E+00  0.00000E+00  9.000E+00
      21     1     1     2   511   514  1.642234040E+01  3.734980959E-01  1.173522417E+02  1.184963350E+02  4.672030912E-06  0.00000E+00  9.000E+00
       2     1     1     2   515     0 -9.431736973E+00  6.353086169E-03 -6.230504114E+02  6.231218835E+02  3.300000131E-01  0.00000E+00  9.000E+00
</event>
<event>
      5  10001  3.52971E+09  4.11366E+00 -1.00000E+00  2.60627E-01
      21    -1     0     0   513   511  0.000000000E+00  0.000000000E+00  3.979117418E+02  3.979117418E+02  0.000000000E+00  0.00000E+00  9.000E+00
      21    -1     0     0   514   512  0.000000000E+00  0.000000000E+00 -3.642810345E+00  3.642810345E+00  0.000000000E+00  0.00000E+00  9.000E+00
      21     1     1     2   514   511  1.507343133E+01  2.971856450E+00  3.708442296E+02  3.711623403E+02  5.394796609E-06  0.00000E+00  9.000E+00
       4     1     1     2   513     0 -1.099242929E+01 -2.508559949E+00  2.340177633E+01  2.601959858E+01  1.500000000E+00  0.00000E+00  9.000E+00
      -4     1     1     2     0   512 -4.081002043E+00 -4.632965015E-01  2.292558239E-02  4.372613281E+00  1.500000000E+00  0.00000E+00  9.000E+00
</event>
<event>
      5  10001  3.52971E+09  1.50768E+01 -1.00000E+00  1.77171E-01
      21    -1     0     0   515   511  0.000000000E+00  0.000000000E+00  3.963298068E+00  3.963298068E+00  0.000000000E+00  0.00000E+00  9.000E+00
      21    -1     0     0   516   515  0.000000000E+00  0.000000000E+00 -3.185821159E+01  3.185821159E+01  0.000000000E+00  0.00000E+00  9.000E+00
      21     1     1     2   516   512  2.500565519E+00  6.460170282E+00 -1.516222578E+01  1.666972461E+01  1.685873940E-07  0.00000E+00  9.000E+00
      21     1     1     2   512   513  1.808700400E+00 -4.300656203E+00 -1.348869288E+01  1.427276696E+01  1.685873940E-07  0.00000E+00  9.000E+00
      21     1     1     2   513   511 -4.309265919E+00 -2.159514080E+00  7.560051345E-01  4.879018097E+00  1.837138534E-07  0.00000E+00  9.000E+00
</event>
<event>
      5  10001  3.52971E+09  1.14212E+01 -1.00000E+00  1.89310E-01
      21    -1     0     0   513   511  0.000000000E+00  0.000000000E+00  6.890209413E-01  6.890209413E-01  0.000000000E+00  0.00000E+00  9.000E+00
       2    -1     0     0   512     0  0.000000000E+00  0.000000000E+00 -1.241656117E+03  1.241656117E+03  0.000000000E+00  0.00000E+00  9.000E+00
      21     1     1     2   514   511 -2.158542313E+00  4.135389140E+00 -2.361570886E+01  2.407202636E+01  1.305872339E-06  0.00000E+00  9.000E+00
       2     1     1     2   513     0 -4.870955116E+00 -9.588994024E+00 -1.172418215E+03  1.172467592E+03  3.300000131E-01  0.00000E+00  9.000E+00
      21     1     1     2   512   514  7.029497429E+00  5.453604884E+00 -4.493317176E+01  4.580551893E+01  2.236564522E-06  0.00000E+00  9.000E+00
</event>
<event>
      5  10001  3.52971E+09  1.53570E+01 -1.00000E+00  1.76423E-01
      21    -1     0     0   513   512  0.000000000E+00  0.000000000E+00  2.300613714E+02  2.300613714E+02  0.000000000E+00  0.00000E+00  9.000E+00
      21    -1     0     0   511   514  0.000000000E+00  0.000000000E+00 -8.083441056E+01  8.083441056E+01  0.000000000E+00  0.00000E+00  9.000E+00
      21     1     1     2   515   514 -1.396756312E+01 -2.133696856E+01  4.874712423E+00  2.596385696E+01  4.129530925E-07  0.00000E+00  9.000E+00
      21     1     1     2   511   512  4.684175366E+00  9.103596246E+00 -6.964040467E+01  7.038894036E+01  9.536743164E-07  0.00000E+00  9.000E+00
      21     1     1     2   513   515  9.283387750E+00  1.223337232E+01  2.139926531E+02  2.145429846E+02  4.672030912E-06  0.00000E+00  9.000E+00
</event>
<event>
      5  10001  3.52971E+09  1.70567E+01 -1.00000E+00  1.72279E-01
       1    -1     0     0   511     0  0.000000000E+00  0.000000000E+00  4.726246300E+01  4.726246300E+01  0.000000000E+00  0.00000E+00  9.000E+00
      21    -1     0     0   513   516  0.000000000E+00  0.000000000E+00 -1.571448214E+02  1.571448214E+02  0.000000000E+00  0.00000E+00  9.000E+00
      21     1     1     2   512   516 -1.384411049E+01 -1.561456463E+01 -1.143685383E+02  1.162567701E+02  2.336015456E-06  0.00000E+00  9.000E+00
       1     1     1     2   513     0  6.897154076E+00  9.142236064E+00  4.505323279E+01  4.648713692E+01  3.300000131E-01  0.00000E+00  9.000E+00
      21     1     1     2   511   512  6.946956414E+00  6.472328569E+00 -4.056705281E+01  4.166337737E+01  4.768371582E-07  0.00000E+00  9.000E+00
</event>
<event>
      5  10001  3.52971E+09  6.33059E+00 -1.00000E+00  2.21908E-01
      21    -1     0     0   516   513  0.000000000E+00  0.000000000E+00  9.053004186E+02  9.053004186E+02  0.000000000E+00  0.00000E+00  9.000E+00
      21    -1     0     0   515   512  0.000000000E+00  0.000000000E+00 -1.573346669E+02  1.573346669E+02  0.000000000E+00  0.00000E+00  9.000E+00
      21     1     1     2   514   512 -6.345014092E+00  1.182751136E+01 -1.110540293E+02  1.118621770E+02  1.348699152E-06  0.00000E+00  9.000E+00
      21     1     1     2   515   513  7.833296857E-02 -1.272475695E+01 -4.498286950E+01  4.674809220E+01  4.768371582E-07  0.00000E+00  9.000E+00
      21     1     1     2   516   514  6.266681123E+00  8.972455871E-01  9.040026505E+02  9.040248163E+02  1.525878906E-05  0.00000E+00  9.000E+00
</event>
<event>
      5  10001  3.52971E+09  3.67905E+00 -1.00000E+00  2.72324E-01
      21    -1     0     0   512   513  0.000000000E+00  0.000000000E+00  3.442364228E+00  3.442364228E+00  0.000000000E+00  0.00000E+00  9.000E+00
       1    -1     0     0   515     0  0.000000000E+00  0.000000000E+00 -1.269787145E+02  1.269787145E+02  0.000000000E+00  0.00000E+00  9.000E+00
      21     1     1     2   515   513 -1.913039099E+00 -1.444092786E+01 -3.028205172E+01  3.360361249E+01  5.840038640E-07  0.00000E+00  9.000E+00
       1     1     1     2   511     0 -1.479549517E+00  1.301832300E+01 -9.200278583E+01  9.293162703E+01  3.300000131E-01  0.00000E+00  9.000E+00
      21     1     1     2   512   511  3.392588617E+00  1.422604859E+00 -1.251512680E+00  3.885839175E+00  1.173318606E-07  0.00000E+00  9.000E+00
</event>
<event>
      5  10001  3.52971E+09  5.31349E+00 -1.00000E+00  2.33986E-01
      -3    -1     0     0     0   514  0.000000000E+00  0.000000000E+00  9.208858876E+00  9.208858876E+00  0.000000000E+00  0.00000E+00  9.000E+00
      21    -1     0     0   514   513  0.000000000E+00  0.000000000E+00 -6.250539297E+01  6.250539297E+01  0.000000000E+00  0.00000E+00  9.000E+00
      -3     1     1     2     0   515 -3.015081566E+00 -8.354135094E+00  3.837692087E+00  9.688145878E+00  5.000000000E-01  0.00000E+00  9.000E+00
      21     1     1     2   515   512 -6.209244840E-01  1.222773815E+01 -1.413664093E+01  1.870154390E+01  1.685873940E-07  0.00000E+00  9.000E+00
      21     1     1     2   512   513  3.636006050E+00 -3.873603060E+00 -4.299758525E+01  4.332456206E+01  6.743495762E-07  0.00000E+00  9.000E+00
</event>
<event>
      5  10001  3.52971E+09  8.70823E+00 -1.00000E+00  2.02963E-01
      21    -1     0     0   512   513  0.000000000E+00  0.000000000E+00  2.302672328E+01  2.302672328E+01  0.000000000E+00  0.00000E+00  9.000E+00
      -2    -1     0     0     0   511  0.000000000E+00  0.000000000E+00 -4.187611451E+01  4.187611451E+01  0.000000000E+00  0.00000E+00  9.000E+00
      -2     1     1     2     0   514  4.704798288E+00 -5.604974277E+00 -1.423415723E+01  1.600846637E+01  3.300000131E-01  0.00000E+00  9.000E+00
      21     1     1     2   512   511 -5.401264282E+00  9.454785724E+00  2.064093355E+01  2.333698281E+01  3.371747881E-07  0.00000E+00  9.000E+00
      21     1     1     2   514   513  6.964659939E-01 -3.849811447E+00 -2.525616755E+01  2.555738861E+01  4.768371582E-07  0.00000E+00  9.000E+00
</event>
<event>
      5  10001  3.52971E+09  2.75760E+00 -1.00000E+00  3.08420E-01
      21    -1     0     0   515   516  0.000000000E+00  0.000000000E+00  2.414178862E+01  2.414178862E+01  0.000000000E+00  0.00000E+00  9.000E+00
       2    -1     0     0   514     0  0.000000000E+00  0.000000000E+00 -5.057077579E+02  5.057077579E+02  0.000000000E+00  0.00000E+00  9.000E+00
      21     1     1     2   515   513 -9.453743308E+00  9.681646428E+00 -6.522406168E+01  6.661295491E+01  1.651812370E-06  0.00000E+00  9.000E+00
      21     1     1     2   514   516  1.164837988E+01 -8.011956831E+00  2.131141756E+01  2.557445453E+01  0.000000000E+00  0.00000E+00  9.000E+00
       2     1     1     2   513     0 -2.194636574E+00 -1.669689598E+00 -4.376533252E+02  4.376621371E+02  3.300000131E-01  0.00000E+00  9.000E+00
</event>
<event>
      5  10001  3.52971E+09  3.92654E+00 -1.00000E+00  2.65373E-01
      21    -1     0     0   511   514  0.000000000E+00  0.000000000E+00  7.686843089E+00  7.686843089E+00  0.000000000E+00  0.00000E+00  9.000E+00
       4    -1     0     0   513     0  0.000000000E+00  0.000000000E+00 -4.424736627E+01  4.424736627E+01  0.000000000E+00  0.00000E+00  9.000E+00
      21     1     1     2   513   512 -9.426671225E+00  7.743989887E+00 -1.408842788E+01  1.863639745E+01  0.000000000E+00  0.00000E+00  9.000E+00
       4     1     1     2   511     0  7.641831445E+00 -4.256911513E+00 -2.633859053E+01  2.779370854E+01  1.500000000E+00  0.00000E+00  9.000E+00
      21     1     1     2   512   514  1.784839780E+00 -3.487078374E+00  3.866495224E+00  5.504103373E+00  0.000000000E+00  0.00000E+00  9.000E+00
</event>
<event>
      5  10001  3.52971E+09  9.02162E+00 -1.00000E+00  2.01067E-01
      21    -1     0     0   515   513  0.000000000E+00  0.000000000E+00  7.619983452E+02  7.619983452E+02  0.000000000E+00  0.00000E+00  9.000E+00
      21    -1     0     0   512   514  0.000000000E+00  0.000000000E+00 -7.066807150E+00  7.066807150E+00  0.000000000E+00  0.00000E+00  9.000E+00
      21     1     1     2   515   514  1.276060572E+01 -1.745523899E+00  7.552021248E+02  7.553119417E+02  1.078959322E-05  0.00000E+00  9.000E+00
      -2     1     1     2     0   513 -4.679973263E+00  3.841196503E-01  2.188721044E+00  5.191252013E+00  3.300000131E-01  0.00000E+00  9.000E+00
       2     1     1     2   512     0 -8.080632456E+00  1.361404248E+00 -2.459307755E+00  8.561958716E+00  3.300000131E-01  0.00000E+00  9.000E+00
</event>
<event>
      5  10001  3.52971E+09  1.32528E+01 -1.00000E+00  1.82601E-01
      21    -1     0     0   511   512  0.000000000E+00  0.000000000E+00  5.027808429E+00  5.027808429E+00  0.000000000E+00  0.00000E+00  9.000E+00
       2    -1     0     0   513     0  0.000000000E+00  0.000000000E+00 -1.727546995E+02  1.727546995E+02  0.000000000E+00  0.00000E+00  9.000E+00
      21     1     1     2   514   512 -1.687181083E+00 -7.525386172E+00 -5.206435053E+00  9.305105212E+00  3.209808354E-07  0.00000E+00  9.000E+00
       2     1     1     2   511     0  1.414478026E+01  1.815843681E+01 -1.304629238E+02  1.324782511E+02  3.300000131E-01  0.00000E+00  9.000E+00
      21     1     1     2   513   514 -1.245759918E+01 -1.063305063E+01 -3.205753219E+01  3.599915156E+01  4.768371582E-07  0.00000E+00  9.000E+00
</event>
<event>
      5  10001  3.52971E+09  6.89864E+00 -1.00000E+00  2.16447E-01
      21    -1     0     0   515   514  0.000000000E+00  0.000000000E+00  5.351903301E+01  5.351903301E+01  0.000000000E+00  0.00000E+00  9.000E+00
      21    -1     0     0   513   515  0.000000000E+00  0.000000000E+00 -2.589680214E+01  2.589680214E+01  0.000000000E+00  0.00000E+00  9.000E+00
      21     1     1     2   516   514 -2.743949007E+00 -1.519541339E+01  4.957348106E+01  5.192263349E+01  6.743495762E-07  0.00000E+00  9.000E+00
      21     1     1     2   511   516  1.685877793E+00  3.810081677E+00 -1.056358353E+01  1.135553624E+01  2.064765462E-07  0.00000E+00  9.000E+00
      21     1     1     2   513   511  1.058071213E+00  1.138533172E+01 -1.138766666E+01  1.613766541E+01  3.371747881E-07  0.00000E+00  9.000E+00
</event>
<event>
      5  10001  3.52971E+09  6.20759E+00 -1.00000E+00  2.23196E-01
      21    -1     0     0   512   511  0.000000000E+00  0.000000000E+00  2.502723849E+02  2.502723849E+02  0.000000000E+00  0.00000E+00  9.000E+00
      21    -1     0     0   513   514  0.000000000E+00  0.000000000E+00 -1.649551368E+01  1.649551368E+01  0.000000000E+00  0.00000E+00  9.000E+00
      21     1     1     2   513   517  1.312833488E+01 -3.198052859E+00  9.911648894E-01  1.354854703E+01  4.204134935E-07  0.00000E+00  9.000E+00
      21     1     1     2   517   511 -1.028418410E+01 -2.319639358E+00  2.419341092E+02  2.421637015E+02  2.697398305E-06  0.00000E+00  9.000E+00
      21     1     1     2   512   514 -2.844150780E+00  5.517692216E+00 -9.148402873E+00  1.105564997E+01  2.920019320E-07  0.00000E+00  9.000E+00
</event>
<event>
      5  10001  3.52971E+09  4.05636E+00 -1.00000E+00  2.62038E-01
       1    -1     0     0   513     0  0.000000000E+00  0.000000000E+00  2.946877362E+02  2.946877362E+02  0.000000000E+00  0.00000E+00  9.000E+00
      -2    -1     0     0     0   514  0.000000000E+00  0.000000000E+00 -5.511239065E+00  5.511239065E+00  0.000000000E+00  0.00000E+00  9.000E+00
      -2     1     1     2     0   511 -2.109058958E+00  1.233259107E+01  8.945388221E+00  1.538407627E+01  3.300000131E-01  0.00000E+00  9.000E+00
      21     1     1     2   513   514 -8.605060553E-01 -9.569576261E+00  7.860507947E+00  1.241389728E+01  4.042583694E-07  0.00000E+00  9.000E+00
       1     1     1     2   511     0  2.969565013E+00 -2.763014805E+00  2.723706010E+02  2.724010018E+02  3.300000131E-01  0.00000E+00  9.000E+00
</event>
<event>
      5  10001  3.52971E+09  1.11848E+01 -1.00000E+00  1.90294E-01
      21    -1     0     0   512   516  0.000000000E+00  0.000000000E+00  4.095913374E+01  4.095913374E+01  0.000000000E+00  0.00000E+00  9.000E+00
      21    -1     0     0   513   515  0.000000000E+00  0.000000000E+00 -1.933753710E+01  1.933753710E+01  0.000000000E+00  0.00000E+00  9.000E+00
      21     1     1     2   512   515  2.237585610E+00 -9.830700992E+00  2.152783497E+01  2.377177212E+01  3.371747881E-07  0.00000E+00  9.000E+00
      21     1     1     2   511   516 -1.484897793E+00  2.099018334E+01  8.333455151E+00  2.263270185E+01  5.196212463E-07  0.00000E+00  9.000E+00
      21     1     1     2   513   511 -7.526878168E-01 -1.115948235E+01 -8.239693474E+00  1.389219687E+01  4.129530925E-07  0.00000E+00  9.000E+00
</event>
<event>
      5  10001  3.52971E+09  4.94519E+00 -1.00000E+00  2.43490E-01
      21    -1     0     0   514   511  0.000000000E+00  0.000000000E+00  6.649373453E+01  6.649373453E+01  0.000000000E+00  0.00000E+00  9.000E+00
      21    -1     0     0   513   517  0.000000000E+00  0.000000000E+00 -4.979685789E+00  4.979685789E+00  0.000000000E+00  0.00000E+00  9.000E+00
      21     1     1     2   514   517  3.270629069E+00  1.343736395E+01  5.097983575E+01  5.282237611E+01  9.536743164E-07  0.00000E+00  9.000E+00
      21     1     1     2   513   512  9.363365885E-01 -9.563269938E+00  5.775539169E+00  1.121114226E+01  0.000000000E+00  0.00000E+00  9.000E+00
      21     1     1     2   512   511 -4.206965658E+00 -3.874094015E+00  4.758673819E+00  7.439901948E+00  1.576990671E-07  0.00000E+00  9.000E+00
</event>
<event>
      5  10001  3.52971E+09  1.02815E+01 -1.00000E+00  1.94369E-01
      21    -1     0     0   515   513  0.000000000E+00  0.000000000E+00  2.516131294E+02  2.516131294E+02  0.000000000E+00  0.00000E+00  9.000E+00
      21    -1     0     0   514   511  0.000000000E+00  0.000000000E+00 -7.711667580E+00  7.711667580E+00  0.000000000E+00  0.00000E+00  9.000E+00
      21     1     1     2   515   511 -1.281542152E+01 -1.366264079E+01  2.125059034E+02  2.133299364E+02  3.814697266E-06  0.00000E+00  9.000E+00
      21     1     1     2   516   513  2.743820618E+00  1.572949322E+01  3.192975118E+01  3.569950306E+01  1.215700987E-06  0.00000E+00  9.000E+00
      21     1     1     2   514   516  1.007160090E+01 -2.066852428E+00 -5.341928057E-01  1.029535748E+01  4.074043964E-07  0.00000E+00  9.000E+00
</event>
<event>
      5  10001  3.52971E+09  9.50294E+00 -1.00000E+00  1.98347E-01
      21    -1     0     0   512   514  0.000000000E+00  0.000000000E+00  2.885936869E+01  2.885936869E+01  0.000000000E+00  0.00000E+00  9.000E+00
      -2    -1     0     0     0   512  0.000000000E+00  0.000000000E+00 -9.339686408E+00  9.339686408E+00  0.000000000E+00  0.00000E+00  9.000E+00
      21     1     1     2   511   513  5.288766750E+00 -1.808081876E+00  1.410275224E+00  5.764467887E+00  1.154238983E-07  0.00000E+00  9.000E+00
      21     1     1     2   513   514 -8.278537787E+00  7.436286823E+00  2.221508455E+01  2.484637863E+01  0.000000000E+00  0.00000E+00  9.000E+00
      -2     1     1     2     0   511  2.989771037E+00 -5.628204947E+00 -4.105677491E+00  7.588208580E+00  3.300000131E-01  0.00000E+00  9.000E+00
</event>
<event>
      5  10001  3.52971E+09  1.46392E+01 -1.00000E+00  1.78382E-01
      21    -1     0     0   515   513  0.000000000E+00  0.000000000E+00  6.411253293E+00  6.411253293E+00  0.000000000E+00  0.00000E+00  9.000E+00
      21    -1     0     0   516   511  0.000000000E+00  0.000000000E+00 -3.588485789E+02  3.588485789E+02  0.000000000E+00  0.00000E+00  9.000E+00
      21     1     1     2   515   511  7.515009842E+00 -7.427608058E+00  1.209616441E+00  1.063522009E+01  9.771344847E-08  0.00000E+00  9.000E+00
      21     1     1     2   512   513 -1.513151699E+01  1.000719677E+01 -2.607155258E+02  2.613459243E+02  3.814697266E-06  0.00000E+00  9.000E+00
      21     1     1     2   516   512  7.616507150E+00 -2.579588712E+00 -9.293141625E+01  9.327868774E+01  0.000000000E+00  0.00000E+00  9.000E+00
</event>
<event>
      5  10001  3.52971E+09  1.48605E+01 -1.00000E+00  1.77763E-01
      21    -1     0     0   514   513  0.000000000E+00  0.000000000E+00  8.901393777E+00  8.901393777E+00  0.000000000E+00  0.00000E+00  9.000E+00
      21    -1     0     0   516   514  0.000000000E+00  0.000000000E+00 -5.008353062E+01  5.008353062E+01  0.000000000E+00  0.00000E+00  9.000E+00
      21     1     1     2   512   513  1.177902824E+01  9.708842915E+00 -2.817979059E+01  3.204852157E+01  3.371747881E-07  0.00000E+00  9.000E+00
      21     1     1     2   511   512 -6.392487682E+00 -2.740893174E+00  3.829312240E+00  7.939774959E+00  4.878850443E-07  0.00000E+00  9.000E+00
      21     1     1     2   516   511 -5.386540558E+00 -6.967949742E+00 -1.683165848E+01  1.899662786E+01  3.371747881E-07  0.00000E+00  9.000E+00
</event>
<event>
      5  10001  3.52971E+09  9.71049E+00 -1.00000E+00  1.97239E-01
      21    -1     0     0   512   511  0.000000000E+00  0.000000000E+00  8.769785689E+01  8.769785689E+01  0.000000000E+00  0.00000E+00  9.000E+00
      -2    -1     0     0     0   515  0.000000000E+00  0.000000000E+00 -8.877151901E+00  8.877151901E+00  0.000000000E+00  0.00000E+00  9.000E+00
      -2     1     1     2     0   511  1.014798739E+01 -6.094646705E+00 -3.792168088E+00  1.243446040E+01  3.300000131E-01  0.00000E+00  9.000E+00
      21     1     1     2   512   513 -2.491512234E+00  7.672082500E+00  4.607391844E+01  4.677472013E+01  0.000000000E+00  0.00000E+00  9.000E+00
      21     1     1     2   513   515 -7.656475160E+00 -1.577435795E+00  3.653895464E+01  3.736582826E+01  0.000000000E+00  0.00000E+00  9.000E+00
</event>
<event>
      5  10001  3.52971E+09  2.34684E+00 -1.00000E+00  3.33476E-01
       2    -1     0     0   513     0  0.000000000E+00  0.000000000E+00  1.337604662E+02  1.337604662E+02  0.000000000E+00  0.00000E+00  9.000E+00
      -3    -1     0     0     0   513  0.000000000E+00  0.000000000E+00 -2.712554289E+00  2.712554289E+00  0.000000000E+00  0.00000E+00  9.000E+00
      -3     1     1     2     0   511  6.078468841E+00  9.652383544E+00  1.583758816E+01  1.952422829E+01  5.000000000E-01  0.00000E+00  9.000E+00
       2     1     1     2   514     0 -7.307225293E+00 -9.994358897E+00  1.149892607E+02  1.156543199E+02  3.300000131E-01  0.00000E+00  9.000E+00
      21     1     1     2   511   514  1.228756452E+00  3.419753533E-01  2.210630858E-01  1.294472266E+00  3.725290298E-08  0.00000E+00  9.000E+00
</event>
<event>
      5  10001  3.52971E+09  4.18398E+00 -1.00000E+00  2.58944E-01
      21    -1     0     0   512   514  0.000000000E+00  0.000000000E+00  4.911868264E+00  4.911868264E+00  0.000000000E+00  0.00000E+00  9.000E+00
      21    -1     0     0   514   513  0.000000000E+00  0.000000000E+00 -6.193155433E+01  6.193155433E+01  0.000000000E+00  0.00000E+00  9.000E+00
      -2     1     1     2     0   513 -1.273997997E+01  8.919956192E+00 -4.142753219E+01  4.425180258E+01  3.300000131E-01  0.00000E+00  9.000E+00
       2     1     1     2   515     0  7.874573865E+00 -6.621209229E+00 -1.310284858E+01  1.666261883E+01  3.300000131E-01  0.00000E+00  9.000E+00
      21     1     1     2   512   515  4.865406109E+00 -2.298746963E+00 -2.489305292E+00  5.929001184E+00  2.043144286E-07  0.00000E+00  9.000E+00
</event>
<event>
      5  10001  3.52971E+09  4.10647E+00 -1.00000E+00  2.60802E-01
      21    -1     0     0   511   513  0.000000000E+00  0.000000000E+00  5.157048480E+01  5.157048480E+01  0.000000000E+00  0.00000E+00  9.000E+00
      21    -1     0     0   514   516  0.000000000E+00  0.000000000E+00 -8.223366060E+00  8.223366060E+00  0.000000000E+00  0.00000E+00  9.000E+00
      21     1     1     2   511   516 -1.223505245E+01 -1.538053791E+01  1.570466719E+01  2.515738513E+01  3.769728732E-07  0.00000E+00  9.000E+00
      21     1     1     2   514   517  1.145882539E+01  1.005566094E+01  2.260430195E+01  2.726491267E+01  3.371747881E-07  0.00000E+00  9.000E+00
      21     1     1     2   517   513  7.762270651E-01  5.324876969E+00  5.038149605E+00  7.371553069E+00  1.032382731E-07  0.00000E+00  9.000E+00
</event>
<event>
      5  10001  3.52971E+09  4.97452E+00 -1.00000E+00  2.42979E-01
      21    -1     0     0   512   513  0.000000000E+00  0.000000000E+00  3.751448073E+01  3.751448073E+01  0.000000000E+00  0.00000E+00  9.000E+00
       2    -1     0     0   514     0  0.000000000E+00  0.000000000E+00 -2.408000897E+01  2.408000897E+01  0.000000000E+00  0.00000E+00  9.000E+00
       3     1     1     2   514     0  3.418674293E+00 -8.874037921E+00  1.791295031E+01  2.028693353E+01  5.000000000E-01  0.00000E+00  9.000E+00
       2     1     1     2   512     0 -1.267585839E+00  1.540122079E+01 -1.943970839E+01  2.483577134E+01  3.300000131E-01  0.00000E+00  9.000E+00
      -3     1     1     2     0   513 -2.151088454E+00 -6.527182868E+00  1.496122983E+01  1.647178484E+01  5.000000000E-01  0.00000E+00  9.000E+00
</event>
<event>
      5  10001  3.52971E+09  5.65570E+00 -1.00000E+00  2.29526E-01
       2    -1     0     0   511     0  0.000000000E+00  0.000000000E+00  1.015781728E+01  1.015781728E+01  0.000000000E+00  0.00000E+00  9.000E+00
      -3    -1     0     0     0   512  0.000000000E+00  0.000000000E+00 -5.210782231E+01  5.210782231E+01  0.000000000E+00  0.00000E+00  9.000E+00
      -3     1     1     2     0   513 -8.393220823E-01 -1.358757451E+01 -2.196015232E+01  2.584230896E+01  5.000000000E-01  0.00000E+00  9.000E+00
       2     1     1     2   513     0 -1.836451544E+00  8.606454423E+00  5.454180855E+00  1.035860033E+01  3.300000131E-01  0.00000E+00  9.000E+00
      21     1     1     2   511   512  2.675773626E+00  4.981120082E+00 -2.544403357E+01  2.606473031E+01  4.768371582E-07  0.00000E+00  9.000E+00
</event>
<event>
      5  10001  3.52971E+09  1.03504E+01 -1.00000E+00  1.94040E-01
      21    -1     0     0   514   512  0.000000000E+00  0.000000000E+00  6.635695101E+00  6.635695101E+00  0.000000000E+00  0.00000E+00  9.000E+00
      21    -1     0     0   516   515  0.000000000E+00  0.000000000E+00 -8.193658134E+01  8.193658134E+01  0.000000000E+00  0.00000E+00  9.000E+00
      21     1     1     2   514   515 -5.539980999E+00 -1.261121623E+01 -5.588505835E+01  5.755757040E+01  6.743495762E-07  0.00000E+00  9.000E+00
      21     1     1     2   513   512  1.090992403E+01  1.112567319E+01 -6.379427079E+00  1.683758107E+01  2.665600750E-07  0.00000E+00  9.000E+00
      21     1     1     2   516   513 -5.369943035E+00  1.485543046E+00 -1.303640082E+01  1.417712498E+01  2.384185791E-07  0.00000E+00  9.000E+00
</event>
<event>
      5  10001  3.52971E+09  6.83838E+00 -1.00000E+00  2.16992E-01
      21    -1     0     0   511   512  0.000000000E+00  0.000000000E+00  4.789655335E-01  4.789655335E-01  0.000000000E+00  0.00000E+00  9.000E+00
       1    -1     0     0   513     0  0.000000000E+00  0.000000000E+00 -2.566040582E+02  2.566040582E+02  0.000000000E+00  0.00000E+00  9.000E+00
      21     1     1     2   513   514 -3.959461879E+00 -2.812986540E+00 -5.616649588E+01  5.637610744E+01  6.743495762E-07  0.00000E+00  9.000E+00
       1     1     1     2   511     0  3.546267667E+00  9.622196654E+00 -1.356646892E+02  1.360521205E+02  3.300000131E-01  0.00000E+00  9.000E+00
      21     1     1     2   514   512  4.131942121E-01 -6.809210114E+00 -6.429390755E+01  6.465479580E+01  1.651812370E-06  0.00000E+00  9.000E+00
</event>
<event>
      5  10001  3.52971E+09  4.28048E+00 -1.00000E+00  2.56715E-01
       2    -1     0     0   515     0  0.000000000E+00  0.000000000E+00  1.559921242E+03  1.559921242E+03  0.000000000E+00  0.00000E+00  9.000E+00
      21    -1     0     0   512   511  0.000000000E+00  0.000000000E+00 -6.971650860E+00  6.971650860E+00  0.000000000E+00  0.00000E+00  9.000E+00
      -5     1     1     2     0   511  2.323230726E+01  6.804715353E+00  3.371845177E+01  4.178538313E+01  4.800000191E+00  0.00000E+00  9.000E+00
       5     1     1     2   515     0 -2.749605183E+01 -7.067391692E+00  6.767947873E+01  7.354952573E+01  4.800000191E+00  0.00000E+00  9.000E+00
       2     1     1     2   512     0  4.263744569E+00  2.626763388E-01  1.451551661E+03  1.451557984E+03  3.300000131E-01  0.00000E+00  9.000E+00
</event>
<event>
      5  10001  3.52971E+09  1.27086E+01 -1.00000E+00  1.84442E-01
      21    -1     0     0   513   514  0.000000000E+00  0.000000000E+00  8.268059205E+01  8.268059205E+01  0.000000000E+00  0.00000E+00  9.000E+00
       3    -1     0     0   511     0  0.000000000E+00  0.000000000E+00 -2.437980640E+02  2.437980640E+02  0.000000000E+00  0.00000E+00  9.000E+00
      21     1     1     2   513   512  8.948400800E+00 -1.092672582E+01  8.054486882E+01  8.177373116E+01  3.015782986E-06  0.00000E+00  9.000E+00
       3     1     1     2   512     0 -1.656590511E+01  7.541969209E-01 -2.089978011E+02  2.096552620E+02  5.000000000E-01  0.00000E+00  9.000E+00
      21     1     1     2   511   514  7.617504307E+00  1.017252890E+01 -3.266453964E+01  3.504966285E+01  4.768371582E-07  0.00000E+00  9.000E+00
</event>
<event>
      5  10001  3.52971E+09  3.74745E+00 -1.00000E+00  2.70319E-01
      21    -1     0     0   511   513  0.000000000E+00  0.000000000E+00  5.181415924E+00  5.181415924E+00  0.000000000E+00  0.00000E+00  9.000E+00
       1    -1     0     0   512     0  0.000000000E+00  0.000000000E+00 -4.068110262E+01  4.068110262E+01  0.000000000E+00  0.00000E+00  9.000E+00
      21     1     1     2   512   514 -1.195774854E+01 -5.849159514E+00 -1.396839460E+01  1.929550375E+01  1.685873940E-07  0.00000E+00  9.000E+00
       1     1     1     2   511     0  8.229564133E+00  6.222379948E+00 -2.002462967E+01  2.252861361E+01  3.300000131E-01  0.00000E+00  9.000E+00
      21     1     1     2   514   513  3.728184407E+00 -3.732204338E-01 -1.506662433E+00  4.038401187E+00  6.322027277E-08  0.00000E+00  9.000E+00
</event>
<event>
      5  10001  3.52971E+09  4.63455E+00 -1.00000E+00  2.49252E-01
      21    -1     0     0   515   512  0.000000000E+00  0.000000000E+00  1.454869568E+03  1.454869568E+03  0.000000000E+00  0.00000E+00  9.000E+00
       1    -1     0     0   513     0  0.000000000E+00  0.000000000E+00 -6.631356924E+00  6.631356924E+00  0.000000000E+00  0.00000E+00  9.000E+00
      21     1     1     2   516   512 -1.625308910E+01 -2.607561582E+00  1.175131551E+03  1.175246835E+03  2.642899792E-05  0.00000E+00  9.000E+00
      21     1     1     2   513   516  1.194282080E+01  4.310649844E+00  2.786963892E+02  2.789854656E+02  1.206313194E-05  0.00000E+00  9.000E+00
       1     1     1     2   515     0  4.310268300E+00 -1.703088262E+00 -5.589729024E+00  7.268623873E+00  3.300000131E-01  0.00000E+00  9.000E+00
</event>
<event>
      5  10001  3.52971E+09  2.15629E+00 -1.00000E+00  3.48466E-01
      -2    -1     0     0     0   511  0.000000000E+00  0.000000000E+00  1.403181658E+02  1.403181658E+02  0.000000000E+00  0.00000E+00  9.000E+00
       3    -1     0     0   511     0  0.000000000E+00  0.000000000E+00 -1.966486945E+00  1.966486945E+00  0.000000000E+00  0.00000E+00  9.000E+00
      -2     1     1     2     0   512  2.504936564E+00  7.485489791E+00  9.150315817E+01  9.184358508E+01  3.300000131E-01  0.00000E+00  9.000E+00
       3     1     1     2   514     0 -5.211083411E+00 -9.044479002E+00  1.413377042E+01  1.757758393E+01  5.000000000E-01  0.00000E+00  9.000E+00
      21     1     1     2   512   514  2.706146847E+00  1.558989211E+00  3.271475024E+01  3.286348371E+01  6.743495762E-07  0.00000E+00  9.000E+00
</event>
<event>
      5  10001  3.52971E+09  5.19839E+00 -1.00000E+00  2.35594E-01
      21    -1     0     0   513   515  0.000000000E+00  0.000000000E+00  3.732298078E+01  3.732298078E+01  0.000000000E+00  0.00000E+00  9.000E+00
      -2    -1     0     0     0   513  0.000000000E+00  0.000000000E+00 -3.314771466E+02  3.314771466E+02  0.000000000E+00  0.00000E+00  9.000E+00
      21     1     1     2   514   515  3.019725023E+00  1.332844383E+01  3.512087514E+01  3.768609856E+01  6.743495762E-07  0.00000E+00  9.000E+00
      21     1     1     2   511   514 -3.519109324E+00 -8.154109390E+00 -2.107319703E+01  2.286817141E+01  3.371747881E-07  0.00000E+00  9.000E+00
      -2     1     1     2     0   511  4.993843010E-01 -5.174334443E+00 -3.082018439E+02  3.082458574E+02  3.300000131E-01  0.00000E+00  9.000E+00
</event>
<event>
      5  10001  3.52971E+09  1.37852E+01 -1.00000E+00  1.80906E-01
       2    -1     0     0   513     0  0.000000000E+00  0.000000000E+00  7.865642752E+02  7.865642752E+02  0.000000000E+00  0.00000E+00  9.000E+00
      21    -1     0     0   511   513  0.000000000E+00  0.000000000E+00 -4.776628925E-01  4.776628925E-01  0.000000000E+00  0.00000E+00  9.000E+00
      21     1     1     2   514   512  5.309778750E+00  8.041890039E-01  8.421075713E+01  8.438182320E+01  1.348699152E-06  0.00000E+00  9.000E+00
       2     1     1     2   512     0 -1.034624817E+01 -8.946326079E-01  6.842423082E+02  6.843211895E+02  3.300000131E-01  0.00000E+00  9.000E+00
      21     1     1     2   511   514  5.036469416E+00  9.044360404E-02  1.763354703E+01  1.833892541E+01  1.066240300E-06  0.00000E+00  9.000E+00
</event>
<event>
      5  10001  3.52971E+09  1.02307E+01 -1.00000E+00  1.94615E-01
       1    -1     0     0   513     0  0.000000000E+00  0.000000000E+00  1.471961737E+02  1.471961737E+02  0.000000000E+00  0.00000E+00  9.000E+00
       2    -1     0     0   511     0  0.000000000E+00  0.000000000E+00 -9.680578465E+01  9.680578465E+01  0.000000000E+00  0.00000E+00  9.000E+00
       1     1     1     2   512     0  4.661117244E+00  6.431560191E+00  1.423182741E+02  1.425401383E+02  3.300000131E-01  0.00000E+00  9.000E+00
       2     1     1     2   513     0 -1.412604146E+00 -1.289043791E+01 -9.321937030E+01  9.411757933E+01  3.300000131E-01  0.00000E+00  9.000E+00
      21     1     1     2   511   512 -3.248513097E+00  6.458877715E+00  1.291485321E+00  7.344240806E+00  1.618680431E-07  0.00000E+00  9.000E+00
</event>
<event>
      5  10001  3.52971E+09  6.18979E+00 -1.00000E+00  2.23386E-01
      21    -1     0     0   514   515  0.000000000E+00  0.000000000E+00  1.201511301E+02  1.201511301E+02  0.000000000E+00  0.00000E+00  9.000E+00
      21    -1     0     0   511   513  0.000000000E+00  0.000000000E+00 -3.472231477E+00  3.472231477E+00  0.000000000E+00  0.00000E+00  9.000E+00
      21     1     1     2   514   512 -1.110725537E+01 -1.308014663E+01  4.316458958E+01  4.645043758E+01  1.066240300E-06  0.00000E+00  9.000E+00
      21     1     1     2   511   515  5.048000041E+00  1.181566687E+01  6.686567691E+01  6.808899350E+01  0.000000000E+00  0.00000E+00  9.000E+00
      21     1     1     2   512   513  6.059255326E+00  1.264479756E+00  6.648632180E+00  9.083930538E+00  2.384185791E-07  0.00000E+00  9.000E+00
</event>
<event>
      5  10001  3.52971E+09  4.04282E+00 -1.00000E+00  2.62377E-01
      21    -1     0     0   516   511  0.000000000E+00  0.000000000E+00  4.479666861E+02  4.479666861E+02  0.000000000E+00  0.00000E+00  9.000E+00
      21    -1     0     0   514   517  0.000000000E+00  0.000000000E+00 -6.885884293E+00  6.885884293E+00  0.000000000E+00  0.00000E+00  9.000E+00
      21     1     1     2   516   517  1.426576501E+01  3.165002340E+00  1.469024448E+02  1.476274283E+02  2.697398305E-06  0.00000E+00  9.000E+00
      21     1     1     2   512   511 -1.028849155E+01 -2.439939381E+00  2.999731468E+02  3.001594496E+02  5.394796609E-06  0.00000E+00  9.000E+00
      21     1     1     2   514   512 -3.977273461E+00 -7.250629592E-01 -5.794789871E+00  7.065692473E+00  3.475518164E-07  0.00000E+00  9.000E+00
</event>
<event>
      5  10001  3.52971E+09  7.31405E+00 -1.00000E+00  2.12889E-01
      21    -1     0     0   513   511  0.000000000E+00  0.000000000E+00  2.363292455E+02  2.363292455E+02  0.000000000E+00  0.00000E+00  9.000E+00
      21    -1     0     0   514   513  0.000000000E+00  0.000000000E+00 -6.077199032E+00  6.077199032E+00  0.000000000E+00  0.00000E+00  9.000E+00
      21     1     1     2   512   511 -2.793784937E+00  9.731541735E+00  2.261140757E+02  2.263406357E+02  2.697398305E-06  0.00000E+00  9.000E+00
      21     1     1     2   514   515  6.234369116E+00 -4.139371657E+00 -1.231383888E+00  7.584066341E+00  7.402743309E-07  0.00000E+00  9.000E+00
      21     1     1     2   515   512 -3.440584178E+00 -5.592170078E+00  5.369354560E+00  8.481742396E+00  2.064765462E-07  0.00000E+00  9.000E+00
</event>
<event>
      5  10001  3.52971E+09  2.32892E+01 -1.00000E+00  1.61089E-01
      21    -1     0     0   514   511  0.000000000E+00  0.000000000E+00  3.407245459E+02  3.407245459E+02  0.000000000E+00  0.00000E+00  9.000E+00
       1    -1     0     0   511     0  0.000000000E+00  0.000000000E+00 -4.316657716E+00  4.316657716E+00  0.000000000E+00  0.00000E+00  9.000E+00
      21     1     1     2   514   513 -1.656087944E+01 -1.402071235E+01  2.319026967E+02  2.329156582E+02  2.697398305E-06  0.00000E+00  9.000E+00
       1     1     1     2   515     0  3.025906814E+00  1.328571510E+01  1.065201400E+01  1.729857336E+01  3.300000131E-01  0.00000E+00  9.000E+00
      21     1     1     2   513   515  1.353497263E+01  7.349972477E-01  9.385317750E+01  9.482697207E+01  1.348699152E-06  0.00000E+00  9.000E+00
</event>
<event>
      5  10001  3.52971E+09  4.98126E+01 -1.00000E+00  1.39166E-01
      21    -1     0     0   513   511  0.000000000E+00  0.000000000E+00  7.943123365E+01  7.943123365E+01  0.000000000E+00  0.00000E+00  9.000E+00
       5    -1     0     0   511     0  0.000000000E+00  0.000000000E+00 -3.763791643E+01  3.763791643E+01  0.000000000E+00  0.00000E+00  9.000E+00
      21     1     1     2   513   512  3.983670510E+01  1.818512507E+01  3.316177453E+01  5.493054831E+01  1.168007728E-06  0.00000E+00  9.000E+00
      21     1     1     2   512   514 -2.156613402E+01 -6.626906625E+00  2.568552475E+01  3.418713514E+01  8.920806376E-07  0.00000E+00  9.000E+00
       5     1     1     2   514     0 -1.827057109E+01 -1.155821844E+01 -1.705398206E+01  2.795146664E+01  4.800000191E+00  0.00000E+00  9.000E+00
</event>
<event>
      5  10001  3.52971E+09  2.17200E+01 -1.00000E+00  1.63463E-01
      21    -1     0     0   515   512  0.000000000E+00  0.000000000E+00  1.101894225E+01  1.101894225E+01  0.000000000E+00  0.00000E+00  9.000E+00
      21    -1     0     0   511   515  0.000000000E+00  0.000000000E+00 -2.082121149E+01  2.082121149E+01  0.000000000E+00  0.00000E+00  9.000E+00
      21     1     1     2   511   516  3.952373111E+00  1.636289420E+00 -5.557517125E+00  7.013179940E+00  1.192092896E-07  0.00000E+00  9.000E+00
      21     1     1     2   516   513 -1.155760536E+00 -1.199044873E+01  2.298547526E+00  1.226335859E+01  2.779775576E-07  0.00000E+00  9.000E+00
      21     1     1     2   513   512 -2.796612575E+00  1.035415931E+01 -6.543299640E+00  1.256361521E+01  1.884864366E-07  0.00000E+00  9.000E+00
</event>
<event>
      5  10001  3.52971E+09  4.55473E+00 -1.00000E+00  2.50844E-01
      21    -1     0     0   514   511  0.000000000E+00  0.000000000E+00  4.952036389E+02  4.952036389E+02  0.000000000E+00  0.00000E+00  9.000E+00
      21    -1     0     0   512   515  0.000000000E+00  0.000000000E+00 -1.590359742E+00  1.590359742E+00  0.000000000E+00  0.00000E+00  9.000E+00
      21     1     1     2   517   511  6.600103830E+00 -1.040759292E+01  2.848723179E+02  2.851387677E+02  5.394796609E-06  0.00000E+00  9.000E+00
      21     1     1     2   512   517 -9.916207281E+00  7.285253832E+00  2.059419227E+02  2.063091893E+02  4.672030912E-06  0.00000E+00  9.000E+00
      21     1     1     2   514   515  3.316103452E+00  3.122339085E+00  2.799038587E+00  5.346041571E+00  3.874301910E-07  0.00000E+00  9.000E+00
</event>
<event>
      5  10001  3.52971E+09  4.12833E+00 -1.00000E+00  2.60272E-01
       1    -1     0     0   515     0  0.000000000E+00  0.000000000E+00  2.897473946E+01  2.897473946E+01  0.000000000E+00  0.00000E+00  9.000E+00
      21    -1     0     0   514   515  0.000000000E+00  0.000000000E+00 -9.097022828E+00  9.097022828E+00  0.000000000E+00  0.00000E+00  9.000E+00
      21     1     1     2   514   511  8.066961471E+00  7.593876304E+00  3.171818961E+00  1.152402969E+01  1.032382731E-07  0.00000E+00  9.000E+00
       1     1     1     2   513     0 -1.169032109E+01 -7.591917751E+00  1.793888821E+01  2.272033081E+01  3.300000131E-01  0.00000E+00  9.000E+00
      21     1     1     2   511   513  3.623359616E+00 -1.958553077E-03 -1.232990540E+00  3.827401783E+00  8.429369702E-08  0.00000E+00  9.000E+00
</event>
<event>
      5  10001  3.52971E+09  7.58385E+00 -1.00000E+00  2.10746E-01
       2    -1     0     0   512     0  0.000000000E+00  0.000000000E+00  4.120975501E+02  4.120975501E+02  0.000000000E+00  0.00000E+00  9.000E+00
      21    -1     0     0   516   512  0.000000000E+00  0.000000000E+00 -4.816814838E+00  4.816814838E+00  0.000000000E+00  0.00000E+00  9.000E+00
      21     1     1     2   513   514  1.549152632E+01  5.786353424E-01  3.914137370E+01  4.209951712E+01  4.768371582E-07  0.00000E+00  9.000E+00
      21     1     1     2   516   513 -1.168650503E+01 -7.138724236E+00  1.092094766E+01  1.751578948E+01  1.192092896E-07  0.00000E+00  9.000E+00
       2     1     1     2   514     0 -3.805021291E+00  6.560088894E+00  3.572184139E+02  3.572990583E+02  3.300000131E-01  0.00000E+00  9.000E+00
</event>
<event>
      5  10001  3.52971E+09  1.11890E+01 -1.00000E+00  1.90277E-01
      21    -1     0     0   511   514  0.000000000E+00  0.000000000E+00  2.727102807E+01  2.727102807E+01  0.000000000E+00  0.00000E+00  9.000E+00
      21    -1     0     0   515   512  0.000000000E+00  0.000000000E+00 -5.944208185E+01  5.944208185E+01  0.000000000E+00  0.00000E+00  9.000E+00
      21     1     1     2   515   517 -1.966305885E-01  1.287451194E+01 -2.281342026E+01  2.619625670E+01  4.768371582E-07  0.00000E+00  9.000E+00
      21     1     1     2   517   514  8.963408944E+00 -5.922059860E+00  2.348232388E+01  2.582311034E+01  0.000000000E+00  0.00000E+00  9.000E+00
      21     1     1     2   511   512 -8.766778356E+00 -6.952452081E+00 -3.283995740E+01  3.469374288E+01  4.768371582E-07  0.00000E+00  9.000E+00
</event>
<event>
      5  10001  3.52971E+09  2.47809E+01 -1.00000E+00  1.59035E-01
      21    -1     0     0   513   512  0.000000000E+00  0.000000000E+00  3.514439933E+02  3.514439933E+02  0.000000000E+00  0.00000E+00  9.000E+00
      21    -1     0     0   515   516  0.000000000E+00  0.000000000E+00 -5.078343833E-01  5.078343833E-01  0.000000000E+00  0.00000E+00  9.000E+00
      21     1     1     2   513   516  1.321391420E+00 -9.817547467E-01  2.285226530E+01  2.291148068E+01  3.371747881E-07  0.00000E+00  9.000E+00
      21     1     1     2   514   512 -3.994845002E-01  2.725104297E+00  3.515344165E+00  4.465806298E+00  2.384185791E-07  0.00000E+00  9.000E+00
      21     1     1     2   515   514 -9.219069195E-01 -1.743349550E+00  3.245685494E+02  3.245745407E+02  0.000000000E+00  0.00000E+00  9.000E+00
</event>
<event>
      5  10001  3.52971E+09  1.70077E+01 -1.00000E+00  1.72390E-01
      21    -1     0     0   514   512  0.000000000E+00  0.000000000E+00  3.751639697E+01  3.751639697E+01  0.000000000E+00  0.00000E+00  9.000E+00
       2    -1     0     0   512     0  0.000000000E+00  0.000000000E+00 -2.432919386E+02  2.432919386E+02  0.000000000E+00  0.00000E+00  9.000E+00
      21     1     1     2   514   511 -2.535786651E+01 -7.335345433E+00  3.196880009E+01  4.145880927E+01  1.685873940E-06  0.00000E+00  9.000E+00
      21     1     1     2   511   513  1.860018215E+00  3.495301434E-01 -4.672541208E+01  4.676372497E+01  6.743495762E-07  0.00000E+00  9.000E+00
       2     1     1     2   513     0  2.349784830E+01  6.985815290E+00 -1.910189297E+02  1.925858014E+02  3.300000131E-01  0.00000E+00  9.000E+00
</event>
<event>
      5  10001  3.52971E+09  6.58224E+00 -1.00000E+00  2.19395E-01
      21    -1     0     0   515   511  0.000000000E+00  0.000000000E+00  1.314799606E+00  1.314799606E+00  0.000000000E+00  0.00000E+00  9.000E+00
      21    -1     0     0   512   515  0.000000000E+00  0.000000000E+00 -7.007348063E+02  7.007348063E+02  0.000000000E+00  0.00000E+00  9.000E+00
      21     1     1     2   512   516 -2.541791313E-01 -1.715053055E+01 -5.915028211E+02  5.917514619E+02  0.000000000E+00  0.00000E+00  9.000E+00
      21     1     1     2   516   514  3.763925310E+00  1.334596745E+01 -4.312513398E+01  4.529965962E+01  1.168007728E-06  0.00000E+00  9.000E+00
      21     1     1     2   514   511 -3.509746179E+00  3.804563106E+00 -6.479205164E+01  6.499848441E+01  9.536743164E-07  0.00000E+00  9.000E+00
</event>
<event>
      5  10001  3.52971E+09  4.81760E+00 -1.00000E+00  2.45777E-01
       3    -1     0     0   515     0  0.000000000E+00  0.000000000E+00  1.505850553E+02  1.505850553E+02  0.000000000E+00  0.00000E+00  9.000E+00
      21    -1     0     0   513   512  0.000000000E+00  0.000000000E+00 -4.548904024E+00  4.548904024E+00  0.000000000E+00  0.00000E+00  9.000E+00
      21     1     1     2   515   514 -9.573145337E+00 -2.041997572E+00  5.278532198E+01  5.368524082E+01  1.168007728E-06  0.00000E+00  9.000E+00
       3     1     1     2   513     0  1.036886630E+01  6.792814561E+00  9.537908681E+01  9.618251358E+01  5.000000000E-01  0.00000E+00  9.000E+00
      21     1     1     2   514   512 -7.957209614E-01 -4.750816989E+00 -2.128257535E+00  5.266204900E+00  1.397852826E-07  0.00000E+00  9.000E+00
</event>
<event>
      5  10001  3.52971E+09  7.53916E+00 -1.00000E+00  2.11092E-01
      21    -1     0     0   512   513  0.000000000E+00  0.000000000E+00  1.445508756E+00  1.445508756E+00  0.000000000E+00  0.00000E+00  9.000E+00
      -1    -1     0     0     0   511  0.000000000E+00  0.000000000E+00 -1.014727359E+02  1.014727359E+02  0.000000000E+00  0.00000E+00  9.000E+00
      -1     1     1     2     0   513 -7.729991842E+00  5.014085241E+00 -2.474378024E+01  2.640563170E+01  3.300000131E-01  0.00000E+00  9.000E+00
      21     1     1     2   515   511  5.929473927E+00 -1.236513649E+00 -6.658470139E+01  6.685962972E+01  9.536743164E-07  0.00000E+00  9.000E+00
      21     1     1     2   512   515  1.800517915E+00 -3.777571592E+00 -8.698745504E+00  9.652983230E+00  2.384185791E-07  0.00000E+00  9.000E+00
</event>
<event>
      5  10001  3.52971E+09  4.41469E+00 -1.00000E+00  2.53760E-01
      21    -1     0     0   514   511  0.000000000E+00  0.000000000E+00  3.349654214E+01  3.349654214E+01  0.000000000E+00  0.00000E+00  9.000E+00
      21    -1     0     0   516   514  0.000000000E+00  0.000000000E+00 -5.822960669E+00  5.822960669E+00  0.000000000E+00  0.00000E+00  9.000E+00
      21     1     1     2   515   511  8.139120878E+00  7.161278145E+00  2.531411745E+01  2.753786004E+01  3.371747881E-07  0.00000E+00  9.000E+00
      21     1     1     2   516   513 -2.212673572E+00 -3.103168710E+00 -8.653371729E-01  3.908246257E+00  3.650024150E-08  0.00000E+00  9.000E+00
      21     1     1     2   513   515 -5.926447306E+00 -4.058109435E+00  3.224801190E+00  7.873396508E+00  1.115100797E-07  0.00000E+00  9.000E+00
</event>
<event>
      5  10001  3.52971E+09  3.81756E+00 -1.00000E+00  2.68332E-01
      21    -1     0     0   511   513  0.000000000E+00  0.000000000E+00  3.031781454E+02  3.031781454E+02  0.000000000E+00  0.00000E+00  9.000E+00
      21    -1     0     0   517   512  0.000000000E+00  0.000000000E+00 -3.911266851E+02  3.911266851E+02  0.000000000E+00  0.00000E+00  9.000E+00
      21     1     1     2   516   513 -3.911748221E+00 -7.713191672E+00 -1.772734171E+01  1.972444534E+01  1.192092896E-06  0.00000E+00  9.000E+00
      21     1     1     2   517   516  2.612495637E+00  1.130285670E+01 -3.722983818E+02  3.724790797E+02  9.344061824E-06  0.00000E+00  9.000E+00
      21     1     1     2   511   512  1.299252584E+00 -3.589665032E+00  3.020771839E+02  3.021013055E+02  3.814697266E-06  0.00000E+00  9.000E+00
</event>
<event>
      5  10001  3.52971E+09  4.83455E+00 -1.00000E+00  2.45467E-01
       1    -1     0     0   514     0  0.000000000E+00  0.000000000E+00  1.408927406E+00  1.408927406E+00  0.000000000E+00  0.00000E+00  9.000E+00
      21    -1     0     0   511   512  0.000000000E+00  0.000000000E+00 -5.343719365E+02  5.343719365E+02  0.000000000E+00  0.00000E+00  9.000E+00
      21     1     1     2   514   512  1.378278985E+01  1.905144881E+00 -4.934621157E+02  4.936582366E+02  5.394796609E-06  0.00000E+00  9.000E+00
      21     1     1     2   511   513 -7.608945913E+00 -2.543049274E+00 -2.692164487E+01  2.809160230E+01  9.536743164E-07  0.00000E+00  9.000E+00
       1     1     1     2   513     0 -6.173843932E+00  6.379043928E-01 -1.257924855E+01  1.403102508E+01  3.300000131E-01  0.00000E+00  9.000E+00
</event>
<event>
      5  10001  3.52971E+09  1.48355E+00 -1.00000E+00  4.48443E-01
      21    -1     0     0   512   515  0.000000000E+00  0.000000000E+00  4.476804665E+02  4.476804665E+02  0.000000000E+00  0.00000E+00  9.000E+00
       2    -1     0     0   515     0  0.000000000E+00  0.000000000E+00 -1.145476749E+01  1.145476749E+01  0.000000000E+00  0.00000E+00  9.000E+00
      21     1     1     2   511   513 -1.035367156E+01 -4.039176302E+00 -6.762895853E-01  1.113421877E+01  2.606638623E-07  0.00000E+00  9.000E+00
       2     1     1     2   513     0  1.017078072E+01  2.566960986E+00 -5.853007721E-01  1.051121050E+01  3.300000131E-01  0.00000E+00  9.000E+00
      21     1     1     2   512   511  1.828908401E-01  1.472215316E+00  4.374872894E+02  4.374898047E+02  9.344061824E-06  0.00000E+00  9.000E+00
</event>
<event>
      5  10001  3.52971E+09  6.51324E+00 -1.00000E+00  2.20069E-01
      21    -1     0     0   514   513  0.000000000E+00  0.000000000E+00  3.251191423E+01  3.251191423E+01  0.000000000E+00  0.00000E+00  9.000E+00
      21    -1     0     0   515   511  0.000000000E+00  0.000000000E+00 -3.097259897E+01  3.097259897E+01  0.000000000E+00  0.00000E+00  9.000E+00
      21     1     1     2   514   511  6.196657249E+00  1.533478210E+01  2.732033279E+01  3.193672944E+01  4.768371582E-07  0.00000E+00  9.000E+00
      21     1     1     2   516   513 -4.729407010E+00 -1.181355090E+01 -1.292556291E+01  1.813828691E+01  4.460403188E-07  0.00000E+00  9.000E+00
      21     1     1     2   515   516 -1.467250238E+00 -3.521231202E+00 -1.285545462E+01  1.340949686E+01  1.685873940E-07  0.00000E+00  9.000E+00
</event>
<event>
      5  10001  3.52971E+09  9.78659E+00 -1.00000E+00  1.96842E-01
      21    -1     0     0   511   513  0.000000000E+00  0.000000000E+00  2.727038205E+02  2.727038205E+02  0.000000000E+00  0.00000E+00  9.000E+00
      21    -1     0     0   515   512  0.000000000E+00  0.000000000E+00 -5.209862167E+01  5.209862167E+01  0.000000000E+00  0.00000E+00  9.000E+00
      21     1     1     2   516   513  1.123316377E+01 -4.623641917E-02  2.546910710E+02  2.549386745E+02  3.814697266E-06  0.00000E+00  9.000E+00
      21     1     1     2   515   516 -8.327524845E+00 -9.299061000E+00 -4.980587151E+01  5.134632453E+01  1.348699152E-06  0.00000E+00  9.000E+00
      21     1     1     2   511   512 -2.905638924E+00  9.345297419E+00  1.571999929E+01  1.851744310E+01  0.000000000E+00  0.00000E+00  9.000E+00
</event>
<event>
      5  10001  3.52971E+09  1.82149E+01 -1.00000E+00  1.69787E-01
      21    -1     0     0   514   513  0.000000000E+00  0.000000000E+00  1.033645683E+01  1.033645683E+01  0.000000000E+00  0.00000E+00  9.000E+00
      21    -1     0     0   517   514  0.000000000E+00  0.000000000E+00 -2.470281367E+01  2.470281367E+01  0.000000000E+00  0.00000E+00  9.000E+00
      21     1     1     2   517   512  1.363946707E+01 -1.953530609E+00 -1.224216391E+01  1.843154690E+01  2.384185791E-07  0.00000E+00  9.000E+00
      21     1     1     2   515   513 -1.011121468E+00  3.220497556E+00 -1.983644560E+00  3.915203298E+00  6.989264130E-08  0.00000E+00  9.000E+00
      21     1     1     2   512   515 -1.262834561E+01 -1.266966946E+00 -1.405483708E-01  1.269252031E+01  2.435154765E-07  0.00000E+00  9.000E+00
</event>
<event>
      5  10001  3.52971E+09  8.08387E+00 -1.00000E+00  2.07075E-01
      21    -1     0     0   511   512  0.000000000E+00  0.000000000E+00  1.234675771E+01  1.234675771E+01  0.000000000E+00  0.00000E+00  9.000E+00
      21    -1     0     0   516   513  0.000000000E+00  0.000000000E+00 -5.370338348E+01  5.370338348E+01  0.000000000E+00  0.00000E+00  9.000E+00
      21     1     1     2   516   517  1.472492655E+01 -1.151926624E+00 -5.622417423E+00  1.580385948E+01  1.976862425E-07  0.00000E+00  9.000E+00
      21     1     1     2   517   512 -7.845322210E+00 -3.093062704E+00  4.256732422E+00  9.446474918E+00  1.884864366E-07  0.00000E+00  9.000E+00
      21     1     1     2   511   513 -6.879604341E+00  4.244989328E+00 -3.999094077E+01  4.079980679E+01  4.768371582E-07  0.00000E+00  9.000E+00
</event>
<event>
      5  10001  3.52971E+09  1.23152E+01 -1.00000E+00  1.85848E-01
      21    -1     0     0   512   513  0.000000000E+00  0.000000000E+00  3.088685767E+01  3.088685767E+01  0.000000000E+00  0.00000E+00  9.000E+00
      21    -1     0     0   516   515  0.000000000E+00  0.000000000E+00 -8.699343875E+01  8.699343875E+01  0.000000000E+00  0.00000E+00  9.000E+00
      21     1     1     2   514   515  1.426095351E+01  6.940644342E+00  2.369811339E+01  2.851574858E+01  4.768371582E-07  0.00000E+00  9.000E+00
      21     1     1     2   516   513 -1.247072145E+01  5.243732626E+00 -7.489458783E+01  7.610660229E+01  1.907348633E-06  0.00000E+00  9.000E+00
      21     1     1     2   512   514 -1.790232068E+00 -1.218437697E+01 -4.910106638E+00  1.325794555E+01  5.960464478E-08  0.00000E+00  9.000E+00
</event>
<event>
      5  10001  3.52971E+09  6.25776E+00 -1.00000E+00  2.22666E-01
       2    -1     0     0   515     0  0.000000000E+00  0.000000000E+00  3.131159737E+01  3.131159737E+01  0.000000000E+00  0.00000E+00  9.000E+00
      21    -1     0     0   511   513  0.000000000E+00  0.000000000E+00 -2.042662594E+01  2.042662594E+01  0.000000000E+00  0.00000E+00  9.000E+00
      21     1     1     2   515   512  5.313452494E+00 -5.868770393E+00  1.241017578E+01  1.472031611E+01  2.920019320E-07  0.00000E+00  9.000E+00
       2     1     1     2   511     0 -5.704191828E+00  1.211392067E+01  1.454498006E+01  1.977246124E+01  3.300000131E-01  0.00000E+00  9.000E+00
      21     1     1     2   512   513  3.907393343E-01 -6.245150281E+00 -1.607018441E+01  1.724544596E+01  2.384185791E-07  0.00000E+00  9.000E+00
</event>
<event>
      5  10001  3.52971E+09  9.20413E+00 -1.00000E+00  2.00010E-01
      21    -1     0     0   511   515  0.000000000E+00  0.000000000E+00  4.689068929E+00  4.689068929E+00  0.000000000E+00  0.00000E+00  9.000E+00
      21    -1     0     0   514   513  0.000000000E+00  0.000000000E+00 -1.517153029E+02  1.517153029E+02  0.000000000E+00  0.00000E+00  9.000E+00
      21     1     1     2   511   513  1.062227143E+01  1.339962470E+01 -1.602776620E+01  2.343655013E+01  2.384185791E-07  0.00000E+00  9.000E+00
       3     1     1     2   514     0 -1.439407162E+00 -1.282001236E+01 -5.995499415E+01  6.132924207E+01  5.000000000E-01  0.00000E+00  9.000E+00
      -3     1     1     2     0   515 -9.182864271E+00 -5.796123438E-01 -7.104347365E+01  7.163857966E+01  5.000000000E-01  0.00000E+00  9.000E+00
</event>
<event>
      5  10001  3.52971E+09  1.05261E+01 -1.00000E+00  1.93213E-01
      21    -1     0     0   512   513  0.000000000E+00  0.000000000E+00  6.985314216E+00  6.985314216E+00  0.000000000E+00  0.00000E+00  9.000E+00
      21    -1     0     0   515   512  0.000000000E+00  0.000000000E+00 -4.658869088E+02  4.658869088E+02  0.000000000E+00  0.00000E+00  9.000E+00
      21     1     1     2   515   516 -9.553869857E+00  1.633245442E+01 -4.499209075E+02  4.503186078E+02  5.394796609E-06  0.00000E+00  9.000E+00
      21     1     1     2   516   511  6.536918946E+00 -8.871428246E+00 -9.415000938E+00  1.449399155E+01  2.920019320E-07  0.00000E+00  9.000E+00
      21     1     1     2   511   513  3.016950911E+00 -7.461026177E+00  4.343139249E-01  8.059623626E+00  1.347299019E-07  0.00000E+00  9.000E+00
</event>
<event>
      5  10001  3.52971E+09  2.34061E+00 -1.00000E+00  3.33926E-01
       1    -1     0     0   514     0  0.000000000E+00  0.000000000E+00  1.075495720E+00  1.075495720E+00  0.000000000E+00  0.00000E+00  9.000E+00
      21    -1     0     0   515   512  0.000000000E+00  0.000000000E+00 -5.111315954E+02  5.111315954E+02  0.000000000E+00  0.00000E+00  9.000E+00
      21     1     1     2   514   512 -1.145783291E+01 -1.142697346E+01 -7.727343531E+01  7.894961344E+01  0.000000000E+00  0.00000E+00  9.000E+00
       1     1     1     2   511     0  1.071208880E+01  9.208535137E+00 -2.157548594E+02  2.162170534E+02  3.300000131E-01  0.00000E+00  9.000E+00
      21     1     1     2   515   511  7.457441052E-01  2.218438321E+00 -2.170278050E+02  2.170404243E+02  2.697398305E-06  0.00000E+00  9.000E+00
</event>
<event>
      5  10001  3.52971E+09  8.31646E+00 -1.00000E+00  2.05487E-01
       5    -1     0     0   513     0  0.000000000E+00  0.000000000E+00  8.077198165E+01  8.077198165E+01  0.000000000E+00  0.00000E+00  9.000E+00
      21    -1     0     0   515   516  0.000000000E+00  0.000000000E+00 -3.841696841E+01  3.841696841E+01  0.000000000E+00  0.00000E+00  9.000E+00
      21     1     1     2   513   516 -7.516964082E+00 -1.097625564E+01 -3.208353448E+01  3.473234979E+01  0.000000000E+00  0.00000E+00  9.000E+00
      21     1     1     2   515   511  3.716902619E-01  1.519551901E+01  7.711249277E+00  1.704421653E+01  6.583548198E-07  0.00000E+00  9.000E+00
       5     1     1     2   511     0  7.145273821E+00 -4.219263370E+00  6.672729845E+01  6.741238374E+01  4.800000191E+00  0.00000E+00  9.000E+00
</event>
<event>
      5  10001  3.52971E+09  5.46200E+00 -1.00000E+00  2.31994E-01
      -4    -1     0     0     0   511  0.000000000E+00  0.000000000E+00  6.310475114E+01  6.310475114E+01  0.000000000E+00  0.00000E+00  9.000E+00
       1    -1     0     0   513     0  0.000000000E+00  0.000000000E+00 -1.059740242E+02  1.059740242E+02  0.000000000E+00  0.00000E+00  9.000E+00
      -4     1     1     2     0   512  2.629684803E+00 -2.277407592E+01  5.783699768E+01  6.223296616E+01  1.500000000E+00  0.00000E+00  9.000E+00
       1     1     1     2   512     0 -3.633504665E+00  2.814253643E+01 -9.403718732E+01  9.822579199E+01  3.300000131E-01  0.00000E+00  9.000E+00
      21     1     1     2   513   511  1.003819862E+00 -5.368460513E+00 -6.669083382E+00  8.620017155E+00  1.460009660E-07  0.00000E+00  9.000E+00
</event>
<event>
      5  10001  3.52971E+09  9.21145E+00 -1.00000E+00  1.99968E-01
      21    -1     0     0   514   512  0.000000000E+00  0.000000000E+00  5.192557385E+00  5.192557385E+00  0.000000000E+00  0.00000E+00  9.000E+00
      21    -1     0     0   513   515  0.000000000E+00  0.000000000E+00 -2.632986117E+02  2.632986117E+02  0.000000000E+00  0.00000E+00  9.000E+00
      21     1     1     2   514   511 -7.665384315E+00 -2.174285968E+01 -9.653792427E+01  9.925261148E+01  1.348699152E-06  0.00000E+00  9.000E+00
      21     1     1     2   513   512  3.263803328E+00  1.365107853E+01 -9.630768508E+00  1.702222251E+01  6.637292341E-07  0.00000E+00  9.000E+00
      21     1     1     2   511   515  4.401580987E+00  8.091781146E+00 -1.519373615E+02  1.522163351E+02  1.907348633E-06  0.00000E+00  9.000E+00
</event>
<event>
      5  10001  3.52971E+09  4.82473E+00 -1.00000E+00  2.45647E-01
       3    -1     0     0   514     0  0.000000000E+00  0.000000000E+00  1.061243542E+00  1.061243542E+00  0.000000000E+00  0.00000E+00  9.000E+00
      21    -1     0     0   511   514  0.000000000E+00  0.000000000E+00 -2.260741069E+02  2.260741069E+02  0.000000000E+00  0.00000E+00  9.000E+00
      21     1     1     2   511   516  5.351300616E+00  9.426304912E+00 -1.895096730E+02  1.898194084E+02  2.697398305E-06  0.00000E+00  9.000E+00
       3     1     1     2   512     0 -3.229026096E+00 -2.250092259E+00 -1.088429013E+01  1.158478728E+01  5.000000000E-01  0.00000E+00  9.000E+00
      21     1     1     2   516   512 -2.122274520E+00 -7.176212653E+00 -2.461890020E+01  2.573115474E+01  4.768371582E-07  0.00000E+00  9.000E+00
</event>
<event>
      5  10001  3.52971E+09  2.43646E+00 -1.00000E+00  3.27273E-01
      21    -1     0     0   513   512  0.000000000E+00  0.000000000E+00  2.386273018E+01  2.386273018E+01  0.000000000E+00  0.00000E+00  9.000E+00
      21    -1     0     0   515   511  0.000000000E+00  0.000000000E+00 -1.046094337E+01  1.046094337E+01  0.000000000E+00  0.00000E+00  9.000E+00
      21     1     1     2   515   512 -1.227069792E+01 -5.696312440E+00 -3.274755633E-01  1.353237758E+01  2.193496987E-07  0.00000E+00  9.000E+00
       4     1     1     2   513     0  1.042789079E+01  7.232150442E+00  1.145332037E+01  1.716022884E+01  1.500000000E+00  0.00000E+00  9.000E+00
      -4     1     1     2     0   511  1.842807126E+00 -1.535838002E+00  2.275942007E+00  3.631067129E+00  1.500000000E+00  0.00000E+00  9.000E+00
</event>
<event>
      5  10001  3.52971E+09  1.34284E+01 -1.00000E+00  1.82031E-01
      21    -1     0     0   514   515  0.000000000E+00  0.000000000E+00  1.030613117E+02  1.030613117E+02  0.000000000E+00  0.00000E+00  9.000E+00
      21    -1     0     0   516   514  0.000000000E+00  0.000000000E+00 -1.725473845E+01  1.725473845E+01  0.000000000E+00  0.00000E+00  9.000E+00
      21     1     1     2   511   515  1.142112939E+01 -5.882541754E+00  8.995899949E+01  9.087171223E+01  1.651812370E-06  0.00000E+00  9.000E+00
      21     1     1     2   516   512 -9.524129243E+00 -3.537955112E+00 -1.291983811E+01  1.643619119E+01  2.384185791E-07  0.00000E+00  9.000E+00
      21     1     1     2   512   511 -1.897000148E+00  9.420496866E+00  8.767411910E+00  1.300814677E+01  1.685873940E-07  0.00000E+00  9.000E+00
</event>
<event>
      5  10001  3.52971E+09  1.07113E+01 -1.00000E+00  1.92365E-01
      21    -1     0     0   512   513  0.000000000E+00  0.000000000E+00  2.338897644E+02  2.338897644E+02  0.000000000E+00  0.00000E+00  9.000E+00
       1    -1     0     0   515     0  0.000000000E+00  0.000000000E+00 -3.059313084E+01  3.059313084E+01  0.000000000E+00  0.00000E+00  9.000E+00
      21     1     1     2   514   513  6.637144929E+00 -1.235302735E+00  1.952095177E+02  1.953262232E+02  0.000000000E+00  0.00000E+00  9.000E+00
       1     1     1     2   512     0 -1.345284204E+01  9.657804881E+00 -2.741924597E+01  3.203398357E+01  3.300000131E-01  0.00000E+00  9.000E+00
      21     1     1     2   515   514  6.815697114E+00 -8.422502146E+00  3.550636188E+01  3.712268852E+01  4.768371582E-07  0.00000E+00  9.000E+00
</event>
<event>
      5  10001  3.52971E+09  6.95508E+00 -1.00000E+00  2.15944E-01
      21    -1     0     0   511   515  0.000000000E+00  0.000000000E+00  4.503788045E+02  4.503788045E+02  0.000000000E+00  0.00000E+00  9.000E+00
      21    -1     0     0   513   514  0.000000000E+00  0.000000000E+00 -4.030010419E+01  4.030010419E+01  0.000000000E+00  0.00000E+00  9.000E+00
      21     1     1     2   511   514  7.487403498E+00 -7.973193883E+00 -3.902974778E+01  4.053337197E+01  2.523185073E-06  0.00000E+00  9.000E+00
      21     1     1     2   513   512 -6.233231911E+00  1.803961622E+00  4.295471942E+02  4.295962051E+02  0.000000000E+00  0.00000E+00  9.000E+00
      21     1     1     2   512   515 -1.254171587E+00  6.169232261E+00  1.956125390E+01  2.054933155E+01  2.384185791E-07  0.00000E+00  9.000E+00
</event>
<event>
      5  10001  3.52971E+09  5.97815E+00 -1.00000E+00  2.25712E-01
      21    -1     0     0   512   513  0.000000000E+00  0.000000000E+00  3.803424249E+01  3.803424249E+01  0.000000000E+00  0.00000E+00  9.000E+00
       2    -1     0     0   515     0  0.000000000E+00  0.000000000E+00 -2.180201075E+02  2.180201075E+02  0.000000000E+00  0.00000E+00  9.000E+00
      21     1     1     2   515   513  1.021832119E+01  1.122866059E+01  3.614509532E+01  3.920414292E+01  1.430511475E-06  0.00000E+00  9.000E+00
      21     1     1     2   512   511 -5.891977026E+00 -1.174153469E+01 -1.494545211E+02  1.500307732E+02  0.000000000E+00  0.00000E+00  9.000E+00
       2     1     1     2   511     0 -4.326344168E+00  5.128740987E-01 -6.667643921E+01  6.681943385E+01  3.300000131E-01  0.00000E+00  9.000E+00
</event>
<event>
      5  10001  3.52971E+09  1.14072E+01 -1.00000E+00  1.89367E-01
      21    -1     0     0   514   515  0.000000000E+00  0.000000000E+00  2.010298479E+00  2.010298479E+00  0.000000000E+00  0.00000E+00  9.000E+00
      21    -1     0     0   513   516  0.000000000E+00  0.000000000E+00 -1.016879064E+02  1.016879064E+02  0.000000000E+00  0.00000E+00  9.000E+00
      21     1     1     2   514   516  1.014505018E+01 -5.599400669E+00 -4.098545688E+01  4.259205332E+01  6.743495762E-07  0.00000E+00  9.000E+00
      21     1     1     2   513   512 -5.041441513E+00  5.269529206E+00 -5.281176641E+01  5.331291346E+01  6.743495762E-07  0.00000E+00  9.000E+00
      21     1     1     2   512   515 -5.103608663E+00  3.298714628E-01 -5.880384652E+00  7.793238109E+00  1.884864366E-07  0.00000E+00  9.000E+00
</event>
<event>
      5  10001  3.52971E+09  5.80681E+00 -1.00000E+00  2.27696E-01
      21    -1     0     0   511   512  0.000000000E+00  0.000000000E+00  1.344192965E-01  1.344192965E-01  0.000000000E+00  0.00000E+00  9.000E+00
       2    -1     0     0   513     0  0.000000000E+00  0.000000000E+00 -2.193480976E+03  2.193480976E+03  0.000000000E+00  0.00000E+00  9.000E+00
      21     1     1     2   514   512 -8.186484407E+00 -9.322229086E+00 -8.111048535E+02  8.111997324E+02  1.525878906E-05  0.00000E+00  9.000E+00
       2     1     1     2   511     0  1.376198231E+01  8.256495797E+00 -9.326851968E+02  9.328233204E+02  3.300000131E-01  0.00000E+00  9.000E+00
      21     1     1     2   513   514 -5.575497898E+00  1.065733289E+00 -4.495565060E+02  4.495923421E+02  5.394796609E-06  0.00000E+00  9.000E+00
</event>
<event>
      5  10001  3.52971E+09  2.03018E+00 -1.00000E+00  3.60047E-01
       1    -1     0     0   514     0  0.000000000E+00  0.000000000E+00  2.577612764E+01  2.577612764E+01  0.000000000E+00  0.00000E+00  9.000E+00
       3    -1     0     0   511     0  0.000000000E+00  0.000000000E+00 -1.115433857E+02  1.115433857E+02  0.000000000E+00  0.00000E+00  9.000E+00
       1     1     1     2   513     0  1.201657194E+01 -9.299883442E+00  2.274544351E+01  2.735598534E+01  3.300000131E-01  0.00000E+00  9.000E+00
       3     1     1     2   514     0 -1.002207159E+01  8.921271865E+00 -1.053708063E+02  1.062228216E+02  5.000000000E-01  0.00000E+00  9.000E+00
      21     1     1     2   511   513 -1.994500357E+00  3.786115772E-01 -3.141895275E+00  3.740706393E+00  4.214684851E-08  0.00000E+00  9.000E+00
</event>
<event>
      5  10001  3.52971E+09  4.45581E+00 -1.00000E+00  2.52887E-01
      -1    -1     0     0     0   512  0.000000000E+00  0.000000000E+00  2.073253095E+02  2.073253095E+02  0.000000000E+00  0.00000E+00  9.000E+00
      21    -1     0     0   512   513  0.000000000E+00  0.000000000E+00 -2.334665479E+00  2.334665479E+00  0.000000000E+00  0.00000E+00  9.000E+00
      -1     1     1     2     0   514  4.839322779E+00  7.596489532E+00  1.543235631E+02  1.545865347E+02  3.300000131E-01  0.00000E+00  9.000E+00
      21     1     1     2   511   513 -7.566617093E+00 -1.190136362E+01  2.329863054E+01  2.723457978E+01  6.743495762E-07  0.00000E+00  9.000E+00
      21     1     1     2   514   511  2.727294314E+00  4.304874092E+00  2.736845037E+01  2.783886044E+01  3.371747881E-07  0.00000E+00  9.000E+00
</event>
<event>
      5  10001  3.52971E+09  1.64755E+01 -1.00000E+00  1.73625E-01
      21    -1     0     0   515   511  0.000000000E+00  0.000000000E+00  1.270988985E+01  1.270988985E+01  0.000000000E+00  0.00000E+00  9.000E+00
      21    -1     0     0   512   516  0.000000000E+00  0.000000000E+00 -2.183450672E+02  2.183450672E+02  0.000000000E+00  0.00000E+00  9.000E+00
      21     1     1     2   515   516  1.414152829E+01  5.661378853E+00  6.914618024E+00  1.672859753E+01  3.475518164E-07  0.00000E+00  9.000E+00
      -4     1     1     2     0   511 -9.695835335E+00  6.707181643E+00 -1.454667931E+02  1.459514762E+02  1.500000000E+00  0.00000E+00  9.000E+00
       4     1     1     2   512     0 -4.445692958E+00 -1.236856050E+01 -6.708300223E+01  6.837488327E+01  1.500000000E+00  0.00000E+00  9.000E+00
</event>
<event>
      5  10001  3.52971E+09  3.85103E+00 -1.00000E+00  2.67407E-01
      21    -1     0     0   513   511  0.000000000E+00  0.000000000E+00  1.448074461E+00  1.448074461E+00  0.000000000E+00  0.00000E+00  9.000E+00
      21    -1     0     0   511   514  0.000000000E+00  0.000000000E+00 -2.323536893E+02  2.323536893E+02  0.000000000E+00  0.00000E+00  9.000E+00
      -5     1     1     2     0   515 -9.737801705E+00  9.563373988E+00 -1.370147864E+02  1.377765386E+02  4.800000191E+00  0.00000E+00  9.000E+00
       5     1     1     2   513     0  1.316579334E+01 -8.889317626E+00 -7.499842413E+01  7.681251009E+01  4.800000191E+00  0.00000E+00  9.000E+00
      21     1     1     2   515   514 -3.427991634E+00 -6.740563623E-01 -1.889240440E+01  1.921271513E+01  0.000000000E+00  0.00000E+00  9.000E+00
</event>
<event>
      5  10001  3.52971E+09  4.86503E+00 -1.00000E+00  2.44915E-01
      21    -1     0     0   515   511  0.000000000E+00  0.000000000E+00  1.986257504E+01  1.986257504E+01  0.000000000E+00  0.00000E+00  9.000E+00
       2    -1     0     0   511     0  0.000000000E+00  0.000000000E+00 -9.205289953E+00  9.205289953E+00  0.000000000E+00  0.00000E+00  9.000E+00
      21     1     1     2   513   512  4.922706684E+00 -4.834792418E+00  9.425226457E+00  1.168088835E+01  1.685873940E-07  0.00000E+00  9.000E+00
       2     1     1     2   512     0 -9.790107760E+00  6.920309994E+00  2.190146277E-01  1.199557284E+01  3.300000131E-01  0.00000E+00  9.000E+00
      21     1     1     2   515   513  4.867401076E+00 -2.085517576E+00  1.013043999E+00  5.391403800E+00  1.307571588E-07  0.00000E+00  9.000E+00
</event>
<event>
      5  10001  3.52971E+09  7.52762E+00 -1.00000E+00  2.11182E-01
       4    -1     0     0   512     0  0.000000000E+00  0.000000000E+00  3.934148764E+01  3.934148764E+01  0.000000000E+00  0.00000E+00  9.000E+00
      21    -1     0     0   511   515  0.000000000E+00  0.000000000E+00 -1.288761322E+02  1.288761322E+02  0.000000000E+00  0.00000E+00  9.000E+00
      21     1     1     2   512   515  5.190116515E+00 -1.194586676E+01 -2.637746135E+01  2.941787737E+01  0.000000000E+00  0.00000E+00  9.000E+00
       4     1     1     2   514     0 -9.106367898E+00  5.518191719E+00  3.691278699E+01  3.844710937E+01  1.500000000E+00  0.00000E+00  9.000E+00
      21     1     1     2   511   514  3.916251383E+00  6.427675036E+00 -1.000699702E+02  1.003526331E+02  0.000000000E+00  0.00000E+00  9.000E+00
</event>
<event>
      5  10001  3.52971E+09  6.29998E+00 -1.00000E+00  2.22225E-01
      21    -1     0     0   513   514  0.000000000E+00  0.000000000E+00  4.664000566E-01  4.664000566E-01  0.000000000E+00  0.00000E+00  9.000E+00
       2    -1     0     0   514     0  0.000000000E+00  0.000000000E+00 -3.685864190E+02  3.685864190E+02  0.000000000E+00  0.00000E+00  9.000E+00
      21     1     1     2   512   511  8.959102812E+00 -2.647650121E+00 -9.687874101E+01  9.732813588E+01  1.907348633E-06  0.00000E+00  9.000E+00
       2     1     1     2   511     0 -9.222971394E+00  6.981973704E+00 -1.723194983E+02  1.727076418E+02  3.300000131E-01  0.00000E+00  9.000E+00
      21     1     1     2   513   512  2.638685818E-01 -4.334323583E+00 -9.892177971E+01  9.901704141E+01  1.348699152E-06  0.00000E+00  9.000E+00
</event>
<event>
      5  10001  3.52971E+09  5.32875E+00 -1.00000E+00  2.33777E-01
      21    -1     0     0   515   516  0.000000000E+00  0.000000000E+00  3.730020956E+01  3.730020956E+01  0.000000000E+00  0.00000E+00  9.000E+00
      21    -1     0     0   514   515  0.000000000E+00  0.000000000E+00 -2.927361172E+01  2.927361172E+01  0.000000000E+00  0.00000E+00  9.000E+00
      21     1     1     2   514   512  2.302289220E+00 -2.144745410E+01 -1.403924612E+01  2.573702109E+01  3.769728732E-07  0.00000E+00  9.000E+00
      21     1     1     2   512   511 -5.209331841E+00  1.698150928E+01 -3.804623273E-01  1.776664142E+01  5.845026777E-07  0.00000E+00  9.000E+00
      21     1     1     2   511   516  2.907042622E+00  4.465944824E+00  2.244630629E+01  2.307015877E+01  2.384185791E-07  0.00000E+00  9.000E+00
</event>
<event>
      5  10001  3.52971E+09  4.51012E+00 -1.00000E+00  2.51755E-01
      21    -1     0     0   512   513  0.000000000E+00  0.000000000E+00  6.523973906E+00  6.523973906E+00  0.000000000E+00  0.00000E+00  9.000E+00
       1    -1     0     0   513     0  0.000000000E+00  0.000000000E+00 -2.391890436E+02  2.391890436E+02  0.000000000E+00  0.00000E+00  9.000E+00
      21     1     1     2   512   511  9.163351639E+00 -4.479650282E+00  2.109484356E+00  1.041557508E+01  4.182955279E-07  0.00000E+00  9.000E+00
       1     1     1     2   514     0 -4.774996948E+00  4.632582401E+00 -2.119331369E+02  2.120377910E+02  3.300000131E-01  0.00000E+00  9.000E+00
      21     1     1     2   511   514 -4.388354691E+00 -1.529321195E-01 -2.284141724E+01  2.325965148E+01  3.371747881E-07  0.00000E+00  9.000E+00
</event>
<event>
      5  10001  3.52971E+09  1.49311E+01 -1.00000E+00  1.77568E-01
      21    -1     0     0   515   513  0.000000000E+00  0.000000000E+00  4.490772873E+01  4.490772873E+01  0.000000000E+00  0.00000E+00  9.000E+00
      21    -1     0     0   511   516  0.000000000E+00  0.000000000E+00 -4.974472919E+01  4.974472919E+01  0.000000000E+00  0.00000E+00  9.000E+00
      21     1     1     2   515   516  1.124663941E+00 -1.178204746E+01  4.304491935E+01  4.464243042E+01  6.743495762E-07  0.00000E+00  9.000E+00
      21     1     1     2   512   513  1.497864956E+00  5.582440585E+00 -1.013236553E+01  1.166499351E+01  2.920019320E-07  0.00000E+00  9.000E+00
      21     1     1     2   511   512 -2.622528897E+00  6.199606880E+00 -3.774955428E+01  3.834503399E+01  6.743495762E-07  0.00000E+00  9.000E+00
</event>
<event>
      5  10001  3.52971E+09  7.71761E+00 -1.00000E+00  2.09727E-01
       2    -1     0     0   515     0  0.000000000E+00  0.000000000E+00  5.901404414E+02  5.901404414E+02  0.000000000E+00  0.00000E+00  9.000E+00
      21    -1     0     0   512   515  0.000000000E+00  0.000000000E+00 -6.509889474E-01  6.509889474E-01  0.000000000E+00  0.00000E+00  9.000E+00
      21     1     1     2   513   514 -1.604091894E+00  1.469009510E+00  5.483464400E+00  5.899108541E+00  2.598106231E-07  0.00000E+00  9.000E+00
       2     1     1     2   514     0  1.082236176E+01 -6.881507218E+00  5.053997137E+02  5.055625166E+02  3.300000131E-01  0.00000E+00  9.000E+00
      21     1     1     2   512   513 -9.218269870E+00  5.412497708E+00  7.860627435E+01  7.932980523E+01  1.348699152E-06  0.00000E+00  9.000E+00
</event>
<event>
      5  10001  3.52971E+09  5.26613E+00 -1.00000E+00  2.34641E-01
      21    -1     0     0   511   514  0.000000000E+00  0.000000000E+00  2.330772751E+00  2.330772751E+00  0.000000000E+00  0.00000E+00  9.000E+00
      21    -1     0     0   512   513  0.000000000E+00  0.000000000E+00 -9.282983485E+01  9.282983485E+01  0.000000000E+00  0.00000E+00  9.000E+00
      21     1     1     2   511   513 -1.053749895E+01  6.964561226E+00 -6.082582825E+01  6.212346883E+01  9.536743164E-07  0.00000E+00  9.000E+00
      21     1     1     2   512   515  5.783267775E+00 -4.598857527E+00 -8.759192091E+00  1.145945561E+01  1.685873940E-07  0.00000E+00  9.000E+00
      21     1     1     2   515   514  4.754231176E+00 -2.365703698E+00 -2.091404176E+01  2.157768317E+01  2.384185791E-07  0.00000E+00  9.000E+00
</event>
<event>
      5  10001  3.52971E+09  2.81688E+00 -1.00000E+00  3.05411E-01
      -3    -1     0     0     0   514  0.000000000E+00  0.000000000E+00  2.546918529E+02  2.546918529E+02  0.000000000E+00  0.00000E+00  9.000E+00
      21    -1     0     0   514   511  0.000000000E+00  0.000000000E+00 -2.533476908E+00  2.533476908E+00  0.000000000E+00  0.00000E+00  9.000E+00
      -3     1     1     2     0   515 -1.135120487E+01  3.769308470E+00  2.338372369E+02  2.341434622E+02  5.000000000E-01  0.00000E+00  9.000E+00
      21     1     1     2   515   512  8.333113766E+00 -4.374171712E+00  8.132178300E+00  1.243810625E+01  5.960464478E-07  0.00000E+00  9.000E+00
      21     1     1     2   512   511  3.018091105E+00  6.048632422E-01  1.018896082E+01  1.064376137E+01  2.064765462E-07  0.00000E+00  9.000E+00
</event>
<event>
      5  10001  3.52971E+09  2.98709E+00 -1.00000E+00  2.97427E-01
      21    -1     0     0   512   513  0.000000000E+00  0.000000000E+00  4.109443173E+01  4.109443173E+01  0.000000000E+00  0.00000E+00  9.000E+00
      -1    -1     0     0     0   511  0.000000000E+00  0.000000000E+00 -1.062595482E+01  1.062595482E+01  0.000000000E+00  0.00000E+00  9.000E+00
      -1     1     1     2     0   513 -3.152236221E+00  9.553389144E+00 -7.363180029E+00  1.247113297E+01  3.300000131E-01  0.00000E+00  9.000E+00
      -1     1     1     2     0   511  2.786366177E+00 -4.537349682E+00  1.704976899E+01  1.786490697E+01  3.300000131E-01  0.00000E+00  9.000E+00
       1     1     1     2   512     0  3.658700433E-01 -5.016039462E+00  2.078188795E+01  2.138434660E+01  3.300000131E-01  0.00000E+00  9.000E+00
</event>
<event>
      5  10001  3.52971E+09  1.19934E+01 -1.00000E+00  1.87049E-01
      21    -1     0     0   514   516  0.000000000E+00  0.000000000E+00  2.381334072E+02  2.381334072E+02  0.000000000E+00  0.00000E+00  9.000E+00
      21    -1     0     0   513   515  0.000000000E+00  0.000000000E+00 -2.550591520E+00  2.550591520E+00  0.000000000E+00  0.00000E+00  9.000E+00
      21     1     1     2   514   515 -1.728963854E+01  8.391474681E-02  1.761453846E+02  1.769919070E+02  3.814697266E-06  0.00000E+00  9.000E+00
      21     1     1     2   511   516  6.820973052E+00 -4.762534436E-01  5.580610675E+00  8.825854419E+00  2.731427965E-07  0.00000E+00  9.000E+00
      21     1     1     2   513   511  1.046866549E+01  3.923386968E-01  5.385682045E+01  5.486623730E+01  0.000000000E+00  0.00000E+00  9.000E+00
</event>
<event>
      5  10001  3.52971E+09  4.68489E+00 -1.00000E+00  2.48272E-01
      21    -1     0     0   512   516  0.000000000E+00  0.000000000E+00  4.485243167E+01  4.485243167E+01  0.000000000E+00  0.00000E+00  9.000E+00
      21    -1     0     0   513   514  0.000000000E+00  0.000000000E+00 -3.809329627E+01  3.809329627E+01  0.000000000E+00  0.00000E+00  9.000E+00
      21     1     1     2   511   516 -4.449046063E+00 -1.301883380E+01  4.130628199E+01  4.353725963E+01  4.768371582E-07  0.00000E+00  9.000E+00
      21     1     1     2   513   511  3.830709381E+00  8.374924088E+00 -7.273318182E+00  1.173519685E+01  4.842304232E-07  0.00000E+00  9.000E+00
      21     1     1     2   512   514  6.183366821E-01  4.643909708E+00 -2.727382840E+01  2.767327146E+01  3.371747881E-07  0.00000E+00  9.000E+00
</event>
<event>
      5  10001  3.52971E+09  4.45510E+00 -1.00000E+00  2.52902E-01
      21    -1     0     0   515   513  0.000000000E+00  0.000000000E+00  3.349649057E+01  3.349649057E+01  0.000000000E+00  0.00000E+00  9.000E+00
       3    -1     0     0   512     0  0.000000000E+00  0.000000000E+00 -5.344333764E+00  5.344333764E+00  0.000000000E+00  0.00000E+00  9.000E+00
      21     1     1     2   512   513 -1.116273119E+01  1.367272007E-01  2.368024811E+01  2.617975196E+01  0.000000000E+00  0.00000E+00  9.000E+00
       3     1     1     2   511     0  4.164026952E+00  1.468083127E+00  5.441440669E-01  4.476659613E+00  5.000000000E-01  0.00000E+00  9.000E+00
      21     1     1     2   515   511  6.998704242E+00 -1.604810328E+00  3.927764626E+00  8.184412759E+00  4.214684851E-08  0.00000E+00  9.000E+00
</event>
<event>
      5  10001  3.52971E+09  2.15842E+01 -1.00000E+00  1.63680E-01
       4    -1     0     0   515     0  0.000000000E+00  0.000000000E+00  3.360334231E+02  3.360334231E+02  0.000000000E+00  0.00000E+00  9.000E+00
      21    -1     0     0   511   515  0.000000000E+00  0.000000000E+00 -6.949989399E+00  6.949989399E+00  0.000000000E+00  0.00000E+00  9.000E+00
      21     1     1     2   512   514 -8.068170163E+00 -1.758567150E+01  1.637117694E+01  2.534495307E+01  3.371747881E-07  0.00000E+00  9.000E+00
       4     1     1     2   514     0 -4.275459853E+00  1.363814550E+01  2.966597213E+02  2.970076074E+02  1.500000000E+00  0.00000E+00  9.000E+00
      21     1     1     2   511   512  1.234363002E+01  3.947525997E+00  1.605253546E+01  2.063085210E+01  0.000000000E+00  0.00000E+00  9.000E+00
</event>
<event>
      5  10001  3.52971E+09  7.55029E+00 -1.00000E+00  2.11006E-01
      21    -1     0     0   513   514  0.000000000E+00  0.000000000E+00  4.772317471E+00  4.772317471E+00  0.000000000E+00  0.00000E+00  9.000E+00
      21    -1     0     0   511   513  0.000000000E+00  0.000000000E+00 -1.427422168E+02  1.427422168E+02  0.000000000E+00  0.00000E+00  9.000E+00
      21     1     1     2   516   512  9.830506775E+00 -6.268875603E+00 -5.081933869E+01  5.213964758E+01  0.000000000E+00  0.00000E+00  9.000E+00
      21     1     1     2   511   516 -1.508721097E+01  8.490971608E-01 -8.648510915E+01  8.779532451E+01  1.348699152E-06  0.00000E+00  9.000E+00
      21     1     1     2   512   514  5.256704196E+00  5.419778442E+00 -6.654515007E-01  7.579562194E+00  2.602375924E-07  0.00000E+00  9.000E+00
</event>
<event>
      5  10001  3.52971E+09  1.51070E+01 -1.00000E+00  1.77090E-01
      21    -1     0     0   515   511  0.000000000E+00  0.000000000E+00  1.275703964E+00  1.275703964E+00  0.000000000E+00  0.00000E+00  9.000E+00
      21    -1     0     0   512   514  0.000000000E+00  0.000000000E+00 -5.226097463E+02  5.226097463E+02  0.000000000E+00  0.00000E+00  9.000E+00
      21     1     1     2   515   514  1.805109727E+01  1.677914823E+00 -3.580954373E+02  3.585540402E+02  3.814697266E-06  0.00000E+00  9.000E+00
      21     1     1     2   513   511 -9.884282360E+00  6.240050108E+00 -4.314926707E+01  4.470454688E+01  1.507891493E-06  0.00000E+00  9.000E+00
      21     1     1     2   512   513 -8.166814911E+00 -7.917964931E+00 -1.200893380E+02  1.206268632E+02  1.348699152E-06  0.00000E+00  9.000E+00
</event>
<event>
      5  10001  3.52971E+09  9.44792E+00 -1.00000E+00  1.98647E-01
      21    -1     0     0   516   513  0.000000000E+00  0.000000000E+00  7.757042381E+01  7.757042381E+01  0.000000000E+00  0.00000E+00  9.000E+00
      21    -1     0     0   512   517  0.000000000E+00  0.000000000E+00 -1.498443784E+00  1.498443784E+00  0.000000000E+00  0.00000E+00  9.000E+00
      21     1     1     2   516   517 -4.936465078E+00 -5.078900315E+00  2.858858985E+01  2.945286718E+01  5.840038640E-07  0.00000E+00  9.000E+00
      21     1     1     2   511   513  8.781847825E+00  2.356447089E+00  3.735032492E+01  3.844112987E+01  0.000000000E+00  0.00000E+00  9.000E+00
      21     1     1     2   512   511 -3.845382747E+00  2.722453226E+00  1.013306526E+01  1.117487054E+01  1.685873940E-07  0.00000E+00  9.000E+00
</event>
<event>
      5  10001  3.52971E+09  1.06498E+01 -1.00000E+00  1.92644E-01
      21    -1     0     0   514   511  0.000000000E+00  0.000000000E+00  4.625553596E+01  4.625553596E+01  0.000000000E+00  0.00000E+00  9.000E+00
      21    -1     0     0   512   513  0.000000000E+00  0.000000000E+00 -1.284727629E+01  1.284727629E+01  0.000000000E+00  0.00000E+00  9.000E+00
      21     1     1     2   512   515 -8.271969608E+00  1.621364929E+01  1.212069791E+01  2.186822403E+01  1.685873940E-07  0.00000E+00  9.000E+00
      21     1     1     2   515   511  1.801402128E+00 -7.754891792E+00  2.477937975E+01  2.602692946E+01  4.768371582E-07  0.00000E+00  9.000E+00
      21     1     1     2   514   513  6.470567480E+00 -8.458757493E+00 -3.491817991E+00  1.120765875E+01  1.192092896E-07  0.00000E+00  9.000E+00
</event>
<event>
      5  10001  3.52971E+09  4.57951E+00 -1.00000E+00  2.50344E-01
      21    -1     0     0   516   513  0.000000000E+00  0.000000000E+00  6.251682989E+01  6.251682989E+01  0.000000000E+00  0.00000E+00  9.000E+00
      21    -1     0     0   512   517  0.000000000E+00  0.000000000E+00 -4.127255283E+00  4.127255283E+00  0.000000000E+00  0.00000E+00  9.000E+00
      21     1     1     2   516   517  1.063464359E+01  4.029133554E+00  4.860544775E+01  4.991812409E+01  9.536743164E-07  0.00000E+00  9.000E+00
      21     1     1     2   511   513 -6.249592514E+00 -2.377275440E+00  9.873311850E-01  6.758969447E+00  1.867110146E-07  0.00000E+00  9.000E+00
      21     1     1     2   512   511 -4.385051080E+00 -1.651858114E+00  8.796795674E+00  9.966991639E+00  1.685873940E-07  0.00000E+00  9.000E+00
</event>
<event>
      5  10001  3.52971E+09  5.78770E+00 -1.00000E+00  2.27923E-01
       2    -1     0     0   512     0  0.000000000E+00  0.000000000E+00  2.754043062E+00  2.754043062E+00  0.000000000E+00  0.00000E+00  9.000E+00
      21    -1     0     0   514   511  0.000000000E+00  0.000000000E+00 -5.368892206E+01  5.368892206E+01  0.000000000E+00  0.00000E+00  9.000E+00
      21     1     1     2   512   511 -7.057388196E+00 -5.152281974E+00 -3.532837527E+01  3.639295038E+01  4.768371582E-07  0.00000E+00  9.000E+00
       2     1     1     2   513     0  4.441839663E+00  3.240429197E+00 -1.690246043E+00  5.761610250E+00  3.300000131E-01  0.00000E+00  9.000E+00
      21     1     1     2   514   513  2.615548533E+00  1.911852778E+00 -1.391625768E+01  1.428840450E+01  1.685873940E-07  0.00000E+00  9.000E+00
</event>
<event>
      5  10001  3.52971E+09  5.77678E+00 -1.00000E+00  2.28053E-01
      21    -1     0     0   515   516  0.000000000E+00  0.000000000E+00  2.399727125E+00  2.399727125E+00  0.000000000E+00  0.00000E+00  9.000E+00
      21    -1     0     0   514   515  0.000000000E+00  0.000000000E+00 -5.268429474E+01  5.268429474E+01  0.000000000E+00  0.00000E+00  9.000E+00
      21     1     1     2   513   516  5.568875346E+00  8.159620921E+00 -1.282644590E+01  1.618979619E+01  4.129530925E-07  0.00000E+00  9.000E+00
      21     1     1     2   514   511 -2.378715733E+00 -9.834763172E-01 -1.086583870E+01  1.116655564E+01  1.192092896E-07  0.00000E+00  9.000E+00
      21     1     1     2   511   513 -3.190159612E+00 -7.176144604E+00 -2.659228302E+01  2.772767004E+01  4.768371582E-07  0.00000E+00  9.000E+00
</event>
<event>
      5  10001  3.52971E+09  7.53256E+00 -1.00000E+00  2.11144E-01
      21    -1     0     0   512   514  0.000000000E+00  0.000000000E+00  1.000296385E+02  1.000296385E+02  0.000000000E+00  0.00000E+00  9.000E+00
      21    -1     0     0   516   513  0.000000000E+00  0.000000000E+00 -2.309302019E+00  2.309302019E+00  0.000000000E+00  0.00000E+00  9.000E+00
      21     1     1     2   512   513 -8.295854173E+00 -1.103343182E+01  6.217346214E+01  6.368749648E+01  0.000000000E+00  0.00000E+00  9.000E+00
      21     1     1     2   516   515  7.608890776E-01  6.135641387E+00  1.387892864E+01  1.519373910E+01  1.685873940E-07  0.00000E+00  9.000E+00
      21     1     1     2   515   514  7.534965095E+00  4.897790433E+00  2.166794568E+01  2.345770492E+01  2.384185791E-07  0.00000E+00  9.000E+00
</event>
<event>
      5  10001  3.52971E+09  9.37413E+00 -1.00000E+00  1.99054E-01
      21    -1     0     0   511   513  0.000000000E+00  0.000000000E+00  1.287374762E+01  1.287374762E+01  0.000000000E+00  0.00000E+00  9.000E+00
      21    -1     0     0   514   511  0.000000000E+00  0.000000000E+00 -6.564804431E+01  6.564804431E+01  0.000000000E+00  0.00000E+00  9.000E+00
      21     1     1     2   514   517  9.018161351E+00 -1.610617740E+01 -4.605537129E+01  4.961686617E+01  0.000000000E+00  0.00000E+00  9.000E+00
      21     1     1     2   517   512 -1.437343531E+01  1.649245583E+01 -2.388133783E+00  2.200681542E+01  3.987278986E-07  0.00000E+00  9.000E+00
      21     1     1     2   512   513  5.355273954E+00 -3.862784275E-01 -4.330791627E+00  6.898110340E+00  5.960464478E-08  0.00000E+00  9.000E+00
</event>
<event>
      5  10001  3.52971E+09  1.58156E+01 -1.00000E+00  1.75241E-01
      21    -1     0     0   515   511  0.000000000E+00  0.000000000E+00  2.143889576E+01  2.143889576E+01  0.000000000E+00  0.00000E+00  9.000E+00
      21    -1     0     0   514   513  0.000000000E+00  0.000000000E+00 -7.398396965E+01  7.398396965E+01  0.000000000E+00  0.00000E+00  9.000E+00
      21     1     1     2   515   513 -1.945551804E+01  7.130803536E+00  6.165519751E-01  2.073030819E+01  7.172320674E-07  0.00000E+00  9.000E+00
      21     1     1     2   514   516  2.695237784E+01 -2.105669405E+01 -4.602307314E+01  5.734054671E+01  0.000000000E+00  0.00000E+00  9.000E+00
      21     1     1     2   516   511 -7.496859799E+00  1.392589052E+01 -7.138552726E+00  1.735201050E+01  8.429369702E-08  0.00000E+00  9.000E+00
</event>
<event>
      5  10001  3.52971E+09  4.51154E+00 -1.00000E+00  2.51726E-01
      21    -1     0     0   513   514  0.000000000E+00  0.000000000E+00  1.113704203E+02  1.113704203E+02  0.000000000E+00  0.00000E+00  9.000E+00
      21    -1     0     0   516   513  0.000000000E+00  0.000000000E+00 -2.891771700E+01  2.891771700E+01  0.000000000E+00  0.00000E+00  9.000E+00
      21     1     1     2   516   512  5.022967991E+00 -9.325782944E+00 -2.264688944E+01  2.500164067E+01  3.371747881E-07  0.00000E+00  9.000E+00
       3     1     1     2   512     0 -7.848299560E+00  1.284256353E+01  6.204336350E+00  1.628714319E+01  5.000000000E-01  0.00000E+00  9.000E+00
      -3     1     1     2     0   514  2.825331569E+00 -3.516780582E+00  9.889525639E+01  9.899935343E+01  5.000000000E-01  0.00000E+00  9.000E+00
</event>
<event>
      5  10001  3.52971E+09  1.32422E+01 -1.00000E+00  1.82636E-01
      21    -1     0     0   515   514  0.000000000E+00  0.000000000E+00  1.171609518E+02  1.171609518E+02  0.000000000E+00  0.00000E+00  9.000E+00
      -3    -1     0     0     0   511  0.000000000E+00  0.000000000E+00 -4.786968232E+00  4.786968232E+00  0.000000000E+00  0.00000E+00  9.000E+00
      -3     1     1     2     0   514 -6.975776372E-01  1.766422163E+01  2.258365239E+01  2.868418895E+01  5.000000000E-01  0.00000E+00  9.000E+00
      21     1     1     2   515   512 -7.188273183E+00 -1.516719927E+01  5.502881988E+01  5.753161064E+01  9.536743164E-07  0.00000E+00  9.000E+00
      21     1     1     2   512   511  7.885850820E+00 -2.497022369E+00  3.476151130E+01  3.573212045E+01  6.743495762E-07  0.00000E+00  9.000E+00
</event>
<event>
      5  10001  3.52971E+09  6.03615E+00 -1.00000E+00  2.25061E-01
      21    -1     0     0   513   514  0.000000000E+00  0.000000000E+00  2.987125285E+00  2.987125285E+00  0.000000000E+00  0.00000E+00  9.000E+00
      21    -1     0     0   512   511  0.000000000E+00  0.000000000E+00 -1.792221978E+02  1.792221978E+02  0.000000000E+00  0.00000E+00  9.000E+00
      21     1     1     2   513   511  7.645579343E+00  9.812561598E+00 -6.944921352E+01  7.055447900E+01  1.348699152E-06  0.00000E+00  9.000E+00
       5     1     1     2   512     0 -1.874479139E+00 -8.863980378E+00 -1.023948778E+02  1.029069231E+02  4.800000191E+00  0.00000E+00  9.000E+00
      -5     1     1     2     0   514 -5.771100204E+00 -9.485812202E-01 -4.390981197E+00  8.747920987E+00  4.800000191E+00  0.00000E+00  9.000E+00
</event>
<event>
      5  10001  3.52971E+09  2.99459E+00 -1.00000E+00  2.97096E-01
      21    -1     0     0   515   511  0.000000000E+00  0.000000000E+00  5.106369539E+01  5.106369539E+01  0.000000000E+00  0.00000E+00  9.000E+00
      21    -1     0     0   514   515  0.000000000E+00  0.000000000E+00 -8.049494410E+00  8.049494410E+00  0.000000000E+00  0.00000E+00  9.000E+00
      21     1     1     2   514   516 -9.451607637E+00 -1.167531754E+01  2.080670711E+00  1.516493050E+01  2.874031890E-07  0.00000E+00  9.000E+00
      21     1     1     2   516   512  9.040664081E+00  9.754294388E+00  2.966643531E+01  3.251118654E+01  4.768371582E-07  0.00000E+00  9.000E+00
      21     1     1     2   512   511  4.109435559E-01  1.921023148E+00  1.126709496E+01  1.143707276E+01  2.064765462E-07  0.00000E+00  9.000E+00
</event>
<event>
      5  10001  3.52971E+09  4.90045E+00 -1.00000E+00  2.44280E-01
      21    -1     0     0   513   516  0.000000000E+00  0.000000000E+00  1.121065856E+01  1.121065856E+01  0.000000000E+00  0.00000E+00  9.000E+00
      21    -1     0     0   514   511  0.000000000E+00  0.000000000E+00 -3.652466766E+02  3.652466766E+02  0.000000000E+00  0.00000E+00  9.000E+00
      21     1     1     2   513   511  1.027327900E+01 -9.968562187E+00  5.910698645E+00  1.548705434E+01  8.215933294E-07  0.00000E+00  9.000E+00
      21     1     1     2   514   515 -8.121531767E+00  1.110851246E+01 -3.564145466E+02  3.566800911E+02  3.814697266E-06  0.00000E+00  9.000E+00
      21     1     1     2   515   516 -2.151747235E+00 -1.139950277E+00 -3.532170130E+00  4.290189812E+00  1.032382731E-07  0.00000E+00  9.000E+00
</event>
<event>
      5  10001  3.52971E+09  5.81150E+00 -1.00000E+00  2.27640E-01
      21    -1     0     0   512   511  0.000000000E+00  0.000000000E+00  7.222221643E+00  7.222221643E+00  0.000000000E+00  0.00000E+00  9.000E+00
      21    -1     0     0   517   513  0.000000000E+00  0.000000000E+00 -4.065380423E+02  4.065380423E+02  0.000000000E+00  0.00000E+00  9.000E+00
      21     1     1     2   512   516 -7.748446891E+00  7.621552397E+00 -4.426510929E+01  4.557989020E+01  4.768371582E-07  0.00000E+00  9.000E+00
      21     1     1     2   517   511  1.016762707E+01 -2.337507733E+00  2.381254639E+00  1.070116612E+01  2.665600750E-07  0.00000E+00  9.000E+00
      21     1     1     2   516   513 -2.419180179E+00 -5.284044664E+00 -3.574319660E+02  3.574792076E+02  0.000000000E+00  0.00000E+00  9.000E+00
</event>
<event>
      5  10001  3.52971E+09  9.25213E+00 -1.00000E+00  1.99737E-01
      21    -1     0     0   514   513  0.000000000E+00  0.000000000E+00  7.935641508E+00  7.935641508E+00  0.000000000E+00  0.00000E+00  9.000E+00
      21    -1     0     0   516   515  0.000000000E+00  0.000000000E+00 -1.281718267E+01  1.281718267E+01  0.000000000E+00  0.00000E+00  9.000E+00
      21     1     1     2   514   515 -1.085665504E+00  7.816059510E+00 -1.642444483E+00  8.060215861E+00  1.397852826E-07  0.00000E+00  9.000E+00
      21     1     1     2   511   513 -4.018684245E+00 -4.719867214E+00 -8.275324019E-01  6.253941114E+00  3.332000937E-08  0.00000E+00  9.000E+00
      21     1     1     2   516   511  5.104349749E+00 -3.096192296E+00 -2.411564275E+00  6.438667202E+00  1.154238983E-07  0.00000E+00  9.000E+00
</event>
<event>
      5  10001  3.52971E+09  7.35468E+00 -1.00000E+00  2.12558E-01
       2    -1     0     0   515     0  0.000000000E+00  0.000000000E+00  4.755966569E+02  4.755966569E+02  0.000000000E+00  0.00000E+00  9.000E+00
      21    -1     0     0   512   511  0.000000000E+00  0.000000000E+00 -3.506450267E-01  3.506450267E-01  0.000000000E+00  0.00000E+00  9.000E+00
      21     1     1     2   515   513 -2.177115022E+00  5.114560941E+00  3.480076781E+01  3.524190693E+01  4.768371582E-07  0.00000E+00  9.000E+00
       2     1     1     2   512     0  7.643623578E+00 -4.168925716E+00  3.359733045E+02  3.360862615E+02  3.300000131E-01  0.00000E+00  9.000E+00
      21     1     1     2   513   511 -5.466508556E+00 -9.456352251E-01  1.044719395E+02  1.046191335E+02  1.907348633E-06  0.00000E+00  9.000E+00
</event>
<event>
      5  10001  3.52971E+09  2.94408E+01 -1.00000E+00  1.53607E-01
      21    -1     0     0   514   512  0.000000000E+00  0.000000000E+00  3.501241552E+00  3.501241552E+00  0.000000000E+00  0.00000E+00  9.000E+00
      21    -1     0     0   516   514  0.000000000E+00  0.000000000E+00 -2.105800345E+02  2.105800345E+02  0.000000000E+00  0.00000E+00  9.000E+00
      21     1     1     2   516   511 -2.332846581E+00  1.939727852E+01 -1.339120199E+02  1.353296925E+02  2.697398305E-06  0.00000E+00  9.000E+00
      21     1     1     2   511   515 -6.993767076E+00 -8.145403543E+00 -5.156271451E+01  5.266852859E+01  0.000000000E+00  0.00000E+00  9.000E+00
      21     1     1     2   515   512  9.326613657E+00 -1.125187497E+01 -2.160405854E+01  2.608305500E+01  5.331201500E-07  0.00000E+00  9.000E+00
</event>
<event>
      5  10001  3.52971E+09  1.61745E+01 -1.00000E+00  1.74350E-01
      21    -1     0     0   513   511  0.000000000E+00  0.000000000E+00  7.892379230E+01  7.892379230E+01  0.000000000E+00  0.00000E+00  9.000E+00
      21    -1     0     0   512   513  0.000000000E+00  0.000000000E+00 -2.660906441E+00  2.660906441E+00  0.000000000E+00  0.00000E+00  9.000E+00
      21     1     1     2   512   516  4.926485887E+00 -1.183244747E+01  2.107216103E+01  2.466400306E+01  0.000000000E+00  0.00000E+00  9.000E+00
      21     1     1     2   516   514  6.622443721E-01  3.288267926E-01  7.786733161E+00  7.821758625E+00  8.429369702E-08  0.00000E+00  9.000E+00
      21     1     1     2   514   511 -5.588730259E+00  1.150362067E+01  4.740399167E+01  4.909893706E+01  6.743495762E-07  0.00000E+00  9.000E+00
</event>
<event>
      5  10001  3.52971E+09  1.33041E+01 -1.00000E+00  1.82433E-01
      21    -1     0     0   512   511  0.000000000E+00  0.000000000E+00  8.288475018E+00  8.288475018E+00  0.000000000E+00  0.00000E+00  9.000E+00
       1    -1     0     0   515     0  0.000000000E+00  0.000000000E+00 -6.139720499E+02  6.139720499E+02  0.000000000E+00  0.00000E+00  9.000E+00
      21     1     1     2   515   511  4.661152383E+00  3.113440398E+01 -4.280371134E+01  5.313412423E+01  1.430511475E-06  0.00000E+00  9.000E+00
       1     1     1     2   514     0 -6.197542355E+00 -1.791937919E+01 -5.508914665E+02  5.512177705E+02  3.300000131E-01  0.00000E+00  9.000E+00
      21     1     1     2   512   514  1.536389972E+00 -1.321502478E+01 -1.198839705E+01  1.790863026E+01  3.371747881E-07  0.00000E+00  9.000E+00
</event>
<event>
      5  10001  3.52971E+09  8.58172E+00 -1.00000E+00  2.03758E-01
       2    -1     0     0   514     0  0.000000000E+00  0.000000000E+00  2.186342244E+03  2.186342244E+03  0.000000000E+00  0.00000E+00  9.000E+00
      21    -1     0     0   513   511  0.000000000E+00  0.000000000E+00 -1.097298792E+00  1.097298792E+00  0.000000000E+00  0.00000E+00  9.000E+00
      21     1     1     2   513   512  1.166989350E+01  3.281577655E+00  3.912361275E+01  4.095866503E+01  2.336015456E-06  0.00000E+00  9.000E+00
       2     1     1     2   512     0 -1.919323170E+01 -7.409971256E+00  2.001141712E+03  2.001247498E+03  3.300000131E-01  0.00000E+00  9.000E+00
      21     1     1     2   514   511  7.523338202E+00  4.128393600E+00  1.449796200E+02  1.452333793E+02  0.000000000E+00  0.00000E+00  9.000E+00
</event>
<event>
      5  10001  3.52971E+09  5.52106E+00 -1.00000E+00  2.31227E-01
       2    -1     0     0   512     0  0.000000000E+00  0.000000000E+00  5.643383984E+01  5.643383984E+01  0.000000000E+00  0.00000E+00  9.000E+00
       1    -1     0     0   514     0  0.000000000E+00  0.000000000E+00 -1.592162892E+02  1.592162892E+02  0.000000000E+00  0.00000E+00  9.000E+00
      21     1     1     2   512   511 -5.058422841E+00 -6.912885696E+00  4.172109237E+00  9.527965458E+00  3.475518164E-07  0.00000E+00  9.000E+00
       2     1     1     2   514     0  8.210135722E+00  1.144591564E+01  4.853268652E+01  5.053657957E+01  3.300000131E-01  0.00000E+00  9.000E+00
       1     1     1     2   511     0 -3.151712882E+00 -4.533029946E+00 -1.554872452E+02  1.555855840E+02  3.300000131E-01  0.00000E+00  9.000E+00
</event>
<event>
      5  10001  3.52971E+09  3.63383E+00 -1.00000E+00  2.73689E-01
      21    -1     0     0   512   514  0.000000000E+00  0.000000000E+00  5.394877450E+00  5.394877450E+00  0.000000000E+00  0.00000E+00  9.000E+00
       2    -1     0     0   511     0  0.000000000E+00  0.000000000E+00 -6.163257395E+01  6.163257395E+01  0.000000000E+00  0.00000E+00  9.000E+00
      21     1     1     2   511   514  9.456550900E+00 -1.174747402E+01 -2.491236792E+01  2.912139379E+01  3.371747881E-07  0.00000E+00  9.000E+00
       2     1     1     2   513     0 -1.226448350E+01  9.441452455E+00 -3.046387543E+01  3.417184786E+01  3.300000131E-01  0.00000E+00  9.000E+00
      21     1     1     2   512   513  2.807932601E+00  2.306021565E+00 -8.614531538E-01  3.734209754E+00  5.475036225E-08  0.00000E+00  9.000E+00
</event>
<event>
      5  10001  3.52971E+09  8.65744E+00 -1.00000E+00  2.03280E-01
      21    -1     0     0   515   511  0.000000000E+00  0.000000000E+00  4.193833692E-01  4.193833692E-01  0.000000000E+00  0.00000E+00  9.000E+00
      21    -1     0     0   516   515  0.000000000E+00  0.000000000E+00 -6.445419148E+02  6.445419148E+02  0.000000000E+00  0.00000E+00  9.000E+00
      21     1     1     2   513   511  1.216068474E+01 -3.721596696E+00 -1.365122777E+02  1.371033716E+02  0.000000000E+00  0.00000E+00  9.000E+00
      21     1     1     2   516   514 -8.735931929E+00  4.155111944E+00 -2.051311674E+02  2.053591422E+02  2.697398305E-06  0.00000E+00  9.000E+00
      21     1     1     2   514   513 -3.424752811E+00 -4.335152479E-01 -3.024790863E+02  3.024987844E+02  5.394796609E-06  0.00000E+00  9.000E+00
</event>
<event>
      5  10001  3.52971E+09  9.24371E+00 -1.00000E+00  1.99785E-01
       4    -1     0     0   515     0  0.000000000E+00  0.000000000E+00  2.742681032E+01  2.742681032E+01  0.000000000E+00  0.00000E+00  9.000E+00
      21    -1     0     0   512   514  0.000000000E+00  0.000000000E+00 -4.535393918E+01  4.535393918E+01  0.000000000E+00  0.00000E+00  9.000E+00
      21     1     1     2   511   514  5.943998369E+00  1.012776229E-01 -1.788318993E+01  1.884542003E+01  2.384185791E-07  0.00000E+00  9.000E+00
       4     1     1     2   512     0 -1.355625607E+01 -9.235076886E+00  2.283235529E+01  2.815359963E+01  1.500000000E+00  0.00000E+00  9.000E+00
      21     1     1     2   515   511  7.612257704E+00  9.133799263E+00 -2.287629422E+01  2.578172984E+01  3.371747881E-07  0.00000E+00  9.000E+00
</event>
<event>
      5  10001  3.52971E+09  9.91907E+00 -1.00000E+00  1.96161E-01
      21    -1     0     0   513   512  0.000000000E+00  0.000000000E+00  5.846124014E+01  5.846124014E+01  0.000000000E+00  0.00000E+00  9.000E+00
      21    -1     0     0   516   514  0.000000000E+00  0.000000000E+00 -9.411646932E+01  9.411646932E+01  0.000000000E+00  0.00000E+00  9.000E+00
      21     1     1     2   513   511  6.287842953E+00 -1.591165383E+01  5.403265343E+01  5.667667362E+01  1.168007728E-06  0.00000E+00  9.000E+00
      21     1     1     2   516   512 -3.983657333E+00  6.263927008E+00 -2.046720591E+00  7.700348855E+00  3.650024150E-07  0.00000E+00  9.000E+00
      21     1     1     2   511   514 -2.304185620E+00  9.647726818E+00 -8.764116202E+01  8.820068698E+01  1.651812370E-06  0.00000E+00  9.000E+00
</event>
<event>
      5  10001  3.52971E+09  6.51269E+00 -1.00000E+00  2.20074E-01
      21    -1     0     0   512   514  0.000000000E+00  0.000000000E+00  3.984119495E+02  3.984119495E+02  0.000000000E+00  0.00000E+00  9.000E+00
      21    -1     0     0   511   517  0.000000000E+00  0.000000000E+00 -1.474850871E+02  1.474850871E+02  0.000000000E+00  0.00000E+00  9.000E+00
      21     1     1     2   515   517 -6.537809197E-01  1.254910083E+01 -1.230203897E+02  1.236605178E+02  2.697398305E-06  0.00000E+00  9.000E+00
      21     1     1     2   511   514  6.791564104E+00 -1.037132629E+01 -2.252478042E+01  2.571099930E+01  6.743495762E-07  0.00000E+00  9.000E+00
      21     1     1     2   512   515 -6.137783184E+00 -2.177774538E+00  3.964720326E+02  3.965255196E+02  7.629394531E-06  0.00000E+00  9.000E+00
</event>
<event>
      5  10001  3.52971E+09  4.05936E+00 -1.00000E+00  2.61963E-01
      21    -1     0     0   513   511  0.000000000E+00  0.000000000E+00  7.118266576E+01  7.118266576E+01  0.000000000E+00  0.00000E+00  9.000E+00
      21    -1     0     0   516   513  0.000000000E+00  0.000000000E+00 -1.374710595E+02  1.374710595E+02  0.000000000E+00  0.00000E+00  9.000E+00
      21     1     1     2   516   515 -2.082420278E+00  1.057138878E+01 -1.367551769E+02  1.371789675E+02  1.907348633E-06  0.00000E+00  9.000E+00
      21     1     1     2   514   511  1.870437985E+00 -4.126437373E+00  4.404766436E+01  4.428004923E+01  8.259061849E-07  0.00000E+00  9.000E+00
      21     1     1     2   515   514  2.119822926E-01 -6.444951406E+00  2.641911875E+01  2.719470850E+01  4.768371582E-07  0.00000E+00  9.000E+00
</event>
<event>
      5  10001  3.52971E+09  1.76708E+01 -1.00000E+00  1.70928E-01
      21    -1     0     0   512   514  0.000000000E+00  0.000000000E+00  4.872910017E+00  4.872910017E+00  0.000000000E+00  0.00000E+00  9.000E+00
      21    -1     0     0   515   517  0.000000000E+00  0.000000000E+00 -8.283239784E+01  8.283239784E+01  0.000000000E+00  0.00000E+00  9.000E+00
      21     1     1     2   512   517 -1.033382755E+01  5.295305314E+00 -7.316534779E+01  7.408101219E+01  0.000000000E+00  0.00000E+00  9.000E+00
      21     1     1     2   515   511  1.387786208E+00  7.080388510E-01 -1.922436466E+00  2.474476013E+00  3.650024150E-08  0.00000E+00  9.000E+00
      21     1     1     2   511   514  8.946041346E+00 -6.003344165E+00 -2.871703570E+00  1.114981965E+01  2.230201594E-07  0.00000E+00  9.000E+00
</event>
<event>
      5  10001  3.52971E+09  1.87088E+00 -1.00000E+00  3.77142E-01
       1    -1     0     0   515     0  0.000000000E+00  0.000000000E+00  3.123646152E+02  3.123646152E+02  0.000000000E+00  0.00000E+00  9.000E+00
      21    -1     0     0   511   513  0.000000000E+00  0.000000000E+00 -6.949204558E-01  6.949204558E-01  0.000000000E+00  0.00000E+00  9.000E+00
      21     1     1     2   515   513 -1.320170979E+01  2.003805883E+00  9.423896435E+01  9.518026467E+01  2.336015456E-06  0.00000E+00  9.000E+00
       1     1     1     2   512     0  1.083592867E+01 -3.023284212E+00  1.877147291E+02  1.880518174E+02  3.300000131E-01  0.00000E+00  9.000E+00
      21     1     1     2   511   512  2.365781122E+00  1.019478329E+00  2.971600131E+01  2.982745363E+01  3.371747881E-07  0.00000E+00  9.000E+00
</event>
<event>
      5  10001  3.52971E+09  1.30592E+01 -1.00000E+00  1.83243E-01
      21    -1     0     0   514   512  0.000000000E+00  0.000000000E+00  1.098209156E+03  1.098209156E+03  0.000000000E+00  0.00000E+00  9.000E+00
       2    -1     0     0   511     0  0.000000000E+00  0.000000000E+00 -6.660241789E+01  6.660241789E+01  0.000000000E+00  0.00000E+00  9.000E+00
      21     1     1     2   514   516  2.585158107E+01  6.460702458E+00  1.049685859E+03  1.050024022E+03  1.525878906E-05  0.00000E+00  9.000E+00
      21     1     1     2   511   512 -1.640894400E+01  2.560339258E+00  4.625213297E+01  4.914334731E+01  2.523185073E-06  0.00000E+00  9.000E+00
       2     1     1     2   516     0 -9.442637075E+00 -9.021041716E+00 -6.433125324E+01  6.564420486E+01  3.300000131E-01  0.00000E+00  9.000E+00
</event>
<event>
      5  10001  3.52971E+09  9.80709E+00 -1.00000E+00  1.96736E-01
      21    -1     0     0   513   511  0.000000000E+00  0.000000000E+00  1.287867006E+01  1.287867006E+01  0.000000000E+00  0.00000E+00  9.000E+00
      21    -1     0     0   516   512  0.000000000E+00  0.000000000E+00 -5.737192393E+01  5.737192393E+01  0.000000000E+00  0.00000E+00  9.000E+00
      21     1     1     2   513   515 -1.062097899E+01  3.592967803E+00 -3.637618781E+01  3.806496620E+01  4.768371582E-07  0.00000E+00  9.000E+00
      21     1     1     2   516   511  1.378710867E+01 -1.287491968E+01  8.693428764E-01  1.888395296E+01  4.145630522E-07  0.00000E+00  9.000E+00
      21     1     1     2   515   512 -3.166129679E+00  9.281951879E+00 -8.986408937E+00  1.330167483E+01  2.064765462E-07  0.00000E+00  9.000E+00
</event>
<event>
      5  10001  3.52971E+09  3.00609E+00 -1.00000E+00  2.96590E-01
      -3    -1     0     0     0   511  0.000000000E+00  0.000000000E+00  3.876905864E+01  3.876905864E+01  0.000000000E+00  0.00000E+00  9.000E+00
       4    -1     0     0   511     0  0.000000000E+00  0.000000000E+00 -4.964373808E+01  4.964373808E+01  0.000000000E+00  0.00000E+00  9.000E+00
      -3     1     1     2     0   513  1.094774485E-01 -8.023664524E+00  3.606253792E+01  3.694790683E+01  5.000000000E-01  0.00000E+00  9.000E+00
       4     1     1     2   512     0 -2.178692092E+00  9.781369167E+00 -4.760298832E+01  4.866946044E+01  1.500000000E+00  0.00000E+00  9.000E+00
      21     1     1     2   513   512  2.069214644E+00 -1.757704643E+00  6.657709645E-01  2.795429454E+00  6.746787681E-08  0.00000E+00  9.000E+00
</event>
<event>
      5  10001  3.52971E+09  1.27633E+01 -1.00000E+00  1.84251E-01
       1    -1     0     0   513     0  0.000000000E+00  0.000000000E+00  5.751232251E+01  5.751232251E+01  0.000000000E+00  0.00000E+00  9.000E+00
      21    -1     0     0   514   511  0.000000000E+00  0.000000000E+00 -1.571920568E+02  1.571920568E+02  0.000000000E+00  0.00000E+00  9.000E+00
      21     1     1     2   513   512  1.327274768E+01 -1.009964038E+01 -3.708563502E+01  4.066340974E+01  4.768371582E-07  0.00000E+00  9.000E+00
       1     1     1     2   514     0 -2.380268523E+01  2.887056316E+00  5.277535647E+01  5.796766399E+01  3.300000131E-01  0.00000E+00  9.000E+00
      21     1     1     2   512   511  1.052993755E+01  7.212584062E+00 -1.153694557E+02  1.160733056E+02  1.907348633E-06  0.00000E+00  9.000E+00
</event>
<event>
      5  10001  3.52971E+09  3.24779E+00 -1.00000E+00  2.86777E-01
      -1    -1     0     0     0   515  0.000000000E+00  0.000000000E+00  5.138631406E+02  5.138631406E+02  0.000000000E+00  0.00000E+00  9.000E+00
      21    -1     0     0   513   511  0.000000000E+00  0.000000000E+00 -2.987749092E-01  2.987749092E-01  0.000000000E+00  0.00000E+00  9.000E+00
      -1     1     1     2     0   511  1.176770213E+01  1.607864746E+00  3.213535196E+02  3.215730982E+02  3.300000131E-01  0.00000E+00  9.000E+00
      21     1     1     2   514   515 -3.175140492E+00 -2.081906129E-01  3.830059354E+01  3.843254254E+01  1.168007728E-06  0.00000E+00  9.000E+00
      21     1     1     2   513   514 -8.592561640E+00 -1.399674133E+00  1.539102525E+02  1.541562747E+02  3.814697266E-06  0.00000E+00  9.000E+00
</event>
<event>
      5  10001  3.52971E+09  2.50208E+00 -1.00000E+00  3.23022E-01
      21    -1     0     0   512   511  0.000000000E+00  0.000000000E+00  1.081560118E+02  1.081560118E+02  0.000000000E+00  0.00000E+00  9.000E+00
      21    -1     0     0   515   516  0.000000000E+00  0.000000000E+00 -1.647986746E+00  1.647986746E+00  0.000000000E+00  0.00000E+00  9.000E+00
      21     1     1     2   512   516  1.594040163E+00 -9.225159872E+00  7.186611598E+01  7.247332726E+01  1.651812370E-06  0.00000E+00  9.000E+00
      21     1     1     2   513   511 -3.591518180E+00  1.073196690E+01  2.988181492E+01  3.195304335E+01  6.743495762E-07  0.00000E+00  9.000E+00
      21     1     1     2   515   513  1.997478017E+00 -1.506807031E+00  4.760094182E+00  5.377627960E+00  5.960464478E-08  0.00000E+00  9.000E+00
</event>
<event>
      5  10001  3.52971E+09  5.25585E+00 -1.00000E+00  2.34784E-01
      21    -1     0     0   514   513  0.000000000E+00  0.000000000E+00  1.199092953E+00  1.199092953E+00  0.000000000E+00  0.00000E+00  9.000E+00
      21    -1     0     0   511   517  0.000000000E+00  0.000000000E+00 -4.263056231E+02  4.263056231E+02  0.000000000E+00  0.00000E+00  9.000E+00
      21     1     1     2   514   517  4.363576440E-01  1.165239878E+01 -3.828837574E+01  4.002459896E+01  1.261592536E-06  0.00000E+00  9.000E+00
      21     1     1     2   515   513 -5.390110385E+00 -9.896182896E+00 -1.032278661E+02  1.038411290E+02  1.907348633E-06  0.00000E+00  9.000E+00
      21     1     1     2   511   515  4.953752741E+00 -1.756215884E+00 -2.835902883E+02  2.836389881E+02  0.000000000E+00  0.00000E+00  9.000E+00
</event>
<event>
      5  10001  3.52971E+09  9.41793E+00 -1.00000E+00  1.98812E-01
      21    -1     0     0   512   513  0.000000000E+00  0.000000000E+00  3.205166703E+02  3.205166703E+02  0.000000000E+00  0.00000E+00  9.000E+00
      21    -1     0     0   511   516  0.000000000E+00  0.000000000E+00 -3.159755199E+00  3.159755199E+00  0.000000000E+00  0.00000E+00  9.000E+00
      21     1     1     2   512   516  1.089054134E+01  9.917034676E+00  2.637059630E+02  2.641169938E+02  0.000000000E+00  0.00000E+00  9.000E+00
      21     1     1     2   511   515 -5.823550869E+00 -1.978330183E+00  1.195866206E+00  6.265591035E+00  4.942156062E-07  0.00000E+00  9.000E+00
      21     1     1     2   515   513 -5.066990469E+00 -7.938704492E+00  5.245508590E+01  5.329384072E+01  6.743495762E-07  0.00000E+00  9.000E+00
</event>
<event>
      5  10001  3.52971E+09  1.83639E+01 -1.00000E+00  1.69483E-01
      21    -1     0     0   514   511  0.000000000E+00  0.000000000E+00  5.391358495E-01  5.391358495E-01  0.000000000E+00  0.00000E+00  9.000E+00
       2    -1     0     0   513     0  0.000000000E+00  0.000000000E+00 -1.199950342E+03  1.199950342E+03  0.000000000E+00  0.00000E+00  9.000E+00
      21     1     1     2   513   511 -1.684656311E+01 -1.761211657E+01 -5.591695234E+02  5.597004102E+02  7.629394531E-06  0.00000E+00  9.000E+00
      21     1     1     2   514   512  2.429713999E+00  4.385304487E+00 -5.725395202E+01  5.747303217E+01  9.536743164E-07  0.00000E+00  9.000E+00
       2     1     1     2   512     0  1.441684911E+01  1.322681209E+01 -5.829877310E+02  5.833160357E+02  3.300000131E-01  0.00000E+00  9.000E+00
</event>
<event>
      5  10001  3.52971E+09  6.79758E+00 -1.00000E+00  2.17365E-01
      -3    -1     0     0     0   513  0.000000000E+00  0.000000000E+00  3.830974528E+02  3.830974528E+02  0.000000000E+00  0.00000E+00  9.000E+00
      21    -1     0     0   511   516  0.000000000E+00  0.000000000E+00 -2.103237354E+00  2.103237354E+00  0.000000000E+00  0.00000E+00  9.000E+00
      21     1     1     2   515   516  5.982743109E+00 -5.200084796E+00  8.084160845E+01  8.122930355E+01  1.348699152E-06  0.00000E+00  9.000E+00
      21     1     1     2   511   513 -1.266923590E+01  3.980133387E+00  2.173782057E+01  2.547319853E+01  4.129530925E-07  0.00000E+00  9.000E+00
      -3     1     1     2     0   515  6.686492789E+00  1.219951409E+00  2.784147864E+02  2.784981881E+02  5.000000000E-01  0.00000E+00  9.000E+00
</event>
<event>
      5  10001  3.52971E+09  3.99571E+00 -1.00000E+00  2.63572E-01
      21    -1     0     0   511   512  0.000000000E+00  0.000000000E+00  3.826992029E+00  3.826992029E+00  0.000000000E+00  0.00000E+00  9.000E+00
       2    -1     0     0   512     0  0.000000000E+00  0.000000000E+00 -5.861190864E+01  5.861190864E+01  0.000000000E+00  0.00000E+00  9.000E+00
      -2     1     1     2     0   513 -8.897214606E+00  7.460395212E+00 -2.600444248E+01  2.848083309E+01  3.300000131E-01  0.00000E+00  9.000E+00
       2     1     1     2   513     0  4.927089636E+00 -7.891432008E+00 -2.845356443E+01  2.993768762E+01  3.300000131E-01  0.00000E+00  9.000E+00
       2     1     1     2   511     0  3.970124970E+00  4.310367959E-01 -3.269096911E-01  4.020379952E+00  3.300000131E-01  0.00000E+00  9.000E+00
</event>
<event>
      5  10001  3.52971E+09  7.77177E+00 -1.00000E+00  2.09322E-01
      21    -1     0     0   514   513  0.000000000E+00  0.000000000E+00  1.324178445E+01  1.324178445E+01  0.000000000E+00  0.00000E+00  9.000E+00
      21    -1     0     0   512   514  0.000000000E+00  0.000000000E+00 -7.490937593E+01  7.490937593E+01  0.000000000E+00  0.00000E+00  9.000E+00
      21     1     1     2   512   515 -1.397209203E+01 -3.585179336E+00 -6.676019927E+01  6.830078384E+01  0.000000000E+00  0.00000E+00  9.000E+00
      21     1     1     2   516   513  8.816075926E+00  7.919821341E+00  5.575572089E+00  1.309709009E+01  3.318646170E-07  0.00000E+00  9.000E+00
      21     1     1     2   515   516  5.156016107E+00 -4.334642005E+00 -4.829642969E-01  6.753286453E+00  9.140256156E-08  0.00000E+00  9.000E+00
</event>
<event>
      5  10001  3.52971E+09  2.21477E+01 -1.00000E+00  1.62792E-01
      21    -1     0     0   516   512  0.000000000E+00  0.000000000E+00  2.207479968E+00  2.207479968E+00  0.000000000E+00  0.00000E+00  9.000E+00
      21    -1     0     0   511   516  0.000000000E+00  0.000000000E+00 -1.167337658E+02  1.167337658E+02  0.000000000E+00  0.00000E+00  9.000E+00
      -3     1     1     2     0   512  3.884073720E+00  7.386603696E+00 -2.565993402E+01  2.698759264E+01  5.000000000E-01  0.00000E+00  9.000E+00
      21     1     1     2   511   513 -3.652738373E+00 -1.001216692E+00 -8.352433321E+01  8.361016189E+01  1.651812370E-06  0.00000E+00  9.000E+00
       3     1     1     2   513     0 -2.313353470E-01 -6.385387003E+00 -5.342018592E+00  8.343491227E+00  5.000000000E-01  0.00000E+00  9.000E+00
</event>
<event>
      5  10001  3.52971E+09  6.84455E+00 -1.00000E+00  2.16936E-01
      21    -1     0     0   514   512  0.000000000E+00  0.000000000E+00  5.836184413E+01  5.836184413E+01  0.000000000E+00  0.00000E+00  9.000E+00
      21    -1     0     0   515   514  0.000000000E+00  0.000000000E+00 -2.310016800E+02  2.310016800E+02  0.000000000E+00  0.00000E+00  9.000E+00
      21     1     1     2   511   513 -1.213335975E+00 -1.371797247E+01  2.998369481E+01  3.299510429E+01  2.384185791E-06  0.00000E+00  9.000E+00
      21     1     1     2   515   511  2.812275328E+00  7.062807405E+00 -2.289960391E+02  2.291221902E+02  2.697398305E-06  0.00000E+00  9.000E+00
      21     1     1     2   513   512 -1.598939353E+00  6.655165063E+00  2.637250840E+01  2.724622962E+01  0.000000000E+00  0.00000E+00  9.000E+00
</event>
<event>
      5  10001  3.52971E+09  9.46788E+00 -1.00000E+00  1.98538E-01
      21    -1     0     0   513   511  0.000000000E+00  0.000000000E+00  6.925593748E+01  6.925593748E+01  0.000000000E+00  0.00000E+00  9.000E+00
      21    -1     0     0   516   514  0.000000000E+00  0.000000000E+00 -7.516391581E+00  7.516391581E+00  0.000000000E+00  0.00000E+00  9.000E+00
      21     1     1     2   513   514  1.385824799E-01 -7.196816322E+00  3.203911505E+01  3.283775667E+01  4.768371582E-07  0.00000E+00  9.000E+00
       5     1     1     2   516     0 -7.810555095E+00  1.217999097E+01  3.317988811E+00  1.560147437E+01  4.800000191E+00  0.00000E+00  9.000E+00
      -5     1     1     2     0   511  7.671972615E+00 -4.983174650E+00  2.638244204E+01  2.833309802E+01  4.800000191E+00  0.00000E+00  9.000E+00
</event>
<event>
      5  10001  3.52971E+09  6.09060E+00 -1.00000E+00  2.24460E-01
      21    -1     0     0   512   516  0.000000000E+00  0.000000000E+00  3.908293771E+02  3.908293771E+02  0.000000000E+00  0.00000E+00  9.000E+00
      21    -1     0     0   511   512  0.000000000E+00  0.000000000E+00 -1.391124444E+00  1.391124444E+00  0.000000000E+00  0.00000E+00  9.000E+00
      21     1     1     2   515   516 -6.882672240E+00 -6.414334489E+00  3.326934024E+02  3.328264035E+02  5.394796609E-06  0.00000E+00  9.000E+00
      21     1     1     2   513   515  7.630739694E+00  3.146781736E+00  1.223925992E+01  1.476244922E+01  4.460403188E-07  0.00000E+00  9.000E+00
      21     1     1     2   511   513 -7.480674539E-01  3.267552753E+00  4.450559037E+01  4.463164886E+01  6.743495762E-07  0.00000E+00  9.000E+00
</event>
<event>
      5  10001  3.52971E+09  6.68709E+00 -1.00000E+00  2.18394E-01
      21    -1     0     0   514   515  0.000000000E+00  0.000000000E+00  3.941290554E+01  3.941290554E+01  0.000000000E+00  0.00000E+00  9.000E+00
      21    -1     0     0   512   514  0.000000000E+00  0.000000000E+00 -4.699191814E+01  4.699191814E+01  0.000000000E+00  0.00000E+00  9.000E+00
      21     1     1     2   513   515 -1.636866054E+01 -8.380213158E+00  3.056038790E+01  3.566648747E+01  5.840038640E-07  0.00000E+00  9.000E+00
      21     1     1     2   511   513  9.774579602E+00  7.268783915E+00 -1.675770590E-01  1.218218815E+01  2.749847202E-07  0.00000E+00  9.000E+00
      21     1     1     2   512   511  6.594080935E+00  1.111429243E+00 -3.797182343E+01  3.855614806E+01  0.000000000E+00  0.00000E+00  9.000E+00
</event>
<event>
      5  10001  3.52971E+09  1.47955E+01 -1.00000E+00  1.77943E-01
      21    -1     0     0   516   511  0.000000000E+00  0.000000000E+00  4.013757295E+01  4.013757295E+01  0.000000000E+00  0.00000E+00  9.000E+00
      21    -1     0     0   512   517  0.000000000E+00  0.000000000E+00 -1.094058112E+02  1.094058112E+02  0.000000000E+00  0.00000E+00  9.000E+00
      21     1     1     2   516   517  2.621326169E+01 -7.287809411E+00 -9.803443969E+01  1.017398576E+02  1.348699152E-06  0.00000E+00  9.000E+00
       3     1     1     2   512     0 -1.647927977E+01 -3.277482381E+00  2.889470403E+01  3.342846801E+01  5.000000000E-01  0.00000E+00  9.000E+00
      -3     1     1     2     0   511 -9.733981917E+00  1.056529179E+01 -1.285025376E-01  1.437505852E+01  5.000000000E-01  0.00000E+00  9.000E+00
</event>
<event>
      5  10001  3.52971E+09  2.08499E+01 -1.00000E+00  1.64888E-01
      21    -1     0     0   513   512  0.000000000E+00  0.000000000E+00  4.903766366E+01  4.903766366E+01  0.000000000E+00  0.00000E+00  9.000E+00
      21    -1     0     0   514   511  0.000000000E+00  0.000000000E+00 -2.923629549E+00  2.923629549E+00  0.000000000E+00  0.00000E+00  9.000E+00
      21     1     1     2   513   511 -1.126269913E+00  3.249781835E+00  4.678998939E+00  5.807116062E+00  1.032382731E-07  0.00000E+00  9.000E+00
      21     1     1     2   514   515 -4.278424342E-01  3.311329152E+00  3.875477447E+01  3.889833536E+01  6.743495762E-07  0.00000E+00  9.000E+00
      21     1     1     2   515   512  1.554112347E+00 -6.561110987E+00  2.680260703E+00  7.255841785E+00  2.230201594E-07  0.00000E+00  9.000E+00
</event>
<event>
      5  10001  3.52971E+09  1.30539E+01 -1.00000E+00  1.83260E-01
      21    -1     0     0   516   512  0.000000000E+00  0.000000000E+00  1.013222418E+02  1.013222418E+02  0.000000000E+00  0.00000E+00  9.000E+00
      21    -1     0     0   515   516  0.000000000E+00  0.000000000E+00 -1.068586617E+02  1.068586617E+02  0.000000000E+00  0.00000E+00  9.000E+00
      -5     1     1     2     0   512 -1.080127583E+01 -8.606470049E+00  9.905095582E+01  1.001242765E+02  4.800000191E+00  0.00000E+00  9.000E+00
      21     1     1     2   515   511  6.674866950E+00  1.573134247E+01 -7.686671792E+01  7.874338898E+01  1.348699152E-06  0.00000E+00  9.000E+00
       5     1     1     2   511     0  4.126408882E+00 -7.124872420E+00 -2.772065779E+01  2.931323809E+01  4.800000191E+00  0.00000E+00  9.000E+00
</event>
<event>
      5  10001  3.52971E+09  4.55462E+00 -1.00000E+00  2.50846E-01
      21    -1     0     0   513   512  0.000000000E+00  0.000000000E+00  2.729401341E-01  2.729401341E-01  0.000000000E+00  0.00000E+00  9.000E+00
       2    -1     0     0   512     0  0.000000000E+00  0.000000000E+00 -9.965131363E+02  9.965131363E+02  0.000000000E+00  0.00000E+00  9.000E+00
      21     1     1     2   513   514  1.368183430E+00  3.460581146E+00 -2.244863956E+01  2.275497673E+01  1.066240300E-06  0.00000E+00  9.000E+00
       2     1     1     2   511     0 -2.359159794E+00 -9.583048391E+00 -8.690369517E+02  8.690930518E+02  3.300000131E-01  0.00000E+00  9.000E+00
      21     1     1     2   514   511  9.909763637E-01  6.122467245E+00 -1.047546050E+02  1.049380479E+02  1.907348633E-06  0.00000E+00  9.000E+00
</event>
<event>
      5  10001  3.52971E+09  6.39055E+00 -1.00000E+00  2.21295E-01
      -3    -1     0     0     0   512  0.000000000E+00  0.000000000E+00  4.923265558E+01  4.923265558E+01  0.000000000E+00  0.00000E+00  9.000E+00
       2    -1     0     0   512     0  0.000000000E+00  0.000000000E+00 -2.607003633E+00  2.607003633E+00  0.000000000E+00  0.00000E+00  9.000E+00
      -3     1     1     2     0   515  3.654256486E+00  3.668030567E+00  2.501530209E+01  2.555040856E+01  5.000000000E-01  0.00000E+00  9.000E+00
       2     1     1     2   513     0 -2.612716727E+00 -9.015281619E+00  1.195482907E+01  1.520290858E+01  3.300000131E-01  0.00000E+00  9.000E+00
      21     1     1     2   515   513 -1.041539759E+00  5.347251052E+00  9.655520795E+00  1.108634208E+01  1.685873940E-07  0.00000E+00  9.000E+00
</event>
<event>
      5  10001  3.52971E+09  5.09696E+00 -1.00000E+00  2.37061E-01
       2    -1     0     0   511     0  0.000000000E+00  0.000000000E+00  8.348162249E+02  8.348162249E+02  0.000000000E+00  0.00000E+00  9.000E+00
       1    -1     0     0   512     0  0.000000000E+00  0.000000000E+00 -3.374313374E-01  3.374313374E-01  0.000000000E+00  0.00000E+00  9.000E+00
      21     1     1     2   511   514  9.956886385E-01  3.212358272E+00  2.112392984E+01  2.138997553E+01  8.259061849E-07  0.00000E+00  9.000E+00
       2     1     1     2   512     0  1.155534178E+00 -1.055884066E+01  7.248159414E+02  7.248938420E+02  3.300000131E-01  0.00000E+00  9.000E+00
       1     1     1     2   514     0 -2.151222816E+00  7.346482393E+00  8.853892234E+01  8.886983871E+01  3.300000131E-01  0.00000E+00  9.000E+00
</event>
<event>
      5  10001  3.52971E+09  5.90904E+00 -1.00000E+00  2.26501E-01
      21    -1     0     0   513   512  0.000000000E+00  0.000000000E+00  1.008745276E+02  1.008745276E+02  0.000000000E+00  0.00000E+00  9.000E+00
      21    -1     0     0   515   513  0.000000000E+00  0.000000000E+00 -1.372036498E+00  1.372036498E+00  0.000000000E+00  0.00000E+00  9.000E+00
      21     1     1     2   515   516 -9.495128287E+00 -2.023980804E+00  2.446896056E+01  2.632458908E+01  4.768371582E-07  0.00000E+00  9.000E+00
      21     1     1     2   511   512  4.551020325E+00 -1.169659450E+00  4.932304220E+01  4.954636597E+01  6.743495762E-07  0.00000E+00  9.000E+00
      21     1     1     2   516   511  4.944107962E+00  3.193640254E+00  2.571048835E+01  2.637560905E+01  3.371747881E-07  0.00000E+00  9.000E+00
</event>
<event>
      5  10001  3.52971E+09  6.14473E+00 -1.00000E+00  2.23870E-01
      21    -1     0     0   514   511  0.000000000E+00  0.000000000E+00  4.643073111E+00  4.643073111E+00  0.000000000E+00  0.00000E+00  9.000E+00
      21    -1     0     0   517   514  0.000000000E+00  0.000000000E+00 -3.895181437E+01  3.895181437E+01  0.000000000E+00  0.00000E+00  9.000E+00
      21     1     1     2   517   515 -9.379512277E-01 -8.646645309E+00 -2.719242481E+01  2.854946925E+01  4.768371582E-07  0.00000E+00  9.000E+00
      21     1     1     2   512   511  3.431648980E-01  5.126004801E+00  1.797681039E+00  5.442916909E+00  2.502330486E-07  0.00000E+00  9.000E+00
      21     1     1     2   515   512  5.947863297E-01  3.520640508E+00 -8.913997489E+00  9.602501319E+00  1.192092896E-07  0.00000E+00  9.000E+00
</event>
<event>
      5  10001  3.52971E+09  5.59913E+00 -1.00000E+00  2.30233E-01
       4    -1     0     0   514     0  0.000000000E+00  0.000000000E+00  8.343054724E+00  8.343054724E+00  0.000000000E+00  0.00000E+00  9.000E+00
       2    -1     0     0   511     0  0.000000000E+00  0.000000000E+00 -1.407988868E+02  1.407988868E+02  0.000000000E+00  0.00000E+00  9.000E+00
       2     1     1     2   513     0  3.393062561E+00  1.407207801E+01 -1.321570889E+02  1.329478894E+02  3.300000131E-01  0.00000E+00  9.000E+00
       4     1     1     2   511     0 -5.315295314E+00 -8.817360947E+00  9.932845301E-01  1.045154690E+01  1.500000000E+00  0.00000E+00  9.000E+00
      21     1     1     2   514   513  1.922232753E+00 -5.254717066E+00 -1.292027668E+00  5.742505176E+00  1.105099691E-07  0.00000E+00  9.000E+00
</event>
<event>
      5  10001  3.52971E+09  4.37742E+00 -1.00000E+00  2.54564E-01
      21    -1     0     0   512   511  0.000000000E+00  0.000000000E+00  2.714892604E+02  2.714892604E+02  0.000000000E+00  0.00000E+00  9.000E+00
      21    -1     0     0   515   512  0.000000000E+00  0.000000000E+00 -1.077220099E+02  1.077220099E+02  0.000000000E+00  0.00000E+00  9.000E+00
      21     1     1     2   515   513  1.922708584E+00  9.825251762E+00 -1.073654318E+02  1.078312029E+02  2.336015456E-06  0.00000E+00  9.000E+00
      -3     1     1     2     0   511  1.127376227E+00 -4.743919464E+00  1.714959330E+02  1.715659663E+02  5.000000000E-01  0.00000E+00  9.000E+00
       3     1     1     2   513     0 -3.050084811E+00 -5.081332298E+00  9.963674932E+01  9.981410106E+01  5.000000000E-01  0.00000E+00  9.000E+00
</event>
<event>
      5  10001  3.52971E+09  3.21650E+00 -1.00000E+00  2.87967E-01
       3    -1     0     0   513     0  0.000000000E+00  0.000000000E+00  3.712406585E+02  3.712406585E+02  0.000000000E+00  0.00000E+00  9.000E+00
      21    -1     0     0   511   512  0.000000000E+00  0.000000000E+00 -1.560724552E+00  1.560724552E+00  0.000000000E+00  0.00000E+00  9.000E+00
      21     1     1     2   513   512  1.065220785E+01 -9.271626638E+00  9.168379121E+01  9.276502662E+01  0.000000000E+00  0.00000E+00  9.000E+00
       3     1     1     2   514     0 -8.797355192E+00  6.644332371E+00  2.760640352E+02  2.762845311E+02  5.000000000E-01  0.00000E+00  9.000E+00
      21     1     1     2   511   514 -1.854852655E+00  2.627294267E+00  1.932107527E+00  3.751825294E+00  1.712013080E-07  0.00000E+00  9.000E+00
</event>
<event>
      5  10001  3.52971E+09  1.19877E+01 -1.00000E+00  1.87071E-01
      21    -1     0     0   515   512  0.000000000E+00  0.000000000E+00  2.665797897E+01  2.665797897E+01  0.000000000E+00  0.00000E+00  9.000E+00
      21    -1     0     0   511   516  0.000000000E+00  0.000000000E+00 -4.184904947E+01  4.184904947E+01  0.000000000E+00  0.00000E+00  9.000E+00
      21     1     1     2   515   516  7.712784301E+00 -7.124440000E+00  2.166249231E+01  2.407297780E+01  2.384185791E-07  0.00000E+00  9.000E+00
      21     1     1     2   513   512 -1.676307441E+00  1.247650868E+01 -3.333481628E+01  3.563261501E+01  0.000000000E+00  0.00000E+00  9.000E+00
      21     1     1     2   511   513 -6.036476859E+00 -5.352068683E+00 -3.518746521E+00  8.801435630E+00  0.000000000E+00  0.00000E+00  9.000E+00
</event>
<event>
      5  10001  3.52971E+09  2.54168E+00 -1.00000E+00  3.20564E-01
      21    -1     0     0   514   512  0.000000000E+00  0.000000000E+00  2.074450144E+01  2.074450144E+01  0.000000000E+00  0.00000E+00  9.000E+00
      21    -1     0     0   511   514  0.000000000E+00  0.000000000E+00 -7.273606077E+01  7.273606077E+01  0.000000000E+00  0.00000E+00  9.000E+00
      21     1     1     2   511   517 -9.629122805E+00 -9.571858522E+00 -5.739642338E+01  5.898041962E+01  6.743495762E-07  0.00000E+00  9.000E+00
      21     1     1     2   517   513  7.621310161E+00  8.013385757E+00 -1.234224242E+01  1.657195425E+01  4.768371582E-07  0.00000E+00  9.000E+00
      21     1     1     2   513   512  2.007812644E+00  1.558472764E+00  1.774710647E+01  1.792818833E+01  2.384185791E-07  0.00000E+00  9.000E+00
</event>
<event>
      5  10001  3.52971E+09  6.13141E+00 -1.00000E+00  2.24014E-01
       1    -1     0     0   515     0  0.000000000E+00  0.000000000E+00  1.728051056E+02  1.728051056E+02  0.000000000E+00  0.00000E+00  9.000E+00
      21    -1     0     0   513   514  0.000000000E+00  0.000000000E+00 -7.161030352E-01  7.161030352E-01  0.000000000E+00  0.00000E+00  9.000E+00
      -1     1     1     2     0   514 -4.247013370E+00  1.260393343E+00  5.946159632E+01  5.962730960E+01  3.300000131E-01  0.00000E+00  9.000E+00
       1     1     1     2   513     0  1.044102872E+01  2.416004154E-01  7.594428125E+01  7.665974306E+01  3.300000131E-01  0.00000E+00  9.000E+00
       1     1     1     2   515     0 -6.194015348E+00 -1.501993758E+00  3.668312503E+01  3.723415601E+01  3.300000131E-01  0.00000E+00  9.000E+00
</event>
<event>
      5  10001  3.52971E+09  1.29752E+01 -1.00000E+00  1.83525E-01
      21    -1     0     0   511   516  0.000000000E+00  0.000000000E+00  9.424569151E+01  9.424569151E+01  0.000000000E+00  0.00000E+00  9.000E+00
      21    -1     0     0   512   511  0.000000000E+00  0.000000000E+00 -3.022229716E+01  3.022229716E+01  0.000000000E+00  0.00000E+00  9.000E+00
      21     1     1     2   513   516  1.329643565E+01 -1.085620954E+01  8.538802903E+01  8.709631443E+01  0.000000000E+00  0.00000E+00  9.000E+00
       5     1     1     2   512     0 -3.610654049E+00  3.737916609E+00 -2.324042036E+01  2.429333209E+01  4.800000191E+00  0.00000E+00  9.000E+00
      -5     1     1     2     0   513 -9.685781603E+00  7.118292932E+00  1.875785688E+00  1.307834215E+01  4.800000191E+00  0.00000E+00  9.000E+00
</event>
<event>
      5  10001  3.52971E+09  4.15589E+00 -1.00000E+00  2.59610E-01
      21    -1     0     0   514   511  0.000000000E+00  0.000000000E+00  9.867913453E+01  9.867913453E+01  0.000000000E+00  0.00000E+00  9.000E+00
      21    -1     0     0   515   514  0.000000000E+00  0.000000000E+00 -2.795001062E+02  2.795001062E+02  0.000000000E+00  0.00000E+00  9.000E+00
      21     1     1     2   512   513 -8.738270394E+00  9.970101831E+00  9.513535244E+01  9.605464894E+01  3.015782986E-06  0.00000E+00  9.000E+00
      21     1     1     2   515   512  5.161712267E+00 -7.853591663E+00 -2.775238367E+02  2.776829165E+02  3.814697266E-06  0.00000E+00  9.000E+00
      21     1     1     2   513   511  3.576558127E+00 -2.116510169E+00  1.567512630E+00  4.441675266E+00  3.650024150E-08  0.00000E+00  9.000E+00
</event>
<event>
      5  10001  3.52971E+09  8.02608E+00 -1.00000E+00  2.07481E-01
      21    -1     0     0   516   515  0.000000000E+00  0.000000000E+00  3.216648520E+00  3.216648520E+00  0.000000000E+00  0.00000E+00  9.000E+00
      21    -1     0     0   513   511  0.000000000E+00  0.000000000E+00 -6.803041165E+01  6.803041165E+01  0.000000000E+00  0.00000E+00  9.000E+00
      21     1     1     2   516   511  9.879020024E+00 -1.081338638E+00 -7.049184153E+00  1.218422452E+01  1.685873940E-07  0.00000E+00  9.000E+00
      21     1     1     2   513   512 -6.825388856E+00  8.224660797E-01 -1.951192503E+01  2.068761953E+01  4.129530925E-07  0.00000E+00  9.000E+00
      21     1     1     2   512   515 -3.053631168E+00  2.588725582E-01 -3.825265395E+01  3.837521612E+01  6.743495762E-07  0.00000E+00  9.000E+00
</event>
<event>
      5  10001  3.52971E+09  8.45154E+00 -1.00000E+00  2.04596E-01
      21    -1     0     0   514   511  0.000000000E+00  0.000000000E+00  1.555241668E+00  1.555241668E+00  0.000000000E+00  0.00000E+00  9.000E+00
      21    -1     0     0   517   515  0.000000000E+00  0.000000000E+00 -1.641096608E+02  1.641096608E+02  0.000000000E+00  0.00000E+00  9.000E+00
      21     1     1     2   514   515 -1.299551983E+00 -9.263382196E+00 -2.163081601E+01  2.356674111E+01  6.743495762E-07  0.00000E+00  9.000E+00
      21     1     1     2   513   511 -1.334453082E+00  1.042907585E+01 -1.359095936E+02  1.363156778E+02  1.907348633E-06  0.00000E+00  9.000E+00
      21     1     1     2   517   513  2.634005065E+00 -1.165693658E+00 -5.014009521E+00  5.782483538E+00  8.429369702E-08  0.00000E+00  9.000E+00
</event>
<event>
      5  10001  3.52971E+09  6.71689E+00 -1.00000E+00  2.18114E-01
      21    -1     0     0   512   513  0.000000000E+00  0.000000000E+00  2.909918623E+00  2.909918623E+00  0.000000000E+00  0.00000E+00  9.000E+00
      21    -1     0     0   517   511  0.000000000E+00  0.000000000E+00 -1.401329052E+02  1.401329052E+02  0.000000000E+00  0.00000E+00  9.000E+00
      21     1     1     2   512   516 -8.076960605E+00  4.221661558E+00 -9.055975512E+01  9.101719050E+01  1.348699152E-06  0.00000E+00  9.000E+00
      21     1     1     2   517   513  9.115321891E+00 -1.085780919E+01 -1.990652447E+01  2.443871580E+01  5.331201500E-07  0.00000E+00  9.000E+00
      21     1     1     2   516   511 -1.038361286E+00  6.636147632E+00 -2.675670696E+01  2.758691749E+01  0.000000000E+00  0.00000E+00  9.000E+00
</event>
<event>
      5  10001  3.52971E+09  2.59402E+01 -1.00000E+00  1.57556E-01
       2    -1     0     0   515     0  0.000000000E+00  0.000000000E+00  9.346350792E+02  9.346350792E+02  0.000000000E+00  0.00000E+00  9.000E+00
      21    -1     0     0   514   511  0.000000000E+00  0.000000000E+00 -2.655112748E+00  2.655112748E+00  0.000000000E+00  0.00000E+00  9.000E+00
      21     1     1     2   515   511 -8.235606192E+00  2.002499532E+01  6.690878543E+02  6.694381095E+02  7.629394531E-06  0.00000E+00  9.000E+00
      21     1     1     2   514   512  8.549440821E+00 -1.152281984E+01  1.898809081E+01  2.379949386E+01  6.307962682E-07  0.00000E+00  9.000E+00
       2     1     1     2   512     0 -3.138346290E-01 -8.502175476E+00  2.439040213E+02  2.440525886E+02  3.300000131E-01  0.00000E+00  9.000E+00
</event>
<event>
      5  10001  3.52971E+09  7.87155E+00 -1.00000E+00  2.08589E-01
      21    -1     0     0   513   511  0.000000000E+00  0.000000000E+00  1.465706284E+01  1.465706284E+01  0.000000000E+00  0.00000E+00  9.000E+00
      21    -1     0     0   517   516  0.000000000E+00  0.000000000E+00 -2.898707329E+01  2.898707329E+01  0.000000000E+00  0.00000E+00  9.000E+00
      21     1     1     2   513   516 -7.730513851E+00 -6.106209654E+00  1.147045127E+01  1.512011551E+01  1.685873940E-07  0.00000E+00  9.000E+00
      -4     1     1     2     0   511  3.073118477E+00 -5.762991306E-01 -1.135370880E+01  1.187151555E+01  1.500000000E+00  0.00000E+00  9.000E+00
       4     1     1     2   517     0  4.657395373E+00  6.682508785E+00 -1.444675292E+01  1.665250508E+01  1.500000000E+00  0.00000E+00  9.000E+00
</event>
<event>
      5  10001  3.52971E+09  3.54476E+00 -1.00000E+00  2.76471E-01
      21    -1     0     0   512   511  0.000000000E+00  0.000000000E+00  1.173420966E+02  1.173420966E+02  0.000000000E+00  0.00000E+00  9.000E+00
      21    -1     0     0   514   512  0.000000000E+00  0.000000000E+00 -1.115067867E+01  1.115067867E+01  0.000000000E+00  0.00000E+00  9.000E+00
      21     1     1     2   514   515 -1.071872179E+01  3.385792087E+00 -2.945734508E+00  1.162032429E+01  3.475518164E-07  0.00000E+00  9.000E+00
      21     1     1     2   515   516  9.510461399E+00 -5.331338322E-02  2.053035712E+00  9.729680055E+00  3.182017282E-07  0.00000E+00  9.000E+00
      21     1     1     2   516   511  1.208260394E+00 -3.332478704E+00  1.070841167E+02  1.071427709E+02  0.000000000E+00  0.00000E+00  9.000E+00
</event>
<event>
      5  10001  3.52971E+09  4.90739E+00 -1.00000E+00  2.44157E-01
       2    -1     0     0   512     0  0.000000000E+00  0.000000000E+00  3.392133817E+00  3.392133817E+00  0.000000000E+00  0.00000E+00  9.000E+00
      -1    -1     0     0     0   512  0.000000000E+00  0.000000000E+00 -1.042526182E+02  1.042526182E+02  0.000000000E+00  0.00000E+00  9.000E+00
      21     1     1     2   515   513  6.485720731E+00  6.782958882E+00 -1.387222537E+01  1.674848475E+01  5.057621821E-07  0.00000E+00  9.000E+00
       2     1     1     2   513     0 -1.132502293E+01 -5.974738523E+00 -2.014408812E+01  2.387146479E+01  3.300000131E-01  0.00000E+00  9.000E+00
      -1     1     1     2     0   515  4.839302200E+00 -8.082203588E-01 -6.684417090E+01  6.702480249E+01  3.300000131E-01  0.00000E+00  9.000E+00
</event>
<event>
      5  10001  3.52971E+09  9.70266E+00 -1.00000E+00  1.97280E-01
      21    -1     0     0   511   515  0.000000000E+00  0.000000000E+00  3.286882688E+02  3.286882688E+02  0.000000000E+00  0.00000E+00  9.000E+00
      21    -1     0     0   512   511  0.000000000E+00  0.000000000E+00 -4.383549600E+00  4.383549600E+00  0.000000000E+00  0.00000E+00  9.000E+00
      21     1     1     2   516   515  1.243405940E+01 -1.373458414E+01  2.925802945E+02  2.931662896E+02  3.814697266E-06  0.00000E+00  9.000E+00
      21     1     1     2   514   516 -2.770406104E+00  1.286545335E+01  2.449221915E+01  2.780402559E+01  9.536743164E-07  0.00000E+00  9.000E+00
      21     1     1     2   512   514 -9.663653299E+00  8.691307897E-01  7.232205624E+00  1.210150328E+01  4.768371582E-07  0.00000E+00  9.000E+00
</event>
<event>
      5  10001  3.52971E+09  2.70438E+00 -1.00000E+00  3.11233E-01
      21    -1     0     0   513   514  0.000000000E+00  0.000000000E+00  6.522184086E+02  6.522184086E+02  0.000000000E+00  0.00000E+00  9.000E+00
      21    -1     0     0   511   517  0.000000000E+00  0.000000000E+00 -3.745120973E+01  3.745120973E+01  0.000000000E+00  0.00000E+00  9.000E+00
      21     1     1     2   513   517  1.020322205E-01  1.222613313E+01  6.472878628E+02  6.474033257E+02  7.629394531E-06  0.00000E+00  9.000E+00
      21     1     1     2   512   514 -6.158840963E-01 -9.571021102E+00 -3.634120379E+01  3.758546064E+01  4.573661350E-06  0.00000E+00  9.000E+00
      21     1     1     2   511   512  5.138518758E-01 -2.655112025E+00  3.820539803E+00  4.680831977E+00  5.960464478E-08  0.00000E+00  9.000E+00
</event>
<event>
      5  10001  3.52971E+09  1.35925E+01 -1.00000E+00  1.81508E-01
      21    -1     0     0   515   511  0.000000000E+00  0.000000000E+00  1.031208333E+02  1.031208333E+02  0.000000000E+00  0.00000E+00  9.000E+00
      -2    -1     0     0     0   515  0.000000000E+00  0.000000000E+00 -4.850339898E+00  4.850339898E+00  0.000000000E+00  0.00000E+00  9.000E+00
      -2     1     1     2     0   513 -6.834559823E+00  9.056006575E+00  6.870096258E+00  1.326761417E+01  3.300000131E-01  0.00000E+00  9.000E+00
      21     1     1     2   514   511  4.878470075E+00 -5.147701952E+00  8.975320597E+01  9.003297333E+01  1.348699152E-06  0.00000E+00  9.000E+00
      21     1     1     2   513   514  1.956089748E+00 -3.908304622E+00  1.647191198E+00  4.670585720E+00  1.192092896E-07  0.00000E+00  9.000E+00
</event>
<event>
      5  10001  3.52971E+09  1.76407E+01 -1.00000E+00  1.70993E-01
      21    -1     0     0   511   513  0.000000000E+00  0.000000000E+00  2.796890885E+02  2.796890885E+02  0.000000000E+00  0.00000E+00  9.000E+00
      21    -1     0     0   516   512  0.000000000E+00  0.000000000E+00 -4.138420005E+02  4.138420005E+02  0.000000000E+00  0.00000E+00  9.000E+00
      21     1     1     2   516   517 -3.982188016E+00  3.860731413E+01 -4.009021401E+02  4.027764994E+02  7.629394531E-06  0.00000E+00  9.000E+00
      21     1     1     2   517   513  2.283138018E+00 -2.104859042E+01 -2.146720379E+00  2.128060822E+01  1.025477084E-06  0.00000E+00  9.000E+00
      21     1     1     2   511   512  1.699049998E+00 -1.755872371E+01  2.688959485E+02  2.694739814E+02  5.394796609E-06  0.00000E+00  9.000E+00
</event>
<event>
      5  10001  3.52971E+09  4.72555E+00 -1.00000E+00  2.47495E-01
       1    -1     0     0   514     0  0.000000000E+00  0.000000000E+00  3.507759392E+02  3.507759392E+02  0.000000000E+00  0.00000E+00  9.000E+00
      21    -1     0     0   513   512  0.000000000E+00  0.000000000E+00 -1.179966804E+02  1.179966804E+02  0.000000000E+00  0.00000E+00  9.000E+00
      21     1     1     2   514   512  6.837506652E+00  7.966797565E+00  6.144459573E+00  1.216452811E+01  7.586432732E-07  0.00000E+00  9.000E+00
       1     1     1     2   511     0 -9.967111283E+00 -1.150747209E+01  3.414031122E+02  3.417425334E+02  3.300000131E-01  0.00000E+00  9.000E+00
      21     1     1     2   513   511  3.129604631E+00  3.540674521E+00 -1.147683129E+02  1.148655581E+02  1.348699152E-06  0.00000E+00  9.000E+00
</event>
<event>
      5  10001  3.52971E+09  1.39454E+01 -1.00000E+00  1.80415E-01
      21    -1     0     0   515   516  0.000000000E+00  0.000000000E+00  9.501859197E+00  9.501859197E+00  0.000000000E+00  0.00000E+00  9.000E+00
      21    -1     0     0   513   515  0.000000000E+00  0.000000000E+00 -1.327480913E+01  1.327480913E+01  0.000000000E+00  0.00000E+00  9.000E+00
      21     1     1     2   511   516  2.015859370E+00 -6.119532775E+00  1.734689240E-01  6.445344200E+00  2.843204424E-08  0.00000E+00  9.000E+00
      21     1     1     2   513   512 -3.867500551E+00  1.558225019E+00 -8.599762773E+00  9.557277095E+00  1.685873940E-07  0.00000E+00  9.000E+00
      21     1     1     2   512   511  1.851641180E+00  4.561307756E+00  4.653343920E+00  6.774047029E+00  1.032382731E-07  0.00000E+00  9.000E+00
</event>
<event>
      5  10001  3.52971E+09  1.92592E+00 -1.00000E+00  3.70880E-01
       1    -1     0     0   511     0  0.000000000E+00  0.000000000E+00  2.626096181E+01  2.626096181E+01  0.000000000E+00  0.00000E+00  9.000E+00
       3    -1     0     0   512     0  0.000000000E+00  0.000000000E+00 -5.627524294E+01  5.627524294E+01  0.000000000E+00  0.00000E+00  9.000E+00
       1     1     1     2   512     0 -3.644209640E+00 -1.008963251E+01  2.452638938E+01  2.677188122E+01  3.300000131E-01  0.00000E+00  9.000E+00
       3     1     1     2   513     0  1.597420723E+00  9.154928771E+00 -4.601510570E+01  4.694682552E+01  5.000000000E-01  0.00000E+00  9.000E+00
      21     1     1     2   511   513  2.046788917E+00  9.347037377E-01 -8.525564805E+00  8.817498012E+00  1.192092896E-07  0.00000E+00  9.000E+00
</event>
<event>
      5  10001  3.52971E+09  3.21282E+00 -1.00000E+00  2.88109E-01
      21    -1     0     0   514   513  0.000000000E+00  0.000000000E+00  3.677585739E+01  3.677585739E+01  0.000000000E+00  0.00000E+00  9.000E+00
      -4    -1     0     0     0   514  0.000000000E+00  0.000000000E+00 -1.516565884E+02  1.516565884E+02  0.000000000E+00  0.00000E+00  9.000E+00
      21     1     1     2   515   512  6.893917264E-01 -1.321622043E+01 -1.509812160E+01  2.007727619E+01  2.920019320E-07  0.00000E+00  9.000E+00
      21     1     1     2   512   513 -1.678054440E+00  1.015969047E+01  3.348901253E+01  3.503639732E+01  8.259061849E-07  0.00000E+00  9.000E+00
      -4     1     1     2     0   515  9.886627133E-01  3.056529960E+00 -1.332716219E+02  1.333187723E+02  1.500000000E+00  0.00000E+00  9.000E+00
</event>
<event>
      5  10001  3.52971E+09  4.15888E+00 -1.00000E+00  2.59539E-01
      21    -1     0     0   515   513  0.000000000E+00  0.000000000E+00  1.658149200E+02  1.658149200E+02  0.000000000E+00  0.00000E+00  9.000E+00
      21    -1     0     0   512   515  0.000000000E+00  0.000000000E+00 -3.761159019E+00  3.761159019E+00  0.000000000E+00  0.00000E+00  9.000E+00
      -2     1     1     2     0   513  6.278832679E+00 -1.070819304E+01  1.446596307E+02  1.451916209E+02  3.300000131E-01  0.00000E+00  9.000E+00
       2     1     1     2   511     0 -9.307175986E+00  7.858261914E+00  9.459597328E+00  1.542623372E+01  3.300000131E-01  0.00000E+00  9.000E+00
      21     1     1     2   512   511  3.028343307E+00  2.849931124E+00  7.934533026E+00  8.958224430E+00  8.429369702E-08  0.00000E+00  9.000E+00
</event>
<event>
      5  10001  3.52971E+09  4.13307E+00 -1.00000E+00  2.60157E-01
       1    -1     0     0   511     0  0.000000000E+00  0.000000000E+00  1.614723646E+02  1.614723646E+02  0.000000000E+00  0.00000E+00  9.000E+00
      21    -1     0     0   513   514  0.000000000E+00  0.000000000E+00 -4.157995552E+00  4.157995552E+00  0.000000000E+00  0.00000E+00  9.000E+00
      21     1     1     2   511   512 -1.347010925E+01 -4.859452764E+00  1.190052549E+02  1.198637094E+02  2.336015456E-06  0.00000E+00  9.000E+00
      21     1     1     2   512   514  1.005701140E+01  2.529786615E+00  3.854398817E+00  1.106343929E+01  1.976862425E-07  0.00000E+00  9.000E+00
       1     1     1     2   513     0  3.413097849E+00  2.329666148E+00  3.445471535E+01  3.470321154E+01  3.300000131E-01  0.00000E+00  9.000E+00
</event>
<event>
      5  10001  3.52971E+09  4.35058E+00 -1.00000E+00  2.55151E-01
      21    -1     0     0   511   512  0.000000000E+00  0.000000000E+00  3.229231870E+02  3.229231870E+02  0.000000000E+00  0.00000E+00  9.000E+00
      21    -1     0     0   513   516  0.000000000E+00  0.000000000E+00 -6.329730870E-01  6.329730870E-01  0.000000000E+00  0.00000E+00  9.000E+00
      21     1     1     2   515   516  6.867495275E+00 -1.095400858E+01  1.750383638E+02  1.755151890E+02  2.697398305E-06  0.00000E+00  9.000E+00
      21     1     1     2   513   512 -5.749315868E+00  6.749580683E+00  5.710567371E+01  5.778987318E+01  1.907348633E-06  0.00000E+00  9.000E+00
      21     1     1     2   511   515 -1.118179408E+00  4.204427899E+00  9.014617644E+01  9.025109787E+01  9.536743164E-07  0.00000E+00  9.000E+00
</event>
<event>
      5  10001  3.52971E+09  4.78021E+00 -1.00000E+00  2.46468E-01
      21    -1     0     0   514   513  0.000000000E+00  0.000000000E+00  9.759868236E+01  9.759868236E+01  0.000000000E+00  0.00000E+00  9.000E+00
      21    -1     0     0   517   515  0.000000000E+00  0.000000000E+00 -2.874770005E+00  2.874770005E+00  0.000000000E+00  0.00000E+00  9.000E+00
      21     1     1     2   514   515  1.276878266E+01 -6.043606650E+00  2.357133878E+01  2.748044766E+01  3.371747881E-07  0.00000E+00  9.000E+00
      21     1     1     2   517   512 -8.487477488E+00  5.395657704E+00  6.264188432E+01  6.344411767E+01  9.536743164E-07  0.00000E+00  9.000E+00
      21     1     1     2   512   513 -4.281305176E+00  6.479489459E-01  8.510689262E+00  9.548887033E+00  1.685873940E-07  0.00000E+00  9.000E+00
</event>
<event>
      5  10001  3.52971E+09  4.02675E+00 -1.00000E+00  2.62781E-01
      -2    -1     0     0     0   511  0.000000000E+00  0.000000000E+00  2.804926780E+01  2.804926780E+01  0.000000000E+00  0.00000E+00  9.000E+00
      21    -1     0     0   514   513  0.000000000E+00  0.000000000E+00 -4.303063470E+01  4.303063470E+01  0.000000000E+00  0.00000E+00  9.000E+00
      -2     1     1     2     0   512 -1.066929137E+00  1.160232132E+01  1.815679473E+01  2.157615102E+01  3.300000131E-01  0.00000E+00  9.000E+00
      21     1     1     2   512   513 -2.782955196E+00 -1.042242670E+01  4.472632653E+00  1.167802470E+01  1.460009660E-07  0.00000E+00  9.000E+00
      21     1     1     2   514   511  3.849884333E+00 -1.179894616E+00 -3.761079428E+01  3.782572679E+01  8.259061849E-07  0.00000E+00  9.000E+00
</event>
<event>
      5  10001  3.52971E+09  4.36977E+00 -1.00000E+00  2.54731E-01
       3    -1     0     0   513     0  0.000000000E+00  0.000000000E+00  1.797193587E+02  1.797193587E+02  0.000000000E+00  0.00000E+00  9.000E+00
      -2    -1     0     0     0   515  0.000000000E+00  0.000000000E+00 -9.476150629E+00  9.476150629E+00  0.000000000E+00  0.00000E+00  9.000E+00
      -2     1     1     2     0   511 -8.395279537E+00 -8.657744745E+00 -5.383635112E-01  1.207625761E+01  3.300000131E-01  0.00000E+00  9.000E+00
      21     1     1     2   513   515  1.059652067E+01  1.243225546E+01  1.812779584E+01  2.440213532E+01  0.000000000E+00  0.00000E+00  9.000E+00
       3     1     1     2   511     0 -2.201241135E+00 -3.774510714E+00  1.526537758E+02  1.527171164E+02  5.000000000E-01  0.00000E+00  9.000E+00
</event>
<event>
      5  10001  3.52971E+09  1.42815E+01 -1.00000E+00  1.79412E-01
       2    -1     0     0   511     0  0.000000000E+00  0.000000000E+00  4.400974924E+02  4.400974924E+02  0.000000000E+00  0.00000E+00  9.000E+00
      21    -1     0     0   512   514  0.000000000E+00  0.000000000E+00 -1.871897438E+00  1.871897438E+00  0.000000000E+00  0.00000E+00  9.000E+00
      21     1     1     2   511   513  1.512113998E+01  1.046504612E+01  1.032921770E+02  1.049163471E+02  2.336015456E-06  0.00000E+00  9.000E+00
       2     1     1     2   512     0 -8.694186712E-01 -1.137572149E+01  2.818865022E+02  2.821174790E+02  3.300000131E-01  0.00000E+00  9.000E+00
      21     1     1     2   513   514 -1.425172131E+01  9.106753742E-01  5.304691580E+01  5.493556376E+01  1.348699152E-06  0.00000E+00  9.000E+00
</event>
<event>
      5  10001  3.52971E+09  4.04805E+00 -1.00000E+00  2.62246E-01
      21    -1     0     0   512   513  0.000000000E+00  0.000000000E+00  1.401619573E+01  1.401619573E+01  0.000000000E+00  0.00000E+00  9.000E+00
       2    -1     0     0   513     0  0.000000000E+00  0.000000000E+00 -1.035299369E+01  1.035299369E+01  0.000000000E+00  0.00000E+00  9.000E+00
      21     1     1     2   511   515  1.548643627E+00 -5.242059459E+00  5.167996627E-01  5.490406756E+00  4.012260442E-08  0.00000E+00  9.000E+00
       2     1     1     2   515     0 -2.970653235E+00  1.092664398E+01 -1.464626977E+00  1.142236234E+01  3.300000131E-01  0.00000E+00  9.000E+00
      21     1     1     2   512   511  1.422009608E+00 -5.684584518E+00  4.611029351E+00  7.456420330E+00  0.000000000E+00  0.00000E+00  9.000E+00
</event>
<event>
      5  10001  3.52971E+09  7.54103E+00 -1.00000E+00  2.11078E-01
      21    -1     0     0   514   515  0.000000000E+00  0.000000000E+00  4.172242252E+01  4.172242252E+01  0.000000000E+00  0.00000E+00  9.000E+00
      21    -1     0     0   513   511  0.000000000E+00  0.000000000E+00 -5.129570848E+01  5.129570848E+01  0.000000000E+00  0.00000E+00  9.000E+00
      21     1     1     2   514   511 -7.292269129E+00 -1.167554250E+01  3.879103712E+01  4.116114724E+01  0.000000000E+00  0.00000E+00  9.000E+00
      21     1     1     2   516   515  9.811246833E+00  1.191597379E+01 -3.495940798E+01  3.821532679E+01  1.066240300E-06  0.00000E+00  9.000E+00
      21     1     1     2   513   516 -2.518977704E+00 -2.404312912E-01 -1.340491510E+01  1.364165696E+01  1.685873940E-07  0.00000E+00  9.000E+00
</event>
<event>
      5  10001  3.52971E+09  5.49076E+00 -1.00000E+00  2.31619E-01
      21    -1     0     0   512   513  0.000000000E+00  0.000000000E+00  7.251506679E+00  7.251506679E+00  0.000000000E+00  0.00000E+00  9.000E+00
       1    -1     0     0   515     0  0.000000000E+00  0.000000000E+00 -3.815688305E+02  3.815688305E+02  0.000000000E+00  0.00000E+00  9.000E+00
      21     1     1     2   515   513 -6.831003887E+00  9.285856327E+00  2.198945122E+00  1.173563383E+01  9.748594304E-07  0.00000E+00  9.000E+00
       1     1     1     2   511     0  7.322461390E+00 -1.307542770E+01 -3.467920793E+02  3.471158890E+02  3.300000131E-01  0.00000E+00  9.000E+00
      21     1     1     2   512   511 -4.914575034E-01  3.789571378E+00 -2.972418965E+01  2.996881433E+01  6.743495762E-07  0.00000E+00  9.000E+00
</event>
<event>
      5  10001  3.52971E+09  6.95611E+00 -1.00000E+00  2.15935E-01
      21    -1     0     0   514   511  0.000000000E+00  0.000000000E+00  3.226484907E+01  3.226484907E+01  0.000000000E+00  0.00000E+00  9.000E+00
      21    -1     0     0   515   516  0.000000000E+00  0.000000000E+00 -1.868600017E+02  1.868600017E+02  0.000000000E+00  0.00000E+00  9.000E+00
      21     1     1     2   514   516 -1.252678630E+01  1.152431336E+01 -1.521732609E+00  1.708934883E+01  4.204134935E-07  0.00000E+00  9.000E+00
      21     1     1     2   513   511  5.607563385E+00 -1.223971202E+01  2.255599400E+01  2.626838752E+01  4.129530925E-07  0.00000E+00  9.000E+00
      21     1     1     2   515   513  6.919222917E+00  7.153986689E-01 -1.756294140E+02  1.757671144E+02  1.907348633E-06  0.00000E+00  9.000E+00
</event>
<event>
      5  10001  3.52971E+09  5.14814E+00 -1.00000E+00  2.36315E-01
       1    -1     0     0   515     0  0.000000000E+00  0.000000000E+00  4.688626876E+02  4.688626876E+02  0.000000000E+00  0.00000E+00  9.000E+00
      21    -1     0     0   512   513  0.000000000E+00  0.000000000E+00 -2.920531655E+00  2.920531655E+00  0.000000000E+00  0.00000E+00  9.000E+00
      21     1     1     2   515   513 -1.318273017E+01  6.096260887E+00  1.727108657E+01  2.256632896E+01  4.129530925E-07  0.00000E+00  9.000E+00
       1     1     1     2   511     0  1.246173774E+01 -3.006722803E+00  4.347421655E+02  4.349312528E+02  3.300000131E-01  0.00000E+00  9.000E+00
      21     1     1     2   512   511  7.209924360E-01 -3.089538083E+00  1.392890389E+01  1.428563751E+01  1.685873940E-07  0.00000E+00  9.000E+00
</event>
<event>
      5  10001  3.52971E+09  1.30022E+01 -1.00000E+00  1.83434E-01
      21    -1     0     0   514   511  0.000000000E+00  0.000000000E+00  6.539136490E+01  6.539136490E+01  0.000000000E+00  0.00000E+00  9.000E+00
      21    -1     0     0   512   514  0.000000000E+00  0.000000000E+00 -1.082458607E+01  1.082458607E+01  0.000000000E+00  0.00000E+00  9.000E+00
      21     1     1     2   512   516  8.800501296E+00  4.982379752E+00 -5.950131490E+00  1.173358410E+01  2.384185791E-07  0.00000E+00  9.000E+00
      21     1     1     2   513   511 -4.846211354E+00 -1.219425184E+01  4.557390367E+01  4.742537547E+01  9.536743164E-07  0.00000E+00  9.000E+00
      21     1     1     2   516   513 -3.954289942E+00  7.211872093E+00  1.494300665E+01  1.705699140E+01  3.371747881E-07  0.00000E+00  9.000E+00
</event>
<event>
      5  10001  3.52971E+09  5.19287E+00 -1.00000E+00  2.35673E-01
      21    -1     0     0   514   512  0.000000000E+00  0.000000000E+00  5.798377970E+02  5.798377970E+02  0.000000000E+00  0.00000E+00  9.000E+00
      -1    -1     0     0     0   515  0.000000000E+00  0.000000000E+00 -3.635817033E+00  3.635817033E+00  0.000000000E+00  0.00000E+00  9.000E+00
      -1     1     1     2     0   511  9.539893513E+00  8.078236612E+00  7.907710537E+00  1.479554869E+01  3.300000131E-01  0.00000E+00  9.000E+00
      21     1     1     2   511   512 -6.081185576E+00 -1.195154748E+01  2.647539849E+02  2.650933662E+02  0.000000000E+00  0.00000E+00  9.000E+00
      21     1     1     2   514   515 -3.458707938E+00  3.873310872E+00  3.035402846E+02  3.035846992E+02  0.000000000E+00  0.00000E+00  9.000E+00
</event>
<event>
      5  10001  3.52971E+09  7.93659E+00 -1.00000E+00  2.08118E-01
      21    -1     0     0   513   511  0.000000000E+00  0.000000000E+00  4.096215015E+00  4.096215015E+00  0.000000000E+00  0.00000E+00  9.000E+00
      21    -1     0     0   517   516  0.000000000E+00  0.000000000E+00 -7.812044347E+01  7.812044347E+01  0.000000000E+00  0.00000E+00  9.000E+00
      21     1     1     2   513   516  1.240122961E+01 -4.706582108E+00 -5.592037188E+01  5.747199667E+01  6.743495762E-07  0.00000E+00  9.000E+00
      21     1     1     2   512   511 -5.291409127E+00  4.699797342E+00 -2.344024691E+00  7.455303975E+00  7.884953353E-08  0.00000E+00  9.000E+00
      21     1     1     2   517   512 -7.109820480E+00  6.784765412E-03 -1.575983189E+01  1.728935784E+01  2.920019320E-07  0.00000E+00  9.000E+00
</event>
<event>
      5  10001  3.52971E+09  9.89633E+00 -1.00000E+00  1.96277E-01
      21    -1     0     0   514   512  0.000000000E+00  0.000000000E+00  6.284311307E+00  6.284311307E+00  0.000000000E+00  0.00000E+00  9.000E+00
      21    -1     0     0   515   514  0.000000000E+00  0.000000000E+00 -2.381710089E+01  2.381710089E+01  0.000000000E+00  0.00000E+00  9.000E+00
      21     1     1     2   515   517 -4.339337550E-01 -1.038401396E+01 -1.029726416E+01  1.463043724E+01  2.920019320E-07  0.00000E+00  9.000E+00
       2     1     1     2   517     0 -1.998248128E+00  5.100587861E+00 -7.887509379E+00  9.608886321E+00  3.300000131E-01  0.00000E+00  9.000E+00
      -2     1     1     2     0   512  2.432181883E+00  5.283426101E+00  6.519839642E-01  5.862088636E+00  3.300000131E-01  0.00000E+00  9.000E+00
</event>
<event>
      5  10001  3.52971E+09  5.13381E+00 -1.00000E+00  2.36523E-01
       1    -1     0     0   514     0  0.000000000E+00  0.000000000E+00  2.059458590E+01  2.059458590E+01  0.000000000E+00  0.00000E+00  9.000E+00
      21    -1     0     0   511   515  0.000000000E+00  0.000000000E+00 -1.873371445E+02  1.873371445E+02  0.000000000E+00  0.00000E+00  9.000E+00
      21     1     1     2   514   513  1.149816805E+01  5.224315258E+00 -8.785210221E+01  8.875524324E+01  9.536743164E-07  0.00000E+00  9.000E+00
       1     1     1     2   511     0 -9.143880627E+00 -6.621891607E-01  1.902776769E+01  2.112377548E+01  3.300000131E-01  0.00000E+00  9.000E+00
      21     1     1     2   513   515 -2.354287428E+00 -4.562126097E+00 -9.791822410E+01  9.805271171E+01  0.000000000E+00  0.00000E+00  9.000E+00
</event>
<event>
      5  10001  3.52971E+09  1.33064E+01 -1.00000E+00  1.82426E-01
      21    -1     0     0   512   511  0.000000000E+00  0.000000000E+00  3.487978090E+01  3.487978090E+01  0.000000000E+00  0.00000E+00  9.000E+00
      21    -1     0     0   513   516  0.000000000E+00  0.000000000E+00 -2.402037917E+02  2.402037917E+02  0.000000000E+00  0.00000E+00  9.000E+00
      21     1     1     2   512   516 -3.257820041E+00  9.783156455E+00  3.395405752E+01  3.548523022E+01  1.168007728E-06  0.00000E+00  9.000E+00
      21     1     1     2   514   511  1.708866056E+00 -4.611014805E+00 -4.953811883E+01  4.978159196E+01  0.000000000E+00  0.00000E+00  9.000E+00
      21     1     1     2   513   514  1.548953985E+00 -5.172141650E+00 -1.897399495E+02  1.898167504E+02  2.697398305E-06  0.00000E+00  9.000E+00
</event>
<event>
      5  10001  3.52971E+09  5.47104E+00 -1.00000E+00  2.31876E-01
      21    -1     0     0   515   514  0.000000000E+00  0.000000000E+00  4.961539548E+01  4.961539548E+01  0.000000000E+00  0.00000E+00  9.000E+00
      21    -1     0     0   513   515  0.000000000E+00  0.000000000E+00 -2.895613319E+00  2.895613319E+00  0.000000000E+00  0.00000E+00  9.000E+00
      21     1     1     2   513   517 -1.032383789E+01 -2.139832832E+00  1.180007737E+01  1.582410627E+01  0.000000000E+00  0.00000E+00  9.000E+00
      21     1     1     2   511   514  3.282174337E+00 -9.806771717E-01  1.338036804E+01  1.381190229E+01  1.685873940E-07  0.00000E+00  9.000E+00
      21     1     1     2   517   511  7.041663549E+00  3.120510004E+00  2.153933675E+01  2.287500024E+01  0.000000000E+00  0.00000E+00  9.000E+00
</event>
<event>
      5  10001  3.52971E+09  1.39915E+01 -1.00000E+00  1.80276E-01
      21    -1     0     0   511   513  0.000000000E+00  0.000000000E+00  4.428882442E+00  4.428882442E+00  0.000000000E+00  0.00000E+00  9.000E+00
       2    -1     0     0   513     0  0.000000000E+00  0.000000000E+00 -5.590808864E+02  5.590808864E+02  0.000000000E+00  0.00000E+00  9.000E+00
      21     1     1     2   511   512 -1.463457524E+01 -1.495927738E+01 -2.300603377E+01  3.110029521E+01  1.305872339E-06  0.00000E+00  9.000E+00
       2     1     1     2   514     0  1.569851030E+00  1.316399697E+01 -3.656849005E+02  3.659252801E+02  3.300000131E-01  0.00000E+00  9.000E+00
      21     1     1     2   512   514  1.306472421E+01  1.795280407E+00 -1.659610697E+02  1.664841935E+02  3.814697266E-06  0.00000E+00  9.000E+00
</event>
<event>
      5  10001  3.52971E+09  6.05043E+00 -1.00000E+00  2.24903E-01
      21    -1     0     0   515   516  0.000000000E+00  0.000000000E+00  1.987484783E+01  1.987484783E+01  0.000000000E+00  0.00000E+00  9.000E+00
      21    -1     0     0   511   515  0.000000000E+00  0.000000000E+00 -2.280048238E+01  2.280048238E+01  0.000000000E+00  0.00000E+00  9.000E+00
      21     1     1     2   514   516  8.960602322E+00 -2.766283722E+00  1.448227707E+01  1.725343643E+01  4.768371582E-07  0.00000E+00  9.000E+00
      21     1     1     2   513   514 -1.225127290E+01 -2.311031557E+00 -1.208677821E+01  1.736446838E+01  1.685873940E-07  0.00000E+00  9.000E+00
      21     1     1     2   511   513  3.290670580E+00  5.077315279E+00 -5.321133409E+00  8.057425399E+00  0.000000000E+00  0.00000E+00  9.000E+00
</event>
<event>
      5  10001  3.52971E+09  3.85984E+00 -1.00000E+00  2.67166E-01
      21    -1     0     0   512   513  0.000000000E+00  0.000000000E+00  6.711780711E+00  6.711780711E+00  0.000000000E+00  0.00000E+00  9.000E+00
      21    -1     0     0   511   512  0.000000000E+00  0.000000000E+00 -3.177508216E+01  3.177508216E+01  0.000000000E+00  0.00000E+00  9.000E+00
      21     1     1     2   511   517  1.645633306E+00  1.134868700E+01 -2.351017806E+01  2.615777663E+01  5.840038640E-07  0.00000E+00  9.000E+00
      21     1     1     2   517   514 -1.207973786E+00 -7.503626374E+00 -3.036866487E+00  8.184507773E+00  4.214684851E-08  0.00000E+00  9.000E+00
      21     1     1     2   514   513 -4.376595195E-01 -3.845060627E+00  1.483743102E+00  4.144578467E+00  2.980232239E-08  0.00000E+00  9.000E+00
</event>
<event>
      5  10001  3.52971E+09  5.93800E+00 -1.00000E+00  2.26168E-01
      -3    -1     0     0     0   513  0.000000000E+00  0.000000000E+00  1.716641593E+00  1.716641593E+00  0.000000000E+00  0.00000E+00  9.000E+00
       1    -1     0     0   514     0  0.000000000E+00  0.000000000E+00 -3.372607504E+02  3.372607504E+02  0.000000000E+00  0.00000E+00  9.000E+00
      -3     1     1     2     0   512  1.030893993E+01  1.047054456E+01 -6.648345720E+01  6.808969545E+01  5.000000000E-01  0.00000E+00  9.000E+00
      21     1     1     2   514   513 -4.437789841E+00 -1.134990575E+01 -4.157361646E+01  4.332297226E+01  9.536743164E-07  0.00000E+00  9.000E+00
       1     1     1     2   512     0 -5.871150085E+00  8.793611959E-01 -2.274870352E+02  2.275647243E+02  3.300000131E-01  0.00000E+00  9.000E+00
</event>
<event>
      5  10001  3.52971E+09  3.65302E+00 -1.00000E+00  2.73106E-01
      21    -1     0     0   511   512  0.000000000E+00  0.000000000E+00  6.353606129E+01  6.353606129E+01  0.000000000E+00  0.00000E+00  9.000E+00
      -2    -1     0     0     0   511  0.000000000E+00  0.000000000E+00 -3.992773662E+01  3.992773662E+01  0.000000000E+00  0.00000E+00  9.000E+00
      21     1     1     2   515   516  1.193105780E+01 -9.703000968E-01  1.836284164E+01  2.191998120E+01  5.840038640E-07  0.00000E+00  9.000E+00
      21     1     1     2   516   512 -8.415148387E+00  1.961561496E+00  4.287445921E+01  4.373650304E+01  1.168007728E-06  0.00000E+00  9.000E+00
      -2     1     1     2     0   515 -3.515909414E+00 -9.912613992E-01 -3.762897618E+01  3.780731367E+01  3.300000131E-01  0.00000E+00  9.000E+00
</event>
<event>
      5  10001  3.52971E+09  1.39269E+01 -1.00000E+00  1.80471E-01
      21    -1     0     0   513   516  0.000000000E+00  0.000000000E+00  8.198682015E+01  8.198682015E+01  0.000000000E+00  0.00000E+00  9.000E+00
      21    -1     0     0   514   513  0.000000000E+00  0.000000000E+00 -1.188801363E+02  1.188801363E+02  0.000000000E+00  0.00000E+00  9.000E+00
      21     1     1     2   514   515 -1.188476952E+01 -8.809678627E+00 -1.172069564E+02  1.181369071E+02  1.348699152E-06  0.00000E+00  9.000E+00
      21     1     1     2   511   516  1.212948045E+01  3.190768539E+00  3.734412703E+01  3.939402396E+01  0.000000000E+00  0.00000E+00  9.000E+00
      21     1     1     2   515   511 -2.447109359E-01  5.618910088E+00  4.296951321E+01  4.333602542E+01  8.259061849E-07  0.00000E+00  9.000E+00
</event>
<event>
      5  10001  3.52971E+09  1.41794E+01 -1.00000E+00  1.79713E-01
      21    -1     0     0   512   511  0.000000000E+00  0.000000000E+00  6.179222036E+02  6.179222036E+02  0.000000000E+00  0.00000E+00  9.000E+00
      21    -1     0     0   513   517  0.000000000E+00  0.000000000E+00 -1.401031694E+01  1.401031694E+01  0.000000000E+00  0.00000E+00  9.000E+00
      21     1     1     2   512   517 -1.416428818E+01 -1.327127351E+01  3.537478169E+01  4.035007980E+01  1.966049969E-06  0.00000E+00  9.000E+00
      21     1     1     2   514   511  1.555739398E+01  2.738210089E+01  5.750973224E+02  5.759589762E+02  1.078959322E-05  0.00000E+00  9.000E+00
      21     1     1     2   513   514 -1.393105806E+00 -1.411082738E+01 -6.560217437E+00  1.562346459E+01  6.194296387E-07  0.00000E+00  9.000E+00
</event>
<event>
      5  10001  3.52971E+09  1.88291E+01 -1.00000E+00  1.68557E-01
      21    -1     0     0   515   511  0.000000000E+00  0.000000000E+00  1.061591644E+01  1.061591644E+01  0.000000000E+00  0.00000E+00  9.000E+00
      21    -1     0     0   513   515  0.000000000E+00  0.000000000E+00 -8.429289355E+01  8.429289355E+01  0.000000000E+00  0.00000E+00  9.000E+00
      21     1     1     2   514   511 -1.367194412E+01 -1.554715702E+01 -1.111966774E+01  2.350070548E+01  1.685873940E-07  0.00000E+00  9.000E+00
      21     1     1     2   512   514  1.454592093E+01  6.760395501E+00 -6.015531281E+01  6.225711544E+01  6.743495762E-07  0.00000E+00  9.000E+00
      21     1     1     2   513   512 -8.739768114E-01  8.786761520E+00 -2.401996557E+00  9.150989069E+00  9.424321831E-08  0.00000E+00  9.000E+00
</event>
<event>
      5  10001  3.52971E+09  5.87718E+00 -1.00000E+00  2.26870E-01
       1    -1     0     0   516     0  0.000000000E+00  0.000000000E+00  9.763790510E+00  9.763790510E+00  0.000000000E+00  0.00000E+00  9.000E+00
      21    -1     0     0   513   516  0.000000000E+00  0.000000000E+00 -7.730366934E+01  7.730366934E+01  0.000000000E+00  0.00000E+00  9.000E+00
      21     1     1     2   512   514 -7.090864724E+00  3.467491500E+00 -1.995389313E+01  2.145837158E+01  6.307962682E-07  0.00000E+00  9.000E+00
      21     1     1     2   513   512  1.285501071E+01 -4.613343544E+00 -5.469790705E+01  5.637725849E+01  9.536743164E-07  0.00000E+00  9.000E+00
       1     1     1     2   514     0 -5.764145986E+00  1.145852044E+00  7.111921349E+00  9.231829783E+00  3.300000131E-01  0.00000E+00  9.000E+00
</event>
<event>
      5  10001  3.52971E+09  2.37437E+00 -1.00000E+00  3.31519E-01
      -4    -1     0     0     0   511  0.000000000E+00  0.000000000E+00  4.519076024E+00  4.519076024E+00  0.000000000E+00  0.00000E+00  9.000E+00
       2    -1     0     0   513     0  0.000000000E+00  0.000000000E+00 -1.582298426E+02  1.582298426E+02  0.000000000E+00  0.00000E+00  9.000E+00
      -4     1     1     2     0   512  1.428902841E+01  6.467844172E+00 -1.217700774E+01  1.991328347E+01  1.500000000E+00  0.00000E+00  9.000E+00
       2     1     1     2   512     0 -1.435750566E+01 -8.839176607E+00 -1.229674978E+02  1.241184250E+02  3.300000131E-01  0.00000E+00  9.000E+00
      21     1     1     2   513   511  6.847725528E-02  2.371332434E+00 -1.856626111E+01  1.871721022E+01  3.371747881E-07  0.00000E+00  9.000E+00
</event>
<event>
      5  10001  3.52971E+09  9.06183E+00 -1.00000E+00  2.00832E-01
      -3    -1     0     0     0   511  0.000000000E+00  0.000000000E+00  5.493940879E+02  5.493940879E+02  0.000000000E+00  0.00000E+00  9.000E+00
       4    -1     0     0   512     0  0.000000000E+00  0.000000000E+00 -4.709198460E+00  4.709198460E+00  0.000000000E+00  0.00000E+00  9.000E+00
      21     1     1     2   512   511 -1.231227559E+01  7.459484189E+00  1.124393873E+02  1.133571870E+02  1.907348633E-06  0.00000E+00  9.000E+00
       4     1     1     2   513     0  1.389861366E+01 -1.637896231E+01  2.340096663E+01  3.180089790E+01  1.500000000E+00  0.00000E+00  9.000E+00
      -3     1     1     2     0   513 -1.586338071E+00  8.919478122E+00  4.088445355E+02  4.089452014E+02  5.000000000E-01  0.00000E+00  9.000E+00
</event>
<event>
      5  10001  3.52971E+09  5.40752E+00 -1.00000E+00  2.32714E-01
      21    -1     0     0   516   512  0.000000000E+00  0.000000000E+00  1.095275369E+01  1.095275369E+01  0.000000000E+00  0.00000E+00  9.000E+00
      21    -1     0     0   511   515  0.000000000E+00  0.000000000E+00 -3.117499378E+01  3.117499378E+01  0.000000000E+00  0.00000E+00  9.000E+00
      21     1     1     2   514   515 -7.082016304E+00 -1.245133038E+01 -1.789926270E+01  2.292540487E+01  2.384185791E-07  0.00000E+00  9.000E+00
      21     1     1     2   511   512  1.751468450E+00  1.336049289E+01 -4.591568286E-01  1.348262723E+01  3.413065350E-07  0.00000E+00  9.000E+00
      21     1     1     2   516   514  5.330547854E+00 -9.091625101E-01 -1.863820561E+00  5.719715376E+00  1.032382731E-07  0.00000E+00  9.000E+00
</event>
<event>
      5  10001  3.52971E+09  2.34789E+00 -1.00000E+00  3.33401E-01
      21    -1     0     0   513   511  0.000000000E+00  0.000000000E+00  3.367691212E+01  3.367691212E+01  0.000000000E+00  0.00000E+00  9.000E+00
      21    -1     0     0   517   513  0.000000000E+00  0.000000000E+00 -5.539267990E+01  5.539267990E+01  0.000000000E+00  0.00000E+00  9.000E+00
      21     1     1     2   517   514  4.190030954E+00 -9.156584596E+00 -5.348015580E+01  5.441990872E+01  0.000000000E+00  0.00000E+00  9.000E+00
      21     1     1     2   512   511 -5.325899336E+00  7.304939297E+00  3.108612583E+01  3.237397969E+01  1.118282261E-06  0.00000E+00  9.000E+00
      21     1     1     2   514   512  1.135868381E+00  1.851645299E+00  6.782621972E-01  2.275703606E+00  3.494632065E-08  0.00000E+00  9.000E+00
</event>
<event>
      5  10001  3.52971E+09  7.83377E+00 -1.00000E+00  2.08865E-01
      21    -1     0     0   515   512  0.000000000E+00  0.000000000E+00  3.093672611E+02  3.093672611E+02  0.000000000E+00  0.00000E+00  9.000E+00
      21    -1     0     0   511   516  0.000000000E+00  0.000000000E+00 -5.014505714E+00  5.014505714E+00  0.000000000E+00  0.00000E+00  9.000E+00
      21     1     1     2   515   516  3.243648605E+00 -1.169806104E+01  2.344904317E+02  2.348044472E+02  0.000000000E+00  0.00000E+00  9.000E+00
      21     1     1     2   514   512  4.387066010E+00  9.926011830E+00  7.085468062E+01  7.168094464E+01  1.348699152E-06  0.00000E+00  9.000E+00
      21     1     1     2   511   514 -7.630714615E+00  1.772049205E+00 -9.923569759E-01  7.896374882E+00  6.327293439E-07  0.00000E+00  9.000E+00
</event>
<event>
      5  10001  3.52971E+09  5.70924E+00 -1.00000E+00  2.28869E-01
      21    -1     0     0   513   514  0.000000000E+00  0.000000000E+00  4.089910560E+01  4.089910560E+01  0.000000000E+00  0.00000E+00  9.000E+00
      21    -1     0     0   511   517  0.000000000E+00  0.000000000E+00 -4.874289360E+00  4.874289360E+00  0.000000000E+00  0.00000E+00  9.000E+00
      21     1     1     2   513   517  9.040574584E+00  8.134667899E+00  8.751105489E+00  1.498287883E+01  1.685873940E-07  0.00000E+00  9.000E+00
      21     1     1     2   512   514 -6.115703517E+00 -3.659258782E+00  2.257343841E+01  2.367175798E+01  4.768371582E-07  0.00000E+00  9.000E+00
      21     1     1     2   511   512 -2.924871067E+00 -4.475409117E+00  4.700272341E+00  7.118758150E+00  0.000000000E+00  0.00000E+00  9.000E+00
</event>
<event>
      5  10001  3.52971E+09  1.02041E+01 -1.00000E+00  1.94744E-01
      21    -1     0     0   513   512  0.000000000E+00  0.000000000E+00  8.848945116E+01  8.848945116E+01  0.000000000E+00  0.00000E+00  9.000E+00
      21    -1     0     0   511   516  0.000000000E+00  0.000000000E+00 -5.073707285E+02  5.073707285E+02  0.000000000E+00  0.00000E+00  9.000E+00
      21     1     1     2   515   516  6.334219432E+00 -1.186377912E+01 -2.449950091E+01  2.794811507E+01  4.768371582E-07  0.00000E+00  9.000E+00
      21     1     1     2   511   512  2.630171856E+00  1.673851147E+01 -4.806971229E+02  4.809956543E+02  7.629394531E-06  0.00000E+00  9.000E+00
      21     1     1     2   513   515 -8.964391289E+00 -4.874732351E+00  8.631534648E+01  8.691641021E+01  9.536743164E-07  0.00000E+00  9.000E+00
</event>
<event>
      5  10001  3.52971E+09  3.66153E+00 -1.00000E+00  2.72849E-01
       5    -1     0     0   511     0  0.000000000E+00  0.000000000E+00  5.174078620E+01  5.174078620E+01  0.000000000E+00  0.00000E+00  9.000E+00
      21    -1     0     0   513   514  0.000000000E+00  0.000000000E+00 -2.813505368E+00  2.813505368E+00  0.000000000E+00  0.00000E+00  9.000E+00
      21     1     1     2   512   514  4.168811674E+00 -6.965064997E+00  1.350174654E+01  1.575399254E+01  2.384185791E-07  0.00000E+00  9.000E+00
       5     1     1     2   513     0 -3.162309157E+00  9.790261294E+00  3.313669173E+01  3.502755710E+01  4.800000191E+00  0.00000E+00  9.000E+00
      21     1     1     2   511   512 -1.006502517E+00 -2.825196297E+00  2.288842555E+00  3.772741931E+00  1.032382731E-07  0.00000E+00  9.000E+00
</event>
<event>
      5  10001  3.52971E+09  6.60910E+00 -1.00000E+00  2.19136E-01
      21    -1     0     0   515   513  0.000000000E+00  0.000000000E+00  5.076109043E+01  5.076109043E+01  0.000000000E+00  0.00000E+00  9.000E+00
      21    -1     0     0   516   512  0.000000000E+00  0.000000000E+00 -7.690474044E+00  7.690474044E+00  0.000000000E+00  0.00000E+00  9.000E+00
      21     1     1     2   515   512 -1.785964732E+00 -9.606667697E+00  4.485144678E+01  4.590348584E+01  1.066240300E-06  0.00000E+00  9.000E+00
      21     1     1     2   514   513  2.394234982E+00  2.517086176E+00 -3.802878645E+00  5.150725187E+00  2.889442359E-07  0.00000E+00  9.000E+00
      21     1     1     2   516   514 -6.082702498E-01  7.089581520E+00  2.022048251E+00  7.397353443E+00  1.576990671E-07  0.00000E+00  9.000E+00
</event>
<event>
      5  10001  3.52971E+09  1.15824E+01 -1.00000E+00  1.88656E-01
      21    -1     0     0   511   513  0.000000000E+00  0.000000000E+00  1.259140101E+00  1.259140101E+00  0.000000000E+00  0.00000E+00  9.000E+00
      21    -1     0     0   516   511  0.000000000E+00  0.000000000E+00 -2.449407654E+02  2.449407654E+02  0.000000000E+00  0.00000E+00  9.000E+00
      21     1     1     2   514   513 -3.212048163E+00 -7.112940989E+00 -1.669649148E+01  1.843051846E+01  4.129530925E-07  0.00000E+00  9.000E+00
      21     1     1     2   516   512  9.010060079E+00  9.026320752E+00 -1.589571109E+02  1.594679239E+02  2.697398305E-06  0.00000E+00  9.000E+00
      21     1     1     2   512   514 -5.798011917E+00 -1.913379763E+00 -6.802802298E+01  6.830146319E+01  9.536743164E-07  0.00000E+00  9.000E+00
</event>
<event>
      5  10001  3.52971E+09  1.87812E+01 -1.00000E+00  1.68651E-01
      21    -1     0     0   515   512  0.000000000E+00  0.000000000E+00  6.378727803E+00  6.378727803E+00  0.000000000E+00  0.00000E+00  9.000E+00
      21    -1     0     0   517   515  0.000000000E+00  0.000000000E+00 -6.370255580E+01  6.370255580E+01  0.000000000E+00  0.00000E+00  9.000E+00
      21     1     1     2   516   512  7.098713210E+00 -1.328025602E+01 -1.699359890E+01  2.270549125E+01  4.129530925E-07  0.00000E+00  9.000E+00
      21     1     1     2   511   516 -4.243744525E+00  9.444896018E+00 -4.605494674E+00  1.133252000E+01  3.526258339E-07  0.00000E+00  9.000E+00
      21     1     1     2   517   511 -2.854968685E+00  3.835360000E+00 -3.572473442E+01  3.604327236E+01  0.000000000E+00  0.00000E+00  9.000E+00
</event>
<event>
      5  10001  3.52971E+09  2.93453E+00 -1.00000E+00  2.99796E-01
      21    -1     0     0   513   515  0.000000000E+00  0.000000000E+00  1.474174880E+02  1.474174880E+02  0.000000000E+00  0.00000E+00  9.000E+00
      21    -1     0     0   512   514  0.000000000E+00  0.000000000E+00 -3.219134335E+00  3.219134335E+00  0.000000000E+00  0.00000E+00  9.000E+00
      21     1     1     2   513   514 -8.521823009E+00 -1.031361173E+01  7.628377829E+01  7.744809155E+01  2.132480600E-06  0.00000E+00  9.000E+00
      21     1     1     2   512   511  9.805057743E+00  7.674526515E+00  1.231903543E+01  1.751559730E+01  5.840038640E-07  0.00000E+00  9.000E+00
      21     1     1     2   511   515 -1.283234734E+00  2.639085219E+00  5.559553996E+01  5.567293351E+01  6.743495762E-07  0.00000E+00  9.000E+00
</event>
<event>
      5  10001  3.52971E+09  8.44158E+00 -1.00000E+00  2.04661E-01
      21    -1     0     0   516   512  0.000000000E+00  0.000000000E+00  2.578715134E+01  2.578715134E+01  0.000000000E+00  0.00000E+00  9.000E+00
      21    -1     0     0   517   515  0.000000000E+00  0.000000000E+00 -6.680936638E+00  6.680936638E+00  0.000000000E+00  0.00000E+00  9.000E+00
      21     1     1     2   516   515  8.764461990E+00 -1.539846160E+00  1.421430385E-01  8.899838471E+00  1.831653680E-07  0.00000E+00  9.000E+00
      21     1     1     2   517   513 -7.745373889E+00  5.210970913E+00  9.285718479E+00  1.316698911E+01  2.384185791E-07  0.00000E+00  9.000E+00
      21     1     1     2   513   512 -1.019088100E+00 -3.671124753E+00  9.678353187E+00  1.040126040E+01  1.192092896E-07  0.00000E+00  9.000E+00
</event>
<event>
      5  10001  3.52971E+09  4.33362E+00 -1.00000E+00  2.55525E-01
       2    -1     0     0   511     0  0.000000000E+00  0.000000000E+00  1.358277191E+02  1.358277191E+02  0.000000000E+00  0.00000E+00  9.000E+00
       1    -1     0     0   512     0  0.000000000E+00  0.000000000E+00 -1.850093958E+01  1.850093958E+01  0.000000000E+00  0.00000E+00  9.000E+00
      21     1     1     2   511   514 -8.151432978E+00  2.456353453E+00 -6.536742624E+00  1.073352393E+01  5.778884718E-07  0.00000E+00  9.000E+00
       2     1     1     2   512     0  1.545077405E+01 -1.073513015E+00  1.318068190E+02  1.327140734E+02  3.300000131E-01  0.00000E+00  9.000E+00
       1     1     1     2   514     0 -7.299341074E+00 -1.382840438E+00 -7.943296932E+00  1.088106125E+01  3.300000131E-01  0.00000E+00  9.000E+00
</event>
<event>
      5  10001  3.52971E+09  6.53810E+00 -1.00000E+00  2.19825E-01
      21    -1     0     0   512   514  0.000000000E+00  0.000000000E+00  1.347065680E+00  1.347065680E+00  0.000000000E+00  0.00000E+00  9.000E+00
       1    -1     0     0   514     0  0.000000000E+00  0.000000000E+00 -2.163845518E+02  2.163845518E+02  0.000000000E+00  0.00000E+00  9.000E+00
      21     1     1     2   512   511 -8.030362090E-01 -1.036149626E+00 -2.388233765E+00  2.724359322E+00  4.214684851E-08  0.00000E+00  9.000E+00
       1     1     1     2   513     0  1.057785872E+01  3.246339231E+00 -1.889788230E+02  1.893027582E+02  3.300000131E-01  0.00000E+00  9.000E+00
      21     1     1     2   511   513 -9.774822509E+00 -2.210189605E+00 -2.367042937E+01  2.570449999E+01  3.371747881E-07  0.00000E+00  9.000E+00
</event>
<event>
      5  10001  3.52971E+09  5.58521E+00 -1.00000E+00  2.30408E-01
      21    -1     0     0   515   516  0.000000000E+00  0.000000000E+00  2.996243325E+01  2.996243325E+01  0.000000000E+00  0.00000E+00  9.000E+00
      21    -1     0     0   514   512  0.000000000E+00  0.000000000E+00 -6.132204492E+01  6.132204492E+01  0.000000000E+00  0.00000E+00  9.000E+00
      21     1     1     2   513   516  7.758009399E+00  1.197301968E+01  2.444286266E+01  2.830182760E+01  4.768371582E-07  0.00000E+00  9.000E+00
      21     1     1     2   514   513 -9.509983472E+00 -6.669701776E+00 -6.393532811E+00  1.325903350E+01  2.528810911E-07  0.00000E+00  9.000E+00
      21     1     1     2   515   512  1.751974073E+00 -5.303317905E+00 -4.940894151E+01  4.972361708E+01  6.743495762E-07  0.00000E+00  9.000E+00
</event>
<event>
      5  10001  3.52971E+09  9.47795E+00 -1.00000E+00  1.98483E-01
      21    -1     0     0   511   512  0.000000000E+00  0.000000000E+00  4.589572230E+00  4.589572230E+00  0.000000000E+00  0.00000E+00  9.000E+00
      21    -1     0     0   516   517  0.000000000E+00  0.000000000E+00 -4.968422373E+01  4.968422373E+01  0.000000000E+00  0.00000E+00  9.000E+00
      21     1     1     2   511   517 -4.176497361E+00  8.880382039E+00 -4.576750679E+00  1.082824834E+01  3.318646170E-07  0.00000E+00  9.000E+00
      21     1     1     2   513   512  7.791818580E+00 -7.259989462E+00 -2.118952285E+01  2.371530650E+01  5.331201500E-07  0.00000E+00  9.000E+00
      21     1     1     2   516   513 -3.615321219E+00 -1.620392577E+00 -1.932837797E+01  1.973024112E+01  4.129530925E-07  0.00000E+00  9.000E+00
</event>
<event>
      5  10001  3.52971E+09  1.94013E+01 -1.00000E+00  1.67462E-01
      21    -1     0     0   514   513  0.000000000E+00  0.000000000E+00  1.584545904E+02  1.584545904E+02  0.000000000E+00  0.00000E+00  9.000E+00
      21    -1     0     0   516   515  0.000000000E+00  0.000000000E+00 -2.863577002E+01  2.863577002E+01  0.000000000E+00  0.00000E+00  9.000E+00
      21     1     1     2   514   515  8.872621762E+00  5.241779503E+00 -2.641773856E+01  2.835659677E+01  3.371747881E-07  0.00000E+00  9.000E+00
       4     1     1     2   516     0 -8.823240027E+00 -1.537983278E+01  1.001611050E+02  1.017294735E+02  1.500000000E+00  0.00000E+00  9.000E+00
      -4     1     1     2     0   513 -4.938173519E-02  1.013805328E+01  5.607545396E+01  5.700429019E+01  1.500000000E+00  0.00000E+00  9.000E+00
</event>
<event>
      5  10001  3.52971E+09  1.78180E+01 -1.00000E+00  1.70614E-01
      21    -1     0     0   511   514  0.000000000E+00  0.000000000E+00  1.776915537E+01  1.776915537E+01  0.000000000E+00  0.00000E+00  9.000E+00
      21    -1     0     0   513   512  0.000000000E+00  0.000000000E+00 -6.541808994E+01  6.541808994E+01  0.000000000E+00  0.00000E+00  9.000E+00
      21     1     1     2   511   512 -1.935781713E+01 -8.627657995E+00 -2.605114865E+01  3.358308968E+01  4.768371582E-07  0.00000E+00  9.000E+00
      21     1     1     2   513   515  1.077976531E+01 -6.989600344E+00 -2.789074377E+01  3.070751441E+01  3.371747881E-07  0.00000E+00  9.000E+00
      21     1     1     2   515   514  8.578051821E+00  1.561725834E+01  6.292957845E+00  1.889664122E+01  4.298152060E-07  0.00000E+00  9.000E+00
</event>
<event>
      5  10001  3.52971E+09  1.40019E+01 -1.00000E+00  1.80244E-01
      21    -1     0     0   516   515  0.000000000E+00  0.000000000E+00  1.945843555E+02  1.945843555E+02  0.000000000E+00  0.00000E+00  9.000E+00
      21    -1     0     0   514   516  0.000000000E+00  0.000000000E+00 -4.142517682E+00  4.142517682E+00  0.000000000E+00  0.00000E+00  9.000E+00
      21     1     1     2   513   515 -1.322525011E+01  5.241982246E+00  1.769727201E+02  1.775435983E+02  2.697398305E-06  0.00000E+00  9.000E+00
      21     1     1     2   511   513  5.863764925E+00  2.416569488E-01  9.534948323E+00  1.119631085E+01  2.665600750E-07  0.00000E+00  9.000E+00
      21     1     1     2   514   511  7.361485190E+00 -5.483639195E+00  3.934169414E+00  9.986964103E+00  4.986882368E-07  0.00000E+00  9.000E+00
</event>
<event>
      5  10001  3.52971E+09  1.37533E+01 -1.00000E+00  1.81005E-01
      21    -1     0     0   512   513  0.000000000E+00  0.000000000E+00  7.342872494E+01  7.342872494E+01  0.000000000E+00  0.00000E+00  9.000E+00
      21    -1     0     0   514   512  0.000000000E+00  0.000000000E+00 -4.702526605E+01  4.702526605E+01  0.000000000E+00  0.00000E+00  9.000E+00
      21     1     1     2   514   517 -6.062666491E+00 -1.011637472E+01 -3.888174582E+01  4.063111025E+01  4.768371582E-07  0.00000E+00  9.000E+00
      21     1     1     2   517   511  1.961554750E+01  7.777078006E+00  1.094784948E+01  2.377200148E+01  4.298152060E-07  0.00000E+00  9.000E+00
      21     1     1     2   511   513 -1.355288101E+01  2.339296709E+00  5.433735522E+01  5.605087926E+01  0.000000000E+00  0.00000E+00  9.000E+00
</event>
<event>
      5  10001  3.52971E+09  7.00487E+00 -1.00000E+00  2.15505E-01
       2    -1     0     0   515     0  0.000000000E+00  0.000000000E+00  2.530987416E+01  2.530987416E+01  0.000000000E+00  0.00000E+00  9.000E+00
      21    -1     0     0   514   512  0.000000000E+00  0.000000000E+00 -1.647387785E+01  1.647387785E+01  0.000000000E+00  0.00000E+00  9.000E+00
      21     1     1     2   515   512 -1.005232152E+00 -9.060413949E+00  1.734908787E+01  1.959827652E+01  2.384185791E-07  0.00000E+00  9.000E+00
       2     1     1     2   511     0  7.987723480E+00  9.611055546E+00 -2.075973280E+00  1.267259564E+01  3.300000131E-01  0.00000E+00  9.000E+00
      21     1     1     2   514   511 -6.982491328E+00 -5.506415965E-01 -6.437118275E+00  9.512879848E+00  0.000000000E+00  0.00000E+00  9.000E+00
</event>
<event>
      5  10001  3.52971E+09  1.31932E+01 -1.00000E+00  1.82797E-01
      21    -1     0     0   513   511  0.000000000E+00  0.000000000E+00  4.107601991E+02  4.107601991E+02  0.000000000E+00  0.00000E+00  9.000E+00
      21    -1     0     0   514   516  0.000000000E+00  0.000000000E+00 -9.265524231E-01  9.265524231E-01  0.000000000E+00  0.00000E+00  9.000E+00
      21     1     1     2   513   516 -4.004192536E+00  1.648180250E+01  2.148856579E+02  2.155540056E+02  0.000000000E+00  0.00000E+00  9.000E+00
      21     1     1     2   512   511  3.746766723E+00 -9.106712475E+00  1.648285724E+02  1.651224660E+02  1.907348633E-06  0.00000E+00  9.000E+00
      21     1     1     2   514   512  2.574258132E-01 -7.375090025E+00  3.011941632E+01  3.101027991E+01  8.259061849E-07  0.00000E+00  9.000E+00
</event>
<event>
      5  10001  3.52971E+09  6.34356E+00 -1.00000E+00  2.21775E-01
      21    -1     0     0   515   512  0.000000000E+00  0.000000000E+00  2.829272851E+02  2.829272851E+02  0.000000000E+00  0.00000E+00  9.000E+00
      21    -1     0     0   511   517  0.000000000E+00  0.000000000E+00 -3.535061320E+01  3.535061320E+01  0.000000000E+00  0.00000E+00  9.000E+00
      21     1     1     2   515   517  3.951651006E+00  1.157946698E+01  2.034777507E+02  2.038452713E+02  0.000000000E+00  0.00000E+00  9.000E+00
      21     1     1     2   514   512 -7.567010808E+00 -6.366985007E+00  7.866758563E+01  7.928674025E+01  1.348699152E-06  0.00000E+00  9.000E+00
      21     1     1     2   511   514  3.615359802E+00 -5.212481976E+00 -3.456866443E+01  3.514588675E+01  4.768371582E-07  0.00000E+00  9.000E+00
</event>
<event>
      5  10001  3.52971E+09  8.54393E+00 -1.00000E+00  2.03999E-01
      21    -1     0     0   511   512  0.000000000E+00  0.000000000E+00  7.864390777E+00  7.864390777E+00  0.000000000E+00  0.00000E+00  9.000E+00
       2    -1     0     0   513     0  0.000000000E+00  0.000000000E+00 -6.866762034E+01  6.866762034E+01  0.000000000E+00  0.00000E+00  9.000E+00
      21     1     1     2   513   515 -6.093750790E-01  4.506927719E+00  1.536028275E+00  4.800324813E+00  7.300048300E-08  0.00000E+00  9.000E+00
       2     1     1     2   511     0  1.826546624E+00 -1.683068926E+01 -5.451289982E+01  5.708216464E+01  3.300000131E-01  0.00000E+00  9.000E+00
      21     1     1     2   515   512 -1.217171545E+00  1.232376154E+01 -7.826358019E+00  1.464952166E+01  1.192092896E-07  0.00000E+00  9.000E+00
</event>
<event>
      5  10001  3.52971E+09  5.93644E+00 -1.00000E+00  2.26186E-01
      21    -1     0     0   514   513  0.000000000E+00  0.000000000E+00  3.645479894E+01  3.645479894E+01  0.000000000E+00  0.00000E+00  9.000E+00
      21    -1     0     0   512   514  0.000000000E+00  0.000000000E+00 -9.461849798E+00  9.461849798E+00  0.000000000E+00  0.00000E+00  9.000E+00
      21     1     1     2   516   513 -9.483847746E+00 -7.672870368E+00  2.979592869E+01  3.219648543E+01  5.840038640E-07  0.00000E+00  9.000E+00
      -3     1     1     2     0   516  6.705940761E+00  2.508474133E+00  5.532907542E-02  7.177405191E+00  5.000000000E-01  0.00000E+00  9.000E+00
       3     1     1     2   512     0  2.777906985E+00  5.164396235E+00 -2.858308616E+00  6.542758121E+00  5.000000000E-01  0.00000E+00  9.000E+00
</event>
<event>
      5  10001  3.52971E+09  3.77846E+00 -1.00000E+00  2.69432E-01
      21    -1     0     0   511   514  0.000000000E+00  0.000000000E+00  1.718948359E+02  1.718948359E+02  0.000000000E+00  0.00000E+00  9.000E+00
      21    -1     0     0   512   515  0.000000000E+00  0.000000000E+00 -9.075283446E+00  9.075283446E+00  0.000000000E+00  0.00000E+00  9.000E+00
      21     1     1     2   511   515 -7.067240265E+00 -8.390260434E+00 -2.541400278E+00  1.126059814E+01  2.546311541E-07  0.00000E+00  9.000E+00
      21     1     1     2   512   513  3.396825450E+00  9.287376270E+00  9.212382116E+00  1.351524196E+01  1.685873940E-07  0.00000E+00  9.000E+00
      21     1     1     2   513   514  3.670414815E+00 -8.971158367E-01  1.561485707E+02  1.561942793E+02  0.000000000E+00  0.00000E+00  9.000E+00
</event>
<event>
      5  10001  3.52971E+09  2.40097E+01 -1.00000E+00  1.60074E-01
       1    -1     0     0   512     0  0.000000000E+00  0.000000000E+00  5.416602932E+01  5.416602932E+01  0.000000000E+00  0.00000E+00  9.000E+00
      21    -1     0     0   513   516  0.000000000E+00  0.000000000E+00 -3.737296236E+00  3.737296236E+00  0.000000000E+00  0.00000E+00  9.000E+00
      21     1     1     2   512   516 -3.398356710E+00  4.496102292E+00  1.704175905E+01  1.794952132E+01  2.384185791E-07  0.00000E+00  9.000E+00
       1     1     1     2   511     0  3.523522525E+00 -8.024539040E-01  3.550780276E+01  3.569274576E+01  3.300000131E-01  0.00000E+00  9.000E+00
      21     1     1     2   513   511 -1.251658148E-01 -3.693648388E+00 -2.120828720E+00  4.261058478E+00  3.291774099E-07  0.00000E+00  9.000E+00
</event>
<event>
      5  10001  3.52971E+09  1.01081E+01 -1.00000E+00  1.95214E-01
      21    -1     0     0   514   511  0.000000000E+00  0.000000000E+00  2.122438460E+01  2.122438460E+01  0.000000000E+00  0.00000E+00  9.000E+00
      21    -1     0     0   513   515  0.000000000E+00  0.000000000E+00 -6.237911194E+01  6.237911194E+01  0.000000000E+00  0.00000E+00  9.000E+00
      21     1     1     2   514   515 -6.121280522E+00  8.273899783E+00 -6.016409536E+01  6.103806897E+01  9.536743164E-07  0.00000E+00  9.000E+00
      21     1     1     2   512   511 -1.066833782E+00 -3.136252353E+00  5.617153911E+00  6.521244605E+00  1.032382731E-07  0.00000E+00  9.000E+00
      21     1     1     2   513   512  7.188114304E+00 -5.137647430E+00  1.339221411E+01  1.604418297E+01  6.743495762E-07  0.00000E+00  9.000E+00
</event>
<event>
      5  10001  3.52971E+09  1.05331E+01 -1.00000E+00  1.93181E-01
      21    -1     0     0   516   512  0.000000000E+00  0.000000000E+00  4.505394420E+00  4.505394420E+00  0.000000000E+00  0.00000E+00  9.000E+00
      21    -1     0     0   513   517  0.000000000E+00  0.000000000E+00 -2.812136497E+01  2.812136497E+01  0.000000000E+00  0.00000E+00  9.000E+00
      21     1     1     2   516   517 -3.210947855E+00  8.457304514E+00 -4.534737471E+00  1.011928998E+01  1.192092896E-07  0.00000E+00  9.000E+00
      21     1     1     2   513   511  3.289078726E-01 -3.923891494E+00 -1.653757670E+00  4.270833557E+00  1.115100797E-07  0.00000E+00  9.000E+00
      21     1     1     2   511   512  2.882039982E+00 -4.533413020E+00 -1.742747541E+01  1.823663585E+01  3.371747881E-07  0.00000E+00  9.000E+00
</event>
<event>
      5  10001  3.52971E+09  7.66952E+00 -1.00000E+00  2.10090E-01
      21    -1     0     0   516   513  0.000000000E+00  0.000000000E+00  2.333265302E+01  2.333265302E+01  0.000000000E+00  0.00000E+00  9.000E+00
      21    -1     0     0   515   512  0.000000000E+00  0.000000000E+00 -3.829353034E+01  3.829353034E+01  0.000000000E+00  0.00000E+00  9.000E+00
      21     1     1     2   514   512  1.094736694E+01 -8.277894440E+00 -2.149972824E+01  2.550699304E+01  4.129530925E-07  0.00000E+00  9.000E+00
      21     1     1     2   515   513 -1.496160474E+01  1.742801125E+00 -9.868621133E+00  1.800768323E+01  2.920019320E-07  0.00000E+00  9.000E+00
      21     1     1     2   516   514  4.014237803E+00  6.535093315E+00  1.640747206E+01  1.811150709E+01  2.384185791E-07  0.00000E+00  9.000E+00
</event>
<event>
      5  10001  3.52971E+09  5.45612E+00 -1.00000E+00  2.32071E-01
      -3    -1     0     0     0   511  0.000000000E+00  0.000000000E+00  4.137157421E+01  4.137157421E+01  0.000000000E+00  0.00000E+00  9.000E+00
      21    -1     0     0   513   512  0.000000000E+00  0.000000000E+00 -9.899871001E+00  9.899871001E+00  0.000000000E+00  0.00000E+00  9.000E+00
      -3     1     1     2     0   514  7.763995929E+00  3.378750420E+00  1.929723387E+01  2.107910867E+01  5.000000000E-01  0.00000E+00  9.000E+00
      21     1     1     2   513   511 -9.254812802E+00 -8.625749064E+00  1.813551712E+01  2.211226103E+01  4.129530925E-07  0.00000E+00  9.000E+00
      21     1     1     2   514   512  1.490816874E+00  5.246998644E+00 -5.961047774E+00  8.080075513E+00  8.429369702E-08  0.00000E+00  9.000E+00
</event>
<event>
      5  10001  3.52971E+09  5.96163E+00 -1.00000E+00  2.25899E-01
      21    -1     0     0   515   511  0.000000000E+00  0.000000000E+00  3.874910940E+00  3.874910940E+00  0.000000000E+00  0.00000E+00  9.000E+00
       2    -1     0     0   513     0  0.000000000E+00  0.000000000E+00 -1.940415505E+02  1.940415505E+02  0.000000000E+00  0.00000E+00  9.000E+00
      21     1     1     2   516   511 -4.567366557E-03 -4.765108296E+00  2.264774259E-01  4.770489488E+00  5.280130852E-07  0.00000E+00  9.000E+00
       2     1     1     2   515     0  2.564609689E+00  1.184392024E+01 -1.794776373E+02  1.798865944E+02  3.300000131E-01  0.00000E+00  9.000E+00
      21     1     1     2   513   516 -2.560042322E+00 -7.078811944E+00 -1.091547971E+01  1.325937753E+01  3.576278687E-07  0.00000E+00  9.000E+00
</event>
<event>
      5  10001  3.52971E+09  4.06617E+00 -1.00000E+00  2.61794E-01
      21    -1     0     0   512   515  0.000000000E+00  0.000000000E+00  7.225743215E+00  7.225743215E+00  0.000000000E+00  0.00000E+00  9.000E+00
      21    -1     0     0   513   512  0.000000000E+00  0.000000000E+00 -1.328551419E+02  1.328551419E+02  0.000000000E+00  0.00000E+00  9.000E+00
      21     1     1     2   513   514 -4.704002444E-01 -1.350673083E+01 -1.162670279E+02  1.170498818E+02  1.348699152E-06  0.00000E+00  9.000E+00
      21     1     1     2   514   511  4.453468396E+00  1.432460210E+01 -1.104702331E+01  1.862966264E+01  5.196212463E-07  0.00000E+00  9.000E+00
      21     1     1     2   511   515 -3.983068152E+00 -8.178712717E-01  1.684652545E+00  4.401340650E+00  5.575503985E-08  0.00000E+00  9.000E+00
</event>
<event>
      5  10001  3.52971E+09  1.35344E+01 -1.00000E+00  1.81692E-01
      21    -1     0     0   516   512  0.000000000E+00  0.000000000E+00  1.839821382E+01  1.839821382E+01  0.000000000E+00  0.00000E+00  9.000E+00
      21    -1     0     0   515   516  0.000000000E+00  0.000000000E+00 -1.078864058E+02  1.078864058E+02  0.000000000E+00  0.00000E+00  9.000E+00
      21     1     1     2   517   511 -3.972220293E+00  1.551700527E+01  7.994662536E+00  1.790169310E+01  4.214684851E-07  0.00000E+00  9.000E+00
      21     1     1     2   515   517  1.640777555E+01 -1.017499555E+01 -9.162196802E+01  9.363402510E+01  1.348699152E-06  0.00000E+00  9.000E+00
      21     1     1     2   511   512 -1.243555526E+01 -5.342009726E+00 -5.860886489E+00  1.474890142E+01  2.384185791E-07  0.00000E+00  9.000E+00
</event>
<event>
      5  10001  3.52971E+09  9.48412E+00 -1.00000E+00  1.98450E-01
      21    -1     0     0   513   514  0.000000000E+00  0.000000000E+00  1.678489304E+02  1.678489304E+02  0.000000000E+00  0.00000E+00  9.000E+00
      21    -1     0     0   511   512  0.000000000E+00  0.000000000E+00 -3.260595328E+02  3.260595328E+02  0.000000000E+00  0.00000E+00  9.000E+00
      21     1     1     2   513   512  1.057325666E+01  3.322735952E+00  1.649419501E+02  1.653138870E+02  2.697398305E-06  0.00000E+00  9.000E+00
      21     1     1     2   515   514 -4.662413377E+00 -3.393802865E+00 -3.226066101E+02  3.226581486E+02  3.814697266E-06  0.00000E+00  9.000E+00
      21     1     1     2   511   515 -5.910843287E+00  7.106691356E-02 -5.459423512E-01  5.936427538E+00  6.495265579E-08  0.00000E+00  9.000E+00
</event>
<event>
      5  10001  3.52971E+09  1.38880E+01 -1.00000E+00  1.80590E-01
      21    -1     0     0   516   513  0.000000000E+00  0.000000000E+00  4.781247938E+01  4.781247938E+01  0.000000000E+00  0.00000E+00  9.000E+00
      21    -1     0     0   511   516  0.000000000E+00  0.000000000E+00 -1.495442201E+03  1.495442201E+03  0.000000000E+00  0.00000E+00  9.000E+00
      21     1     1     2   511   517  5.564904415E-01  1.124022476E+01 -1.475231300E+03  1.475274225E+03  2.157918644E-05  0.00000E+00  9.000E+00
      21     1     1     2   517   512  1.292698916E+01 -1.456783397E+01 -1.408864274E+01  2.403785950E+01  4.460403188E-07  0.00000E+00  9.000E+00
      21     1     1     2   512   513 -1.348347960E+01  3.327609203E+00  4.169022073E+01  4.394259562E+01  2.132480600E-06  0.00000E+00  9.000E+00
</event>
<event>
      5  10001  3.52971E+09  4.14122E+00 -1.00000E+00  2.59961E-01
      21    -1     0     0   514   515  0.000000000E+00  0.000000000E+00  3.973665535E+01  3.973665535E+01  0.000000000E+00  0.00000E+00  9.000E+00
      21    -1     0     0   516   513  0.000000000E+00  0.000000000E+00 -1.237080691E+02  1.237080691E+02  0.000000000E+00  0.00000E+00  9.000E+00
      21     1     1     2   514   513 -1.167396726E+01  4.991571309E+00 -8.043749458E+01  8.143333366E+01  1.651812370E-06  0.00000E+00  9.000E+00
      21     1     1     2   511   515  8.362059746E+00 -7.477719795E+00  3.833272487E+01  3.994043230E+01  6.743495762E-07  0.00000E+00  9.000E+00
      21     1     1     2   516   511  3.311907518E+00  2.486148486E+00 -4.186664399E+01  4.207095845E+01  4.768371582E-07  0.00000E+00  9.000E+00
</event>
<event>
      5  10001  3.52971E+09  6.18297E+00 -1.00000E+00  2.23459E-01
      21    -1     0     0   512   511  0.000000000E+00  0.000000000E+00  3.035065500E+01  3.035065500E+01  0.000000000E+00  0.00000E+00  9.000E+00
      21    -1     0     0   516   512  0.000000000E+00  0.000000000E+00 -9.077264001E+00  9.077264001E+00  0.000000000E+00  0.00000E+00  9.000E+00
      21     1     1     2   516   517 -9.856540312E+00 -6.622765052E+00 -2.649892215E+00  1.216693604E+01  2.107342426E-07  0.00000E+00  9.000E+00
      21     1     1     2   517   513  5.538617558E+00  4.193250438E+00  8.053131246E+00  1.063543871E+01  1.192092896E-07  0.00000E+00  9.000E+00
      21     1     1     2   513   511  4.317922754E+00  2.429514614E+00  1.587015197E+01  1.662554425E+01  2.384185791E-07  0.00000E+00  9.000E+00
</event>
<event>
      5  10001  3.52971E+09  5.68283E+00 -1.00000E+00  2.29192E-01
      21    -1     0     0   514   513  0.000000000E+00  0.000000000E+00  5.218127436E+01  5.218127436E+01  0.000000000E+00  0.00000E+00  9.000E+00
      21    -1     0     0   511   512  0.000000000E+00  0.000000000E+00 -1.685694555E+01  1.685694555E+01  0.000000000E+00  0.00000E+00  9.000E+00
      21     1     1     2   515   513 -1.829332230E-01  8.903490563E+00  4.500555463E+01  4.587815990E+01  6.743495762E-07  0.00000E+00  9.000E+00
      21     1     1     2   511   515  3.555519772E+00 -1.347735513E+01 -1.045638639E+01  1.742460440E+01  4.129530925E-07  0.00000E+00  9.000E+00
      21     1     1     2   514   512 -3.372586549E+00  4.573864566E+00  7.751605634E-01  5.735455605E+00  2.787751993E-08  0.00000E+00  9.000E+00
</event>
<event>
      5  10001  3.52971E+09  1.09225E+01 -1.00000E+00  1.91425E-01
       3    -1     0     0   512     0  0.000000000E+00  0.000000000E+00  4.470597584E+01  4.470597584E+01  0.000000000E+00  0.00000E+00  9.000E+00
      21    -1     0     0   516   512  0.000000000E+00  0.000000000E+00 -1.387134451E+01  1.387134451E+01  0.000000000E+00  0.00000E+00  9.000E+00
      21     1     1     2   516   511 -1.409015316E+00 -3.173372251E+00 -1.167842907E+01  1.218364975E+01  2.384185791E-07  0.00000E+00  9.000E+00
       3     1     1     2   514     0  7.263689476E+00  6.252460148E+00  3.540962888E+01  3.668714025E+01  5.000000000E-01  0.00000E+00  9.000E+00
      21     1     1     2   511   514 -5.854674160E+00 -3.079087897E+00  7.103431523E+00  9.706530338E+00  8.429369702E-08  0.00000E+00  9.000E+00
</event>
<event>
      5  10001  3.52971E+09  6.06132E+00 -1.00000E+00  2.24782E-01
      21    -1     0     0   513   514  0.000000000E+00  0.000000000E+00  5.948043248E+02  5.948043248E+02  0.000000000E+00  0.00000E+00  9.000E+00
       3    -1     0     0   511     0  0.000000000E+00  0.000000000E+00 -3.577224516E-01  3.577224516E-01  0.000000000E+00  0.00000E+00  9.000E+00
      21     1     1     2   512   514  6.534637562E+00  1.591529889E+00  2.045558361E+02  2.046663738E+02  0.000000000E+00  0.00000E+00  9.000E+00
       3     1     1     2   513     0 -9.370544489E+00 -7.307304753E+00  1.343918781E+02  1.349171254E+02  5.000000000E-01  0.00000E+00  9.000E+00
      21     1     1     2   511   512  2.835906928E+00  5.715774864E+00  2.554988881E+02  2.555785481E+02  3.814697266E-06  0.00000E+00  9.000E+00
</event>
<event>
      5  10001  3.52971E+09  2.31393E+00 -1.00000E+00  3.35880E-01
      21    -1     0     0   515   513  0.000000000E+00  0.000000000E+00  1.018683186E+01  1.018683186E+01  0.000000000E+00  0.00000E+00  9.000E+00
      21    -1     0     0   511   512  0.000000000E+00  0.000000000E+00 -6.446099215E+01  6.446099215E+01  0.000000000E+00  0.00000E+00  9.000E+00
      21     1     1     2   515   512 -4.985661556E+00 -1.125542156E+01 -1.506946066E+01  1.945841669E+01  0.000000000E+00  0.00000E+00  9.000E+00
      21     1     1     2   511   514  2.734888909E+00  1.071850851E+01 -4.636405022E+01  4.766540878E+01  0.000000000E+00  0.00000E+00  9.000E+00
      21     1     1     2   514   513  2.250772647E+00  5.369130465E-01  7.159350583E+00  7.523998532E+00  2.795705652E-07  0.00000E+00  9.000E+00
</event>
<event>
      5  10001  3.52971E+09  2.38579E+00 -1.00000E+00  3.30721E-01
      21    -1     0     0   516   511  0.000000000E+00  0.000000000E+00  2.090317105E+01  2.090317105E+01  0.000000000E+00  0.00000E+00  9.000E+00
      21    -1     0     0   517   513  0.000000000E+00  0.000000000E+00 -1.294142347E+01  1.294142347E+01  0.000000000E+00  0.00000E+00  9.000E+00
      21     1     1     2   516   513  1.366808252E+01 -5.103711502E+00  1.051536831E+01  1.798436325E+01  1.192092896E-07  0.00000E+00  9.000E+00
      21     1     1     2   517   512 -1.210216298E+01  6.160735134E+00 -1.413016695E+00  1.365333741E+01  1.084820910E-07  0.00000E+00  9.000E+00
      21     1     1     2   512   511 -1.565919540E+00 -1.057023632E+00 -1.140604038E+00  2.206893866E+00  2.580956828E-08  0.00000E+00  9.000E+00
</event>
<event>
      5  10001  3.52971E+09  7.41855E+00 -1.00000E+00  2.12044E-01
      21    -1     0     0   514   513  0.000000000E+00  0.000000000E+00  8.007779452E+01  8.007779452E+01  0.000000000E+00  0.00000E+00  9.000E+00
      21    -1     0     0   515   511  0.000000000E+00  0.000000000E+00 -1.330725541E+02  1.330725541E+02  0.000000000E+00  0.00000E+00  9.000E+00
      21     1     1     2   514   511 -1.610842817E+01 -6.328100491E-01  7.837194550E+01  8.001277240E+01  1.348699152E-06  0.00000E+00  9.000E+00
      21     1     1     2   515   516  1.296457632E+01  6.342244324E+00 -1.044794028E+02  1.054715598E+02  1.348699152E-06  0.00000E+00  9.000E+00
      21     1     1     2   516   513  3.143851850E+00 -5.709434275E+00 -2.688730221E+01  2.766601642E+01  3.371747881E-07  0.00000E+00  9.000E+00
</event>
<event>
      5  10001  3.52971E+09  5.99487E+00 -1.00000E+00  2.25523E-01
      21    -1     0     0   512   511  0.000000000E+00  0.000000000E+00  1.706247324E+03  1.706247324E+03  0.000000000E+00  0.00000E+00  9.000E+00
      21    -1     0     0   514   513  0.000000000E+00  0.000000000E+00 -3.728410960E-01  3.728410960E-01  0.000000000E+00  0.00000E+00  9.000E+00
      21     1     1     2   512   513  1.154327782E+01 -9.647622961E+00  3.177201865E+02  3.180761557E+02  1.009274029E-05  0.00000E+00  9.000E+00
      21     1     1     2   517   511 -6.239508167E+00  6.853255048E+00  1.338085802E+03  1.338117899E+03  3.411968960E-05  0.00000E+00  9.000E+00
      21     1     1     2   514   517 -5.303769649E+00  2.794367914E+00  5.006849466E+01  5.042611052E+01  1.348699152E-06  0.00000E+00  9.000E+00
</event>
<event>
      5  10001  3.52971E+09  8.28676E+00 -1.00000E+00  2.05686E-01
      -3    -1     0     0     0   515  0.000000000E+00  0.000000000E+00  1.496714253E+02  1.496714253E+02  0.000000000E+00  0.00000E+00  9.000E+00
      21    -1     0     0   511   512  0.000000000E+00  0.000000000E+00 -8.483520268E-01  8.483520268E-01  0.000000000E+00  0.00000E+00  9.000E+00
      21     1     1     2   513   512 -1.505829056E+00 -2.048892131E-01  1.821183714E+01  1.827513373E+01  3.371747881E-07  0.00000E+00  9.000E+00
      21     1     1     2   511   515  6.016301718E+00  8.365031289E+00  4.715006918E+01  4.826280823E+01  0.000000000E+00  0.00000E+00  9.000E+00
      -3     1     1     2     0   513 -4.510472661E+00 -8.160142076E+00  8.346116692E+01  8.398183533E+01  5.000000000E-01  0.00000E+00  9.000E+00
</event>
<event>
      5  10001  3.52971E+09  1.06183E+01 -1.00000E+00  1.92788E-01
      21    -1     0     0   514   511  0.000000000E+00  0.000000000E+00  1.042888155E+02  1.042888155E+02  0.000000000E+00  0.00000E+00  9.000E+00
      21    -1     0     0   516   513  0.000000000E+00  0.000000000E+00 -8.208018930E+00  8.208018930E+00  0.000000000E+00  0.00000E+00  9.000E+00
      21     1     1     2   514   513  7.560918579E+00  1.873184305E+01  7.609996720E+00  2.158614101E+01  3.674277069E-07  0.00000E+00  9.000E+00
      21     1     1     2   516   512 -3.567783843E+00 -3.649729924E+00  1.664450018E+01  1.740945135E+01  0.000000000E+00  0.00000E+00  9.000E+00
      21     1     1     2   512   511 -3.993134736E+00 -1.508211312E+01  7.182629967E+01  7.350124207E+01  9.536743164E-07  0.00000E+00  9.000E+00
</event>
<event>
      5  10001  3.52971E+09  6.14569E+00 -1.00000E+00  2.23860E-01
       2    -1     0     0   513     0  0.000000000E+00  0.000000000E+00  9.021509485E+00  9.021509485E+00  0.000000000E+00  0.00000E+00  9.000E+00
      21    -1     0     0   512   515  0.000000000E+00  0.000000000E+00 -1.200394478E+01  1.200394478E+01  0.000000000E+00  0.00000E+00  9.000E+00
      21     1     1     2   513   515  9.135616068E+00  1.312224070E+00 -1.581570552E-01  9.230732723E+00  1.036240238E-07  0.00000E+00  9.000E+00
       2     1     1     2   514     0 -5.862436216E+00  2.058176964E+00  1.684831263E-01  6.224270027E+00  3.300000131E-01  0.00000E+00  9.000E+00
      21     1     1     2   512   514 -3.273179852E+00 -3.370401033E+00 -2.992761366E+00  5.570451514E+00  7.300048300E-08  0.00000E+00  9.000E+00
</event>
<event>
      5  10001  3.52971E+09  5.91662E+00 -1.00000E+00  2.26414E-01
       1    -1     0     0   513     0  0.000000000E+00  0.000000000E+00  1.687195234E+01  1.687195234E+01  0.000000000E+00  0.00000E+00  9.000E+00
      21    -1     0     0   514   513  0.000000000E+00  0.000000000E+00 -9.366306238E+01  9.366306238E+01  0.000000000E+00  0.00000E+00  9.000E+00
      21     1     1     2   514   515  1.170213937E+01  4.249180239E+00 -5.812318663E+01  5.944157150E+01  1.168007728E-06  0.00000E+00  9.000E+00
       1     1     1     2   511     0 -1.568880177E+01 -9.233268339E-01  1.213349405E+01  1.985753286E+01  3.300000131E-01  0.00000E+00  9.000E+00
      21     1     1     2   515   511  3.986662394E+00 -3.325853405E+00 -3.080141747E+01  3.123591036E+01  3.371747881E-07  0.00000E+00  9.000E+00
</event>
<event>
      5  10001  3.52971E+09  2.22002E+01 -1.00000E+00  1.62711E-01
      21    -1     0     0   512   511  0.000000000E+00  0.000000000E+00  3.390945396E+01  3.390945396E+01  0.000000000E+00  0.00000E+00  9.000E+00
      21    -1     0     0   514   516  0.000000000E+00  0.000000000E+00 -3.192361098E+01  3.192361098E+01  0.000000000E+00  0.00000E+00  9.000E+00
      21     1     1     2   512   516 -1.063146533E+00 -7.740933341E+00  2.170495107E+01  2.306853334E+01  4.768371582E-07  0.00000E+00  9.000E+00
      21     1     1     2   514   513  1.924102877E+00  3.733251579E+00 -3.072984720E+01  3.101552592E+01  7.539457465E-07  0.00000E+00  9.000E+00
      21     1     1     2   513   511 -8.609563447E-01  4.007681763E+00  1.101073910E+01  1.174900568E+01  1.192092896E-07  0.00000E+00  9.000E+00
</event>
<event>
      5  10001  3.52971E+09  5.46571E+00 -1.00000E+00  2.31945E-01
      21    -1     0     0   512   513  0.000000000E+00  0.000000000E+00  5.081511385E+02  5.081511385E+02  0.000000000E+00  0.00000E+00  9.000E+00
      21    -1     0     0   511   515  0.000000000E+00  0.000000000E+00 -4.447164346E+01  4.447164346E+01  0.000000000E+00  0.00000E+00  9.000E+00
      21     1     1     2   514   513  1.191332325E+01  3.206270695E+00  8.675080305E+01  8.762367987E+01  0.000000000E+00  0.00000E+00  9.000E+00
      21     1     1     2   511   514 -8.382110864E+00  9.656052552E-01 -4.361310589E+01  4.442178724E+01  0.000000000E+00  0.00000E+00  9.000E+00
      21     1     1     2   512   515 -3.531212391E+00 -4.171875951E+00  4.205417979E+02  4.205773149E+02  5.394796609E-06  0.00000E+00  9.000E+00
</event>
<event>
      5  10001  3.52971E+09  1.32777E+01 -1.00000E+00  1.82520E-01
      21    -1     0     0   515   511  0.000000000E+00  0.000000000E+00  8.719661148E+01  8.719661148E+01  0.000000000E+00  0.00000E+00  9.000E+00
      21    -1     0     0   514   515  0.000000000E+00  0.000000000E+00 -2.614641495E+00  2.614641495E+00  0.000000000E+00  0.00000E+00  9.000E+00
      -3     1     1     2     0   513  2.056021270E+00  6.435170026E+00  3.043730349E+01  3.118201533E+01  5.000000000E-01  0.00000E+00  9.000E+00
       3     1     1     2   514     0  6.251017119E+00 -1.120863360E+01  3.317961252E+01  3.557872074E+01  5.000000000E-01  0.00000E+00  9.000E+00
      21     1     1     2   513   511 -8.307038389E+00  4.773463574E+00  2.096505398E+01  2.305051691E+01  4.129530925E-07  0.00000E+00  9.000E+00
</event>
<event>
      5  10001  3.52971E+09  1.53883E+01 -1.00000E+00  1.76341E-01
      21    -1     0     0   514   511  0.000000000E+00  0.000000000E+00  2.916166803E+02  2.916166803E+02  0.000000000E+00  0.00000E+00  9.000E+00
       1    -1     0     0   511     0  0.000000000E+00  0.000000000E+00 -2.695256982E+01  2.695256982E+01  0.000000000E+00  0.00000E+00  9.000E+00
      21     1     1     2   513   512  5.932684077E+00 -6.122965846E+00  3.104413375E+00  9.073303340E+00  8.429369702E-08  0.00000E+00  9.000E+00
       1     1     1     2   512     0  2.076539154E+00  1.926256113E+01 -1.980690865E+01  2.770885791E+01  3.300000131E-01  0.00000E+00  9.000E+00
      21     1     1     2   514   513 -8.009223231E+00 -1.313959529E+01  2.813666058E+02  2.817870889E+02  5.394796609E-06  0.00000E+00  9.000E+00
</event>
<event>
      5  10001  3.52971E+09  5.32043E+00 -1.00000E+00  2.33891E-01
       2    -1     0     0   513     0  0.000000000E+00  0.000000000E+00  1.956416119E+02  1.956416119E+02  0.000000000E+00  0.00000E+00  9.000E+00
      21    -1     0     0   512   513  0.000000000E+00  0.000000000E+00 -6.900636908E+00  6.900636908E+00  0.000000000E+00  0.00000E+00  9.000E+00
      21     1     1     2   511   514  5.338559537E-01  4.345159777E+00 -2.262109917E+00  4.927733449E+00  5.982774466E-07  0.00000E+00  9.000E+00
       2     1     1     2   514     0  3.048052929E+00 -1.140043570E+01  1.891108040E+02  1.894789320E+02  3.300000131E-01  0.00000E+00  9.000E+00
      21     1     1     2   512   511 -3.581908883E+00  7.055275919E+00  1.892280832E+00  8.135583340E+00  1.490116119E-07  0.00000E+00  9.000E+00
</event>
<event>
      5  10001  3.52971E+09  1.85053E+01 -1.00000E+00  1.69198E-01
      21    -1     0     0   515   511  0.000000000E+00  0.000000000E+00  6.253081045E+00  6.253081045E+00  0.000000000E+00  0.00000E+00  9.000E+00
      21    -1     0     0   512   515  0.000000000E+00  0.000000000E+00 -3.327338924E+01  3.327338924E+01  0.000000000E+00  0.00000E+00  9.000E+00
      21     1     1     2   516   511  5.548887060E+00 -2.757424985E+00  4.535625592E-01  6.212830204E+00  2.217095497E-07  0.00000E+00  9.000E+00
      21     1     1     2   512   513  3.705264005E+00 -1.264807806E+00 -2.091623473E+01  2.127951117E+01  2.384185791E-07  0.00000E+00  9.000E+00
      21     1     1     2   513   516 -9.254151065E+00  4.022232791E+00 -6.557636027E+00  1.203412892E+01  1.460009660E-07  0.00000E+00  9.000E+00
</event>
<event>
      5  10001  3.52971E+09  4.64567E+00 -1.00000E+00  2.49034E-01
      21    -1     0     0   514   515  0.000000000E+00  0.000000000E+00  1.339068595E+02  1.339068595E+02  0.000000000E+00  0.00000E+00  9.000E+00
      21    -1     0     0   511   516  0.000000000E+00  0.000000000E+00 -1.554162695E+02  1.554162695E+02  0.000000000E+00  0.00000E+00  9.000E+00
      21     1     1     2   514   516 -5.538679601E+00 -1.839437318E+01 -1.534490571E+02  1.546468334E+02  2.697398305E-06  0.00000E+00  9.000E+00
      21     1     1     2   511   512  3.153327459E+00  1.440785781E+01  1.271543419E+02  1.280068612E+02  1.907348633E-06  0.00000E+00  9.000E+00
      21     1     1     2   512   515  2.385352141E+00  3.986515368E+00  4.785305268E+00  6.669434468E+00  8.429369702E-08  0.00000E+00  9.000E+00
</event>
<event>
      5  10001  3.52971E+09  6.66607E+00 -1.00000E+00  2.18592E-01
      21    -1     0     0   513   512  0.000000000E+00  0.000000000E+00  2.323076687E+02  2.323076687E+02  0.000000000E+00  0.00000E+00  9.000E+00
      21    -1     0     0   515   514  0.000000000E+00  0.000000000E+00 -1.379546078E+01  1.379546078E+01  0.000000000E+00  0.00000E+00  9.000E+00
      21     1     1     2   511   512  1.419583613E+01  2.237807921E+00  2.270623349E+02  2.275166664E+02  2.697398305E-06  0.00000E+00  9.000E+00
      21     1     1     2   515   511 -7.708538368E+00 -3.771249842E+00 -8.264768356E+00  1.191428911E+01  4.129530925E-07  0.00000E+00  9.000E+00
      21     1     1     2   513   514 -6.487297765E+00  1.533441921E+00 -2.853586057E-01  6.672174005E+00  2.050602279E-07  0.00000E+00  9.000E+00
</event>
<event>
      5  10001  3.52971E+09  4.32742E+00 -1.00000E+00  2.55663E-01
      -1    -1     0     0     0   516  0.000000000E+00  0.000000000E+00  6.121312747E+01  6.121312747E+01  0.000000000E+00  0.00000E+00  9.000E+00
      21    -1     0     0   511   513  0.000000000E+00  0.000000000E+00 -4.643448360E+00  4.643448360E+00  0.000000000E+00  0.00000E+00  9.000E+00
      -1     1     1     2     0   513 -9.846089171E+00  2.936582521E-01  2.407065109E+00  1.014566753E+01  3.300000131E-01  0.00000E+00  9.000E+00
      21     1     1     2   511   512  6.399758233E+00  8.614808541E-01  4.884346135E+01  4.926847645E+01  9.536743164E-07  0.00000E+00  9.000E+00
      21     1     1     2   512   516  3.446330938E+00 -1.155139106E+00  5.319152646E+00  6.442431851E+00  1.576990671E-07  0.00000E+00  9.000E+00
</event>
<event>
      5  10001  3.52971E+09  7.17837E+00 -1.00000E+00  2.14015E-01
       3    -1     0     0   514     0  0.000000000E+00  0.000000000E+00  3.468196035E+02  3.468196035E+02  0.000000000E+00  0.00000E+00  9.000E+00
      21    -1     0     0   515   514  0.000000000E+00  0.000000000E+00 -4.974361365E+01  4.974361365E+01  0.000000000E+00  0.00000E+00  9.000E+00
      21     1     1     2   515   516  8.124989355E+00 -7.438758937E+00 -4.590168257E+01  4.720503203E+01  9.536743164E-07  0.00000E+00  9.000E+00
      21     1     1     2   516   511 -2.086799253E+00  1.132063239E+01  7.359447377E+00  1.366282967E+01  3.953724850E-07  0.00000E+00  9.000E+00
       3     1     1     2   511     0 -6.038190102E+00 -3.881873456E+00  3.356182251E+02  3.356953555E+02  5.000000000E-01  0.00000E+00  9.000E+00
</event>
<event>
      5  10001  3.52971E+09  8.94924E+00 -1.00000E+00  2.01496E-01
      21    -1     0     0   512   516  0.000000000E+00  0.000000000E+00  7.707939022E+00  7.707939022E+00  0.000000000E+00  0.00000E+00  9.000E+00
      21    -1     0     0   515   514  0.000000000E+00  0.000000000E+00 -1.563729186E+02  1.563729186E+02  0.000000000E+00  0.00000E+00  9.000E+00
      21     1     1     2   512   513  7.262843746E+00  1.599344870E+01 -4.942070667E+00  1.824728372E+01  2.064765462E-07  0.00000E+00  9.000E+00
      21     1     1     2   515   516  1.162494889E+00 -1.297639392E+01 -4.947184440E+01  5.115859246E+01  9.536743164E-07  0.00000E+00  9.000E+00
      21     1     1     2   513   514 -8.425338634E+00 -3.017054784E+00 -9.425106454E+01  9.467498147E+01  0.000000000E+00  0.00000E+00  9.000E+00
</event>
<event>
      5  10001  3.52971E+09  7.82078E+00 -1.00000E+00  2.08960E-01
      21    -1     0     0   511   515  0.000000000E+00  0.000000000E+00  4.290021722E+01  4.290021722E+01  0.000000000E+00  0.00000E+00  9.000E+00
      21    -1     0     0   517   511  0.000000000E+00  0.000000000E+00 -4.317957384E+00  4.317957384E+00  0.000000000E+00  0.00000E+00  9.000E+00
      21     1     1     2   514   515 -9.303725724E+00 -4.115992058E+00  3.118258836E+01  3.280022134E+01  4.768371582E-07  0.00000E+00  9.000E+00
      21     1     1     2   512   514  6.398009853E+00  5.922427020E-01  7.465996794E+00  9.850197441E+00  1.685873940E-07  0.00000E+00  9.000E+00
      21     1     1     2   517   512  2.905715871E+00  3.523749356E+00 -6.632531652E-02  4.567755827E+00  2.153531165E-07  0.00000E+00  9.000E+00
</event>
<event>
      5  10001  3.52971E+09  3.49134E+00 -1.00000E+00  2.78203E-01
       3    -1     0     0   512     0  0.000000000E+00  0.000000000E+00  5.147171684E+00  5.147171684E+00  0.000000000E+00  0.00000E+00  9.000E+00
      21    -1     0     0   513   511  0.000000000E+00  0.000000000E+00 -3.224311884E+01  3.224311884E+01  0.000000000E+00  0.00000E+00  9.000E+00
      21     1     1     2   512   511 -6.569030509E+00 -8.081392717E+00 -2.191783272E+01  2.426628240E+01  2.384185791E-07  0.00000E+00  9.000E+00
       3     1     1     2   514     0  7.448372386E+00  5.504632497E+00 -4.544026160E+00  1.032847539E+01  5.000000000E-01  0.00000E+00  9.000E+00
      21     1     1     2   513   514 -8.793418764E-01  2.576760220E+00 -6.340882780E-01  2.795532742E+00  7.450580597E-08  0.00000E+00  9.000E+00
</event>
<event>
      5  10001  3.52971E+09  9.26075E+00 -1.00000E+00  1.99689E-01
      21    -1     0     0   515   516  0.000000000E+00  0.000000000E+00  1.457852783E+02  1.457852783E+02  0.000000000E+00  0.00000E+00  9.000E+00
      21    -1     0     0   511   515  0.000000000E+00  0.000000000E+00 -5.039038818E+00  5.039038818E+00  0.000000000E+00  0.00000E+00  9.000E+00
      21     1     1     2   514   516  9.067033519E+00  9.464086340E+00  1.178412361E+02  1.185678580E+02  1.348699152E-06  0.00000E+00  9.000E+00
      21     1     1     2   513   514 -9.258854786E+00 -2.053271336E-01  2.118484178E+00  9.500343488E+00  3.650024150E-07  0.00000E+00  9.000E+00
      21     1     1     2   511   513  1.918212669E-01 -9.258759207E+00  2.078651916E+01  2.275611558E+01  0.000000000E+00  0.00000E+00  9.000E+00
</event>
<event>
      5  10001  3.52971E+09  5.91950E+00 -1.00000E+00  2.26380E-01
      21    -1     0     0   512   514  0.000000000E+00  0.000000000E+00  3.350810226E+01  3.350810226E+01  0.000000000E+00  0.00000E+00  9.000E+00
      21    -1     0     0   511   512  0.000000000E+00  0.000000000E+00 -5.981919134E+01  5.981919134E+01  0.000000000E+00  0.00000E+00  9.000E+00
      21     1     1     2   513   514  1.268844171E+01 -3.646801140E+00  3.111442118E+01  3.379945143E+01  8.920806376E-07  0.00000E+00  9.000E+00
      21     1     1     2   515   513 -5.374753307E+00  4.621377795E-01 -4.001402466E+01  4.037602896E+01  4.768371582E-07  0.00000E+00  9.000E+00
      21     1     1     2   511   515 -7.313688404E+00  3.184663360E+00 -1.741148560E+01  1.915181322E+01  0.000000000E+00  0.00000E+00  9.000E+00
</event>
<event>
      5  10001  3.52971E+09  2.00977E+01 -1.00000E+00  1.66191E-01
       2    -1     0     0   511     0  0.000000000E+00  0.000000000E+00  3.256098783E+02  3.256098783E+02  0.000000000E+00  0.00000E+00  9.000E+00
      21    -1     0     0   516   512  0.000000000E+00  0.000000000E+00 -6.823230258E-01  6.823230258E-01  0.000000000E+00  0.00000E+00  9.000E+00
      21     1     1     2   511   512 -3.677839237E+00 -7.649894190E+00  8.770539724E+01  8.811517512E+01  0.000000000E+00  0.00000E+00  9.000E+00
      21     1     1     2   516   513 -6.882157413E+00  7.002451146E+00  1.487986828E+02  1.491222533E+02  3.814697266E-06  0.00000E+00  9.000E+00
       2     1     1     2   513     0  1.055999665E+01  6.474430440E-01  8.842347525E+01  8.905477296E+01  3.300000131E-01  0.00000E+00  9.000E+00
</event>
<event>
      5  10001  3.52971E+09  9.40746E+00 -1.00000E+00  1.98870E-01
      21    -1     0     0   514   513  0.000000000E+00  0.000000000E+00  5.724511565E+00  5.724511565E+00  0.000000000E+00  0.00000E+00  9.000E+00
      21    -1     0     0   515   514  0.000000000E+00  0.000000000E+00 -2.912968926E+01  2.912968926E+01  0.000000000E+00  0.00000E+00  9.000E+00
      21     1     1     2   516   513  9.706824541E-01  8.823223337E+00 -1.172695780E+00  8.953586425E+00  1.429269172E-07  0.00000E+00  9.000E+00
      21     1     1     2   511   516  3.356743717E+00 -3.287491928E+00 -1.539662967E+01  1.609756307E+01  2.384185791E-07  0.00000E+00  9.000E+00
      21     1     1     2   515   511 -4.327426171E+00 -5.535731409E+00 -6.835852249E+00  9.803051334E+00  1.884864366E-07  0.00000E+00  9.000E+00
</event>
<event>
      5  10001  3.52971E+09  5.51518E+00 -1.00000E+00  2.31302E-01
      21    -1     0     0   512   511  0.000000000E+00  0.000000000E+00  2.308187557E+01  2.308187557E+01  0.000000000E+00  0.00000E+00  9.000E+00
      21    -1     0     0   513   517  0.000000000E+00  0.000000000E+00 -6.174476131E+00  6.174476131E+00  0.000000000E+00  0.00000E+00  9.000E+00
      21     1     1     2   512   517  5.625831036E+00 -7.687817387E+00  9.764195278E+00  1.364155491E+01  3.153981341E-07  0.00000E+00  9.000E+00
      21     1     1     2   514   511 -3.516013753E+00  1.009124351E+01  5.427244265E+00  1.198542984E+01  2.384185791E-07  0.00000E+00  9.000E+00
      21     1     1     2   513   514 -2.109817283E+00 -2.403426119E+00  1.715959900E+00  3.629366950E+00  9.185692672E-08  0.00000E+00  9.000E+00
</event>
<event>
      5  10001  3.52971E+09  1.68677E+00 -1.00000E+00  4.01511E-01
      21    -1     0     0   513   512  0.000000000E+00  0.000000000E+00  9.480240469E+00  9.480240469E+00  0.000000000E+00  0.00000E+00  9.000E+00
       2    -1     0     0   514     0  0.000000000E+00  0.000000000E+00 -8.872626801E+01  8.872626801E+01  0.000000000E+00  0.00000E+00  9.000E+00
      21     1     1     2   514   511 -5.695696000E-01  1.020730304E+01 -6.091487218E+00  1.190040593E+01  2.064765462E-07  0.00000E+00  9.000E+00
       2     1     1     2   513     0  2.187772605E+00 -9.731468337E+00 -7.930402050E+01  7.992949639E+01  3.300000131E-01  0.00000E+00  9.000E+00
      21     1     1     2   511   512 -1.618203005E+00 -4.758347001E-01  6.149480179E+00  6.376606158E+00  2.795705652E-07  0.00000E+00  9.000E+00
</event>
<event>
      5  10001  3.52971E+09  1.26263E+01 -1.00000E+00  1.84730E-01
      21    -1     0     0   515   514  0.000000000E+00  0.000000000E+00  7.211929780E+02  7.211929780E+02  0.000000000E+00  0.00000E+00  9.000E+00
      21    -1     0     0   511   512  0.000000000E+00  0.000000000E+00 -1.463033038E+01  1.463033038E+01  0.000000000E+00  0.00000E+00  9.000E+00
      21     1     1     2   515   512 -4.374799813E+00  1.000960865E+01  7.136821814E+02  7.137657790E+02  0.000000000E+00  0.00000E+00  9.000E+00
      21     1     1     2   511   513 -5.438815444E+00 -6.978686127E+00 -7.757168426E+00  1.176675127E+01  1.069567111E-06  0.00000E+00  9.000E+00
      21     1     1     2   513   514  9.813615257E+00 -3.030922522E+00  6.376345690E-01  1.029077808E+01  9.159063912E-07  0.00000E+00  9.000E+00
</event>
<event>
      5  10001  3.52971E+09  2.75182E+00 -1.00000E+00  3.08720E-01
      21    -1     0     0   516   511  0.000000000E+00  0.000000000E+00  5.285589143E+00  5.285589143E+00  0.000000000E+00  0.00000E+00  9.000E+00
      21    -1     0     0   517   514  0.000000000E+00  0.000000000E+00 -3.669474098E+01  3.669474098E+01  0.000000000E+00  0.00000E+00  9.000E+00
      21     1     1     2   516   514 -3.203800016E+00  1.193266998E+01 -6.704160747E+00  1.405698114E+01  3.371747881E-07  0.00000E+00  9.000E+00
      21     1     1     2   512   511  1.778659264E+00 -9.307819262E+00 -1.476531164E+01  1.754461615E+01  2.384185791E-07  0.00000E+00  9.000E+00
      21     1     1     2   517   512  1.425140751E+00 -2.624850723E+00 -9.939679455E+00  1.037873283E+01  0.000000000E+00  0.00000E+00  9.000E+00
</event>
<event>
      5  10001  3.52971E+09  2.20218E+01 -1.00000E+00  1.62987E-01
      21    -1     0     0   513   512  0.000000000E+00  0.000000000E+00  1.120069529E+02  1.120069529E+02  0.000000000E+00  0.00000E+00  9.000E+00
      21    -1     0     0   517   515  0.000000000E+00  0.000000000E+00 -7.405875685E+00  7.405875685E+00  0.000000000E+00  0.00000E+00  9.000E+00
      21     1     1     2   513   515  8.835490650E+00  6.008620478E-01  7.899401678E+01  7.948887732E+01  1.348699152E-06  0.00000E+00  9.000E+00
      -4     1     1     2     0   512  3.219765908E+00  3.397156017E+00 -4.841146764E+00  6.898859580E+00  1.500000000E+00  0.00000E+00  9.000E+00
       4     1     1     2   517     0 -1.205525656E+01 -3.998018065E+00  3.044820715E+01  3.302509164E+01  1.500000000E+00  0.00000E+00  9.000E+00
</event>
<event>
      5  10001  3.52971E+09  5.08637E+00 -1.00000E+00  2.37217E-01
      -3    -1     0     0     0   511  0.000000000E+00  0.000000000E+00  2.683897305E+02  2.683897305E+02  0.000000000E+00  0.00000E+00  9.000E+00
      21    -1     0     0   514   513  0.000000000E+00  0.000000000E+00 -5.676351987E+02  5.676351987E+02  0.000000000E+00  0.00000E+00  9.000E+00
      -3     1     1     2     0   512 -1.538144251E+01 -5.521646807E+00  2.635345704E+02  2.640412793E+02  5.000000000E-01  0.00000E+00  9.000E+00
      21     1     1     2   512   513  1.113882068E+01  2.716058478E+00 -2.568935225E+00  1.174945650E+01  7.456538679E-07  0.00000E+00  9.000E+00
      21     1     1     2   514   511  4.242621821E+00  2.805588329E+00 -5.602111034E+02  5.602341934E+02  7.629394531E-06  0.00000E+00  9.000E+00
</event>
<event>
      5  10001  3.52971E+09  3.24580E+00 -1.00000E+00  2.86852E-01
       2    -1     0     0   515     0  0.000000000E+00  0.000000000E+00  1.565750733E+03  1.565750733E+03  0.000000000E+00  0.00000E+00  9.000E+00
      -1    -1     0     0     0   515  0.000000000E+00  0.000000000E+00 -6.579754174E-01  6.579754174E-01  0.000000000E+00  0.00000E+00  9.000E+00
      -1     1     1     2     0   513 -6.907561979E+00  9.460757043E+00  5.860395847E+01  5.976414631E+01  3.300000131E-01  0.00000E+00  9.000E+00
      21     1     1     2   513   511  6.725368406E+00 -6.220273836E+00  2.770151169E+02  2.771665517E+02  3.814697266E-06  0.00000E+00  9.000E+00
       2     1     1     2   511     0  1.821935721E-01 -3.240483207E+00  1.229473682E+03  1.229478011E+03  3.300000131E-01  0.00000E+00  9.000E+00
</event>
<event>
      5  10001  3.52971E+09  3.57712E+00 -1.00000E+00  2.75445E-01
      21    -1     0     0   512   513  0.000000000E+00  0.000000000E+00  7.109274370E+02  7.109274370E+02  0.000000000E+00  0.00000E+00  9.000E+00
      21    -1     0     0   516   514  0.000000000E+00  0.000000000E+00 -2.499456788E-01  2.499456788E-01  0.000000000E+00  0.00000E+00  9.000E+00
      21     1     1     2   512   514  8.715864202E+00 -6.989114533E+00  1.773706008E+02  1.777220978E+02  3.303624740E-06  0.00000E+00  9.000E+00
      21     1     1     2   515   513 -8.540630369E+00  3.977540691E+00  3.662432474E+02  3.663644081E+02  9.344061824E-06  0.00000E+00  9.000E+00
      21     1     1     2   516   515 -1.752338325E-01  3.011573842E+00  1.670636431E+02  1.670908769E+02  1.907348633E-06  0.00000E+00  9.000E+00
</event>
<event>
      5  10001  3.52971E+09  1.44303E+01 -1.00000E+00  1.78979E-01
      21    -1     0     0   512   513  0.000000000E+00  0.000000000E+00  8.272638629E+00  8.272638629E+00  0.000000000E+00  0.00000E+00  9.000E+00
      21    -1     0     0   516   511  0.000000000E+00  0.000000000E+00 -3.045321544E+02  3.045321544E+02  0.000000000E+00  0.00000E+00  9.000E+00
      21     1     1     2   515   513 -9.222863253E+00 -3.419103219E+00  2.974439448E+00  1.027612590E+01  3.793216366E-07  0.00000E+00  9.000E+00
      21     1     1     2   516   515  1.036066671E+01 -1.096627414E+01 -2.643191294E+02  2.647493243E+02  5.394796609E-06  0.00000E+00  9.000E+00
      21     1     1     2   512   511 -1.137803456E+00  1.438537736E+01 -3.491482587E+01  3.777934282E+01  4.768371582E-07  0.00000E+00  9.000E+00
</event>
<event>
      5  10001  3.52971E+09  5.22161E+00 -1.00000E+00  2.35265E-01
      21    -1     0     0   513   514  0.000000000E+00  0.000000000E+00  2.774493618E+00  2.774493618E+00  0.000000000E+00  0.00000E+00  9.000E+00
      21    -1     0     0   514   511  0.000000000E+00  0.000000000E+00 -2.640091494E+02  2.640091494E+02  0.000000000E+00  0.00000E+00  9.000E+00
      -4     1     1     2     0   512  4.029542095E+00  1.212327086E+01 -7.336529527E+01  7.448441083E+01  1.500000000E+00  0.00000E+00  9.000E+00
      21     1     1     2   512   511 -5.696363798E+00 -1.705643267E+01 -1.855258330E+02  1.863952927E+02  3.814697266E-06  0.00000E+00  9.000E+00
       4     1     1     2   513     0  1.666821704E+00  4.933161817E+00 -2.343527592E+00  5.903939505E+00  1.500000000E+00  0.00000E+00  9.000E+00
</event>
<event>
      5  10001  3.52971E+09  7.29811E+00 -1.00000E+00  2.13020E-01
      21    -1     0     0   511   512  0.000000000E+00  0.000000000E+00  2.026511841E+02  2.026511841E+02  0.000000000E+00  0.00000E+00  9.000E+00
      21    -1     0     0   514   515  0.000000000E+00  0.000000000E+00 -1.426322854E+01  1.426322854E+01  0.000000000E+00  0.00000E+00  9.000E+00
      21     1     1     2   514   516 -1.530835876E+01 -9.568419460E+00  7.749208685E+00  1.964562888E+01  3.576278687E-07  0.00000E+00  9.000E+00
      21     1     1     2   516   512  9.241955384E+00  1.362565798E+01 -1.840037468E-02  1.646428357E+01  2.611505762E-07  0.00000E+00  9.000E+00
      21     1     1     2   511   515  6.066403379E+00 -4.057238523E+00  1.806571473E+02  1.808045002E+02  3.303624740E-06  0.00000E+00  9.000E+00
</event>
<event>
      5  10001  3.52971E+09  7.49020E+00 -1.00000E+00  2.11476E-01
       3    -1     0     0   515     0  0.000000000E+00  0.000000000E+00  1.861102556E+02  1.861102556E+02  0.000000000E+00  0.00000E+00  9.000E+00
      21    -1     0     0   513   515  0.000000000E+00  0.000000000E+00 -4.253893221E+00  4.253893221E+00  0.000000000E+00  0.00000E+00  9.000E+00
      21     1     1     2   513   511  1.125435463E+01  1.629668253E+00  3.916007580E+00  1.202711238E+01  1.332800375E-07  0.00000E+00  9.000E+00
      21     1     1     2   511   512 -2.793308820E+00 -1.070804211E+00  2.879072366E+01  2.894572446E+01  3.371747881E-07  0.00000E+00  9.000E+00
       3     1     1     2   512     0 -8.461045814E+00 -5.588640419E-01  1.491496311E+02  1.493913120E+02  5.000000000E-01  0.00000E+00  9.000E+00
</event>
<event>
      5  10001  3.52971E+09  5.41616E+00 -1.00000E+00  2.32599E-01
      21    -1     0     0   514   515  0.000000000E+00  0.000000000E+00  3.965848815E+02  3.965848815E+02  0.000000000E+00  0.00000E+00  9.000E+00
      21    -1     0     0   516   514  0.000000000E+00  0.000000000E+00 -7.455123267E+00  7.455123267E+00  0.000000000E+00  0.00000E+00  9.000E+00
      21     1     1     2   516   513  5.308436898E+00  1.181918688E+01  3.066797313E+01  3.329260063E+01  4.768371582E-07  0.00000E+00  9.000E+00
      21     1     1     2   513   511 -1.050466399E+01 -1.029142670E+01  2.708843662E+00  1.495323587E+01  2.731427965E-07  0.00000E+00  9.000E+00
      21     1     1     2   511   515  5.196227094E+00 -1.527760180E+00  3.557529414E+02  3.557941683E+02  6.607249480E-06  0.00000E+00  9.000E+00
</event>
<event>
      5  10001  3.52971E+09  8.12758E+00 -1.00000E+00  2.06771E-01
      21    -1     0     0   512   513  0.000000000E+00  0.000000000E+00  7.670008996E+01  7.670008996E+01  0.000000000E+00  0.00000E+00  9.000E+00
       3    -1     0     0   514     0  0.000000000E+00  0.000000000E+00 -1.982873622E+01  1.982873622E+01  0.000000000E+00  0.00000E+00  9.000E+00
      21     1     1     2   512   511 -5.999442500E+00 -1.976574973E+01  6.463388896E+01  6.785438656E+01  9.536743164E-07  0.00000E+00  9.000E+00
       3     1     1     2   511     0 -1.528759200E+00  1.670351118E+01 -1.084737592E+01  1.998149031E+01  5.000000000E-01  0.00000E+00  9.000E+00
      21     1     1     2   514   513  7.528201700E+00  3.062238546E+00  3.084840698E+00  8.692949321E+00  7.300048300E-08  0.00000E+00  9.000E+00
</event>
<event>
      5  10001  3.52971E+09  7.52564E+00 -1.00000E+00  2.11198E-01
       2    -1     0     0   514     0  0.000000000E+00  0.000000000E+00  2.181710968E+03  2.181710968E+03  0.000000000E+00  0.00000E+00  9.000E+00
       2    -1     0     0   511     0  0.000000000E+00  0.000000000E+00 -1.656625459E+02  1.656625459E+02  0.000000000E+00  0.00000E+00  9.000E+00
       2     1     1     2   514     0  1.483238157E+01  4.658614904E-01 -1.613609034E+02  1.620421754E+02  3.300000131E-01  0.00000E+00  9.000E+00
       2     1     1     2   512     0 -1.298062883E+01  6.828401781E+00  2.177748637E+03  2.177798052E+03  3.300000131E-01  0.00000E+00  9.000E+00
      21     1     1     2   511   512 -1.851752741E+00 -7.294263272E+00 -3.393112558E-01  7.533285938E+00  1.037745794E-07  0.00000E+00  9.000E+00
</event>
<event>
      5  10001  3.52971E+09  4.76166E+00 -1.00000E+00  2.46814E-01
      21    -1     0     0   513   512  0.000000000E+00  0.000000000E+00  3.239135969E+02  3.239135969E+02  0.000000000E+00  0.00000E+00  9.000E+00
      21    -1     0     0   511   513  0.000000000E+00  0.000000000E+00 -2.027512366E+00  2.027512366E+00  0.000000000E+00  0.00000E+00  9.000E+00
      21     1     1     2   511   515 -1.011113300E+01 -6.757268823E+00  1.970072175E+01  2.315197897E+01  4.768371582E-07  0.00000E+00  9.000E+00
      21     1     1     2   514   512  8.854691478E+00  7.655867193E+00  2.991902303E+02  2.994191239E+02  0.000000000E+00  0.00000E+00  9.000E+00
      21     1     1     2   515   514  1.256441526E+00 -8.985983697E-01  2.995132431E+00  3.370006323E+00  7.300048300E-08  0.00000E+00  9.000E+00
</event>
<event>
      5  10001  3.52971E+09  7.00930E+00 -1.00000E+00  2.15467E-01
      21    -1     0     0   512   514  0.000000000E+00  0.000000000E+00  1.531876353E+01  1.531876353E+01  0.000000000E+00  0.00000E+00  9.000E+00
      21    -1     0     0   511   517  0.000000000E+00  0.000000000E+00 -2.204104128E+01  2.204104128E+01  0.000000000E+00  0.00000E+00  9.000E+00
      21     1     1     2   516   517 -1.281464772E+01 -4.020547048E+00 -2.485491324E+00  1.365861127E+01  1.861154437E-07  0.00000E+00  9.000E+00
      21     1     1     2   511   514  9.280076899E+00 -2.032310123E+00 -1.060017757E+01  1.423425011E+01  2.384185791E-07  0.00000E+00  9.000E+00
      21     1     1     2   512   516  3.534570823E+00  6.052857172E+00  6.363391144E+00  9.466943419E+00  8.429369702E-08  0.00000E+00  9.000E+00
</event>
<event>
      5  10001  3.52971E+09  4.51378E+00 -1.00000E+00  2.51680E-01
       2    -1     0     0   511     0  0.000000000E+00  0.000000000E+00  1.533633579E+02  1.533633579E+02  0.000000000E+00  0.00000E+00  9.000E+00
      21    -1     0     0   514   513  0.000000000E+00  0.000000000E+00 -1.270331007E+02  1.270331007E+02  0.000000000E+00  0.00000E+00  9.000E+00
      21     1     1     2   511   513  2.372516316E+00  1.144236103E+01  2.099790071E+01  2.403056999E+01  9.233911863E-07  0.00000E+00  9.000E+00
       2     1     1     2   512     0 -2.836446771E+00 -1.593223252E+01  1.303076654E+02  1.313090934E+02  3.300000131E-01  0.00000E+00  9.000E+00
      21     1     1     2   514   512  4.639304548E-01  4.489871491E+00 -1.249753089E+02  1.250567952E+02  1.348699152E-06  0.00000E+00  9.000E+00
</event>
<event>
      5  10001  3.52971E+09  4.99197E+00 -1.00000E+00  2.42677E-01
      21    -1     0     0   515   512  0.000000000E+00  0.000000000E+00  1.731065422E+02  1.731065422E+02  0.000000000E+00  0.00000E+00  9.000E+00
      21    -1     0     0   511   516  0.000000000E+00  0.000000000E+00 -3.389348078E+01  3.389348078E+01  0.000000000E+00  0.00000E+00  9.000E+00
      21     1     1     2   515   516 -1.617163551E+00 -1.301868118E+01  1.576255749E+02  1.581705508E+02  1.907348633E-06  0.00000E+00  9.000E+00
      21     1     1     2   514   512 -6.011756292E-01  8.546681194E+00  1.379405640E+01  1.623832391E+01  5.057621821E-07  0.00000E+00  9.000E+00
      21     1     1     2   511   514  2.218339181E+00  4.471999986E+00 -3.220656980E+01  3.259114835E+01  0.000000000E+00  0.00000E+00  9.000E+00
</event>
<event>
      5  10001  3.52971E+09  2.38314E+01 -1.00000E+00  1.60321E-01
      21    -1     0     0   513   514  0.000000000E+00  0.000000000E+00  7.463206587E+01  7.463206587E+01  0.000000000E+00  0.00000E+00  9.000E+00
      21    -1     0     0   511   517  0.000000000E+00  0.000000000E+00 -2.542089674E+00  2.542089674E+00  0.000000000E+00  0.00000E+00  9.000E+00
      21     1     1     2   513   517  1.780523513E+00 -1.555937641E+00  3.835075225E+00  4.505442032E+00  1.032382731E-07  0.00000E+00  9.000E+00
      21     1     1     2   512   514 -2.391921853E+00 -9.562421859E-01  6.967248325E+01  6.972008757E+01  9.536743164E-07  0.00000E+00  9.000E+00
      21     1     1     2   511   512  6.113983405E-01  2.512179827E+00 -1.417582277E+00  2.948625938E+00  2.950279396E-07  0.00000E+00  9.000E+00
</event>
<event>
      5  10001  3.52971E+09  3.87540E+00 -1.00000E+00  2.66742E-01
      21    -1     0     0   511   512  0.000000000E+00  0.000000000E+00  1.815081256E-01  1.815081256E-01  0.000000000E+00  0.00000E+00  9.000E+00
       2    -1     0     0   514     0  0.000000000E+00  0.000000000E+00 -1.066192321E+03  1.066192321E+03  0.000000000E+00  0.00000E+00  9.000E+00
      21     1     1     2   514   512 -4.732803754E+00 -9.584185700E+00 -1.941307596E+02  1.944248129E+02  2.697398305E-06  0.00000E+00  9.000E+00
      21     1     1     2   511   513  2.791897971E-01  2.869180189E+00 -2.530060626E+02  2.530224849E+02  0.000000000E+00  0.00000E+00  9.000E+00
       2     1     1     2   513     0  4.453613957E+00  6.715005511E+00 -6.188739911E+02  6.189265318E+02  3.300000131E-01  0.00000E+00  9.000E+00
</event>
<event>
      5  10001  3.52971E+09  4.03627E+00 -1.00000E+00  2.62541E-01
      -1    -1     0     0     0   515  0.000000000E+00  0.000000000E+00  1.318665208E+00  1.318665208E+00  0.000000000E+00  0.00000E+00  9.000E+00
      21    -1     0     0   515   516  0.000000000E+00  0.000000000E+00 -1.818068833E+02  1.818068833E+02  0.000000000E+00  0.00000E+00  9.000E+00
      -1     1     1     2     0   511 -2.474617837E+00 -6.991302252E+00 -1.277968128E+01  1.477941793E+01  3.300000131E-01  0.00000E+00  9.000E+00
      21     1     1     2   513   516  4.761177976E+00  9.578707073E+00 -1.426983623E+02  1.430987178E+02  3.303624740E-06  0.00000E+00  9.000E+00
      21     1     1     2   511   513 -2.286560138E+00 -2.587404821E+00 -2.501017451E+01  2.524741273E+01  3.371747881E-07  0.00000E+00  9.000E+00
</event>
<event>
      5  10001  3.52971E+09  9.65178E+00 -1.00000E+00  1.97549E-01
      21    -1     0     0   512   513  0.000000000E+00  0.000000000E+00  4.125195859E+00  4.125195859E+00  0.000000000E+00  0.00000E+00  9.000E+00
       2    -1     0     0   511     0  0.000000000E+00  0.000000000E+00 -7.763243813E+02  7.763243813E+02  0.000000000E+00  0.00000E+00  9.000E+00
      21     1     1     2   512   514 -8.469164826E+00  9.212250428E+00 -8.448705906E+01  8.540875517E+01  1.907348633E-06  0.00000E+00  9.000E+00
      21     1     1     2   511   513  1.245352622E+01 -4.213528024E-01 -7.063007337E+00  1.432319539E+01  4.129530925E-07  0.00000E+00  9.000E+00
       2     1     1     2   514     0 -3.984361389E+00 -8.790897626E+00 -6.806491191E+02  6.807176266E+02  3.300000131E-01  0.00000E+00  9.000E+00
</event>
<event>
      5  10001  3.52971E+09  4.23215E+00 -1.00000E+00  2.57820E-01
      21    -1     0     0   515   513  0.000000000E+00  0.000000000E+00  4.414325546E+01  4.414325546E+01  0.000000000E+00  0.00000E+00  9.000E+00
      21    -1     0     0   516   515  0.000000000E+00  0.000000000E+00 -2.383810106E+01  2.383810106E+01  0.000000000E+00  0.00000E+00  9.000E+00
      21     1     1     2   511   513 -1.521003784E+01  7.674664043E+00  3.816566315E+01  4.179549693E+01  4.768371582E-07  0.00000E+00  9.000E+00
      21     1     1     2   512   511  1.022096485E+01 -4.996485139E+00 -1.700403739E+01  2.045899005E+01  4.768371582E-07  0.00000E+00  9.000E+00
      21     1     1     2   516   512  4.989072997E+00 -2.678178905E+00 -8.564713629E-01  5.726869547E+00  9.064022497E-08  0.00000E+00  9.000E+00
</event>
<event>
      5  10001  3.52971E+09  4.38069E+00 -1.00000E+00  2.54493E-01
      21    -1     0     0   514   512  0.000000000E+00  0.000000000E+00  5.122465962E+01  5.122465962E+01  0.000000000E+00  0.00000E+00  9.000E+00
      21    -1     0     0   513   517  0.000000000E+00  0.000000000E+00 -2.091859933E+02  2.091859933E+02  0.000000000E+00  0.00000E+00  9.000E+00
      21     1     1     2   514   517 -7.306415499E+00 -1.371732327E+01 -2.073330434E+02  2.079147411E+02  0.000000000E+00  0.00000E+00  9.000E+00
      -3     1     1     2     0   512  2.939784613E+00  1.289055638E+01  3.953617317E+01  4.169133922E+01  5.000000000E-01  0.00000E+00  9.000E+00
       3     1     1     2   513     0  4.366630886E+00  8.267668938E-01  9.835536596E+00  1.080457259E+01  5.000000000E-01  0.00000E+00  9.000E+00
</event>
<event>
      5  10001  3.52971E+09  1.24150E+01 -1.00000E+00  1.85485E-01
      21    -1     0     0   511   512  0.000000000E+00  0.000000000E+00  2.803902597E+00  2.803902597E+00  0.000000000E+00  0.00000E+00  9.000E+00
      21    -1     0     0   513   511  0.000000000E+00  0.000000000E+00 -1.204799238E+02  1.204799238E+02  0.000000000E+00  0.00000E+00  9.000E+00
      21     1     1     2   515   512 -2.155685643E+00  7.547503951E+00 -6.009867141E+00  9.885863622E+00  2.528810911E-07  0.00000E+00  9.000E+00
      21     1     1     2   513   514 -1.363740379E-01 -1.845838537E+00 -1.015137349E+02  1.015306066E+02  1.907348633E-06  0.00000E+00  9.000E+00
      21     1     1     2   514   515  2.292059681E+00 -5.701665414E+00 -1.015241917E+01  1.186735611E+01  1.192092896E-07  0.00000E+00  9.000E+00
</event>
<event>
      5  10001  3.52971E+09  1.02739E+01 -1.00000E+00  1.94406E-01
      -3    -1     0     0     0   514  0.000000000E+00  0.000000000E+00  1.329488948E+01  1.329488948E+01  0.000000000E+00  0.00000E+00  9.000E+00
       1    -1     0     0   514     0  0.000000000E+00  0.000000000E+00 -2.694333889E+01  2.694333889E+01  0.000000000E+00  0.00000E+00  9.000E+00
      21     1     1     2   512   511 -5.397306614E+00  4.581085781E-01  1.079969383E+01  1.208197703E+01  0.000000000E+00  0.00000E+00  9.000E+00
       1     1     1     2   511     0  8.406442266E+00 -3.875039503E+00 -1.804640713E+01  2.028462257E+01  3.300000131E-01  0.00000E+00  9.000E+00
      -3     1     1     2     0   512 -3.009135652E+00  3.416930924E+00 -6.401736107E+00  7.871628771E+00  5.000000000E-01  0.00000E+00  9.000E+00
</event>
<event>
      5  10001  3.52971E+09  1.07195E+01 -1.00000E+00  1.92328E-01
      21    -1     0     0   512   513  0.000000000E+00  0.000000000E+00  8.210974024E-01  8.210974024E-01  0.000000000E+00  0.00000E+00  9.000E+00
      21    -1     0     0   513   515  0.000000000E+00  0.000000000E+00 -2.800479031E+02  2.800479031E+02  0.000000000E+00  0.00000E+00  9.000E+00
      21     1     1     2   511   515 -2.694234694E+00 -1.774418749E+00 -1.054574760E+01  1.102815736E+01  1.192092896E-07  0.00000E+00  9.000E+00
       4     1     1     2   512     0  3.095472531E+00  1.243652462E+01 -1.881885631E+02  1.886304174E+02  1.500000000E+00  0.00000E+00  9.000E+00
      -4     1     1     2     0   511 -4.012378366E-01 -1.066210588E+01 -8.049249495E+01  8.121042566E+01  1.500000000E+00  0.00000E+00  9.000E+00
</event>
<event>
      5  10001  3.52971E+09  4.05070E+00 -1.00000E+00  2.62180E-01
      21    -1     0     0   515   513  0.000000000E+00  0.000000000E+00  2.447421592E+01  2.447421592E+01  0.000000000E+00  0.00000E+00  9.000E+00
       2    -1     0     0   512     0  0.000000000E+00  0.000000000E+00 -2.186266610E+01  2.186266610E+01  0.000000000E+00  0.00000E+00  9.000E+00
      21     1     1     2   512   513 -1.053115474E+01  5.929271567E+00 -2.744585416E-01  1.208870584E+01  2.553930357E-08  0.00000E+00  9.000E+00
       2     1     1     2   514     0  1.427776725E+01 -4.390083738E+00 -1.178422873E+01  1.902904148E+01  3.300000131E-01  0.00000E+00  9.000E+00
      21     1     1     2   515   514 -3.746612511E+00 -1.539187829E+00  1.467023710E+01  1.521913470E+01  0.000000000E+00  0.00000E+00  9.000E+00
</event>
<event>
      5  10001  3.52971E+09  7.41242E+00 -1.00000E+00  2.12093E-01
      21    -1     0     0   511   513  0.000000000E+00  0.000000000E+00  2.638366795E+01  2.638366795E+01  0.000000000E+00  0.00000E+00  9.000E+00
      21    -1     0     0   512   516  0.000000000E+00  0.000000000E+00 -6.598887506E+00  6.598887506E+00  0.000000000E+00  0.00000E+00  9.000E+00
      21     1     1     2   511   516  1.143160446E+01  2.901936093E+00  7.635799541E+00  1.405020456E+01  0.000000000E+00  0.00000E+00  9.000E+00
      21     1     1     2   512   517 -7.943698860E+00  2.078671838E+00  5.296911806E+00  9.771412532E+00  1.032382731E-07  0.00000E+00  9.000E+00
      21     1     1     2   517   513 -3.487905596E+00 -4.980607931E+00  6.852069097E+00  9.160938365E+00  0.000000000E+00  0.00000E+00  9.000E+00
</event>
<event>
      5  10001  3.52971E+09  5.84383E+00 -1.00000E+00  2.27259E-01
      21    -1     0     0   514   512  0.000000000E+00  0.000000000E+00  9.052816553E+00  9.052816553E+00  0.000000000E+00  0.00000E+00  9.000E+00
       2    -1     0     0   511     0  0.000000000E+00  0.000000000E+00 -1.057689707E+02  1.057689707E+02  0.000000000E+00  0.00000E+00  9.000E+00
      21     1     1     2   513   512  3.694170328E+00 -6.830814532E+00  6.294091539E+00  9.996124743E+00  3.264680848E-07  0.00000E+00  9.000E+00
       2     1     1     2   514     0 -9.189048680E+00  8.819151309E+00 -5.474752796E+01  5.621046845E+01  3.300000131E-01  0.00000E+00  9.000E+00
      21     1     1     2   511   513  5.494878352E+00 -1.988336777E+00 -4.826271770E+01  4.861519403E+01  9.536743164E-07  0.00000E+00  9.000E+00
</event>
<event>
      5  10001  3.52971E+09  6.55007E+00 -1.00000E+00  2.19708E-01
       2    -1     0     0   511     0  0.000000000E+00  0.000000000E+00  3.796372674E+02  3.796372674E+02  0.000000000E+00  0.00000E+00  9.000E+00
      21    -1     0     0   515   514  0.000000000E+00  0.000000000E+00 -7.829318334E+00  7.829318334E+00  0.000000000E+00  0.00000E+00  9.000E+00
      21     1     1     2   511   514  1.113072445E+01 -2.562320894E+00 -3.471155236E+00  1.193764775E+01  2.598106231E-07  0.00000E+00  9.000E+00
      21     1     1     2   515   512 -2.827529059E+00  2.452819913E+00  2.166164851E+02  2.166488238E+02  0.000000000E+00  0.00000E+00  9.000E+00
       2     1     1     2   512     0 -8.303195390E+00  1.095009817E-01  1.586626192E+02  1.588801142E+02  3.300000131E-01  0.00000E+00  9.000E+00
</event>
<event>
      5  10001  3.52971E+09  9.02138E+00 -1.00000E+00  2.01069E-01
      21    -1     0     0   512   513  0.000000000E+00  0.000000000E+00  3.932565862E-01  3.932565862E-01  0.000000000E+00  0.00000E+00  9.000E+00
       4    -1     0     0   515     0  0.000000000E+00  0.000000000E+00 -3.225420868E+02  3.225420868E+02  0.000000000E+00  0.00000E+00  9.000E+00
      21     1     1     2   515   511 -3.350378977E+00  5.926043887E-01 -3.920623287E+01  3.935358834E+01  0.000000000E+00  0.00000E+00  9.000E+00
       4     1     1     2   512     0  5.042390486E+00 -7.895703763E+00 -2.182726599E+02  2.184787676E+02  1.500000000E+00  0.00000E+00  9.000E+00
      21     1     1     2   511   513 -1.692011509E+00  7.303099374E+00 -6.466993747E+01  6.510298745E+01  0.000000000E+00  0.00000E+00  9.000E+00
</event>
<event>
      5  10001  3.52971E+09  1.93121E+00 -1.00000E+00  3.70300E-01
      21    -1     0     0   514   512  0.000000000E+00  0.000000000E+00  1.886703448E+02  1.886703448E+02  0.000000000E+00  0.00000E+00  9.000E+00
      21    -1     0     0   511   513  0.000000000E+00  0.000000000E+00 -1.009654832E+01  1.009654832E+01  0.000000000E+00  0.00000E+00  9.000E+00
      21     1     1     2   514   513 -1.107527233E+01 -5.667678749E+00 -5.268467093E+00  1.351077293E+01  2.149076030E-07  0.00000E+00  9.000E+00
      21     1     1     2   511   515  1.187305522E+01  3.908957659E+00  5.512880771E+01  5.652817731E+01  1.348699152E-06  0.00000E+00  9.000E+00
      21     1     1     2   515   512 -7.977828943E-01  1.758721091E+00  1.287134559E+02  1.287279429E+02  1.907348633E-06  0.00000E+00  9.000E+00
</event>
<event>
      5  10001  3.52971E+09  4.68401E+00 -1.00000E+00  2.48289E-01
      21    -1     0     0   511   512  0.000000000E+00  0.000000000E+00  1.347811187E+01  1.347811187E+01  0.000000000E+00  0.00000E+00  9.000E+00
       2    -1     0     0   512     0  0.000000000E+00  0.000000000E+00 -1.575648324E+01  1.575648324E+01  0.000000000E+00  0.00000E+00  9.000E+00
      21     1     1     2   513   515  9.508458365E+00  2.251915186E+00  6.614220656E+00  1.179956852E+01  1.192092896E-07  0.00000E+00  9.000E+00
       2     1     1     2   515     0 -1.206698720E+01 -1.222427893E+00 -6.400292618E+00  1.371784078E+01  3.300000131E-01  0.00000E+00  9.000E+00
      21     1     1     2   511   513  2.558528839E+00 -1.029487293E+00 -2.492299407E+00  3.717185796E+00  5.960464478E-08  0.00000E+00  9.000E+00
</event>
<event>
      5  10001  3.52971E+09  8.52885E+00 -1.00000E+00  2.04096E-01
      21    -1     0     0   514   513  0.000000000E+00  0.000000000E+00  1.166018576E+02  1.166018576E+02  0.000000000E+00  0.00000E+00  9.000E+00
      21    -1     0     0   512   514  0.000000000E+00  0.000000000E+00 -5.110989104E+00  5.110989104E+00  0.000000000E+00  0.00000E+00  9.000E+00
      21     1     1     2   516   513 -2.325736622E+01 -5.627897109E-01  5.010311664E+01  5.524078306E+01  6.743495762E-07  0.00000E+00  9.000E+00
      21     1     1     2   515   516  1.410866920E+01  2.897316766E+00  4.782245416E+01  4.994433014E+01  6.743495762E-07  0.00000E+00  9.000E+00
      21     1     1     2   512   515  9.148697018E+00 -2.334527055E+00  1.356529774E+01  1.652773355E+01  2.384185791E-07  0.00000E+00  9.000E+00
</event>
<event>
      5  10001  3.52971E+09  1.17145E+01 -1.00000E+00  1.88130E-01
      21    -1     0     0   511   512  0.000000000E+00  0.000000000E+00  6.360028359E+00  6.360028359E+00  0.000000000E+00  0.00000E+00  9.000E+00
       3    -1     0     0   513     0  0.000000000E+00  0.000000000E+00 -2.908811432E+01  2.908811432E+01  0.000000000E+00  0.00000E+00  9.000E+00
       3     1     1     2   513     0  5.697994605E+00 -3.143850295E+00  2.784664468E+00  7.096146376E+00  5.000000000E-01  0.00000E+00  9.000E+00
       3     1     1     2   511     0 -5.225943188E+00  6.334991772E+00 -1.271722522E+01  1.514663066E+01  5.000000000E-01  0.00000E+00  9.000E+00
      -3     1     1     2     0   512 -4.720514177E-01 -3.191141478E+00 -1.279552520E+01  1.320536564E+01  5.000000000E-01  0.00000E+00  9.000E+00
</event>
<event>
      5  10001  3.52971E+09  1.66215E+01 -1.00000E+00  1.73281E-01
      21    -1     0     0   514   515  0.000000000E+00  0.000000000E+00  8.892259954E+01  8.892259954E+01  0.000000000E+00  0.00000E+00  9.000E+00
      21    -1     0     0   513   512  0.000000000E+00  0.000000000E+00 -1.472695995E+00  1.472695995E+00  0.000000000E+00  0.00000E+00  9.000E+00
      21     1     1     2   514   512  7.420092502E+00  3.041689170E+00  5.145854487E+01  5.207966480E+01  6.743495762E-07  0.00000E+00  9.000E+00
      21     1     1     2   513   511 -1.233918811E+00  3.672735899E+00  1.340996606E+01  1.395846462E+01  1.685873940E-07  0.00000E+00  9.000E+00
      21     1     1     2   511   515 -6.186173691E+00 -6.714425069E+00  2.258139261E+01  2.435716612E+01  2.384185791E-07  0.00000E+00  9.000E+00
</event>
<event>
      5  10001  3.52971E+09  7.39529E+00 -1.00000E+00  2.12231E-01
       2    -1     0     0   512     0  0.000000000E+00  0.000000000E+00  1.430566111E+03  1.430566111E+03  0.000000000E+00  0.00000E+00  9.000E+00
      21    -1     0     0   511   516  0.000000000E+00  0.000000000E+00 -1.569070118E-01  1.569070118E-01  0.000000000E+00  0.00000E+00  9.000E+00
      21     1     1     2   512   513  9.926223507E+00 -3.682763526E+00  2.930425121E+02  2.932337064E+02  3.814697266E-06  0.00000E+00  9.000E+00
       2     1     1     2   511     0 -1.153533216E+01 -1.004397393E+00  8.647544864E+02  8.648320665E+02  3.300000131E-01  0.00000E+00  9.000E+00
      21     1     1     2   513   516  1.609108651E+00  4.687160919E+00  2.726122058E+02  2.726572454E+02  5.394796609E-06  0.00000E+00  9.000E+00
</event>
<event>
      5  10001  3.52971E+09  1.30324E+01 -1.00000E+00  1.83333E-01
       1    -1     0     0   512     0  0.000000000E+00  0.000000000E+00  2.826257095E+02  2.826257095E+02  0.000000000E+00  0.00000E+00  9.000E+00
      21    -1     0     0   513   512  0.000000000E+00  0.000000000E+00 -1.352268225E+00  1.352268225E+00  0.000000000E+00  0.00000E+00  9.000E+00
      21     1     1     2   513   514  5.731824172E+00  9.008594149E+00  2.345534907E+01  2.577134022E+01  6.743495762E-07  0.00000E+00  9.000E+00
      21     1     1     2   514   511 -4.878647402E+00 -4.475868358E+00  6.566838608E+01  6.600129944E+01  9.536743164E-07  0.00000E+00  9.000E+00
       1     1     1     2   511     0 -8.531767701E-01 -4.532725791E+00  1.921497061E+02  1.922053380E+02  3.300000131E-01  0.00000E+00  9.000E+00
</event>
<event>
      5  10001  3.52971E+09  3.65200E+00 -1.00000E+00  2.73137E-01
      21    -1     0     0   515   514  0.000000000E+00  0.000000000E+00  3.308318699E+01  3.308318699E+01  0.000000000E+00  0.00000E+00  9.000E+00
       2    -1     0     0   516     0  0.000000000E+00  0.000000000E+00 -8.701664426E+02  8.701664426E+02  0.000000000E+00  0.00000E+00  9.000E+00
      21     1     1     2   516   513 -7.742171215E+00  1.230477459E+01 -2.537392822E+01  2.924354503E+01  4.768371582E-07  0.00000E+00  9.000E+00
      21     1     1     2   513   514  4.166275574E+00 -1.304641332E+01  2.963876061E+01  3.265000587E+01  0.000000000E+00  0.00000E+00  9.000E+00
       2     1     1     2   515     0  3.575895641E+00  7.416387325E-01 -8.413480881E+02  8.413560787E+02  3.300000131E-01  0.00000E+00  9.000E+00
</event>
<event>
      5  10001  3.52971E+09  5.62313E+00 -1.00000E+00  2.29932E-01
      21    -1     0     0   513   511  0.000000000E+00  0.000000000E+00  3.928316647E+01  3.928316647E+01  0.000000000E+00  0.00000E+00  9.000E+00
      21    -1     0     0   512   514  0.000000000E+00  0.000000000E+00 -1.471778466E+01  1.471778466E+01  0.000000000E+00  0.00000E+00  9.000E+00
      -1     1     1     2     0   514 -1.144494605E+01  1.678483583E+00  1.317596539E+01  1.753622141E+01  3.300000131E-01  0.00000E+00  9.000E+00
      21     1     1     2   512   511  8.683359770E+00 -6.575675851E+00 -9.731255770E+00  1.460608054E+01  1.685873940E-07  0.00000E+00  9.000E+00
       1     1     1     2   513     0  2.761586281E+00  4.897192268E+00  2.112067218E+01  2.185864919E+01  3.300000131E-01  0.00000E+00  9.000E+00
</event>
<event>
      5  10001  3.52971E+09  4.41858E+00 -1.00000E+00  2.53677E-01
       1    -1     0     0   515     0  0.000000000E+00  0.000000000E+00  3.402521904E+02  3.402521904E+02  0.000000000E+00  0.00000E+00  9.000E+00
      21    -1     0     0   517   516  0.000000000E+00  0.000000000E+00 -4.839226892E+01  4.839226892E+01  0.000000000E+00  0.00000E+00  9.000E+00
      21     1     1     2   515   516  1.195204575E+01 -9.644425256E+00  1.317287335E+02  1.326209847E+02  3.303624740E-06  0.00000E+00  9.000E+00
      21     1     1     2   517   512 -1.144151028E+01  1.403339978E+01 -4.621207004E+01  4.963264938E+01  1.907348633E-06  0.00000E+00  9.000E+00
       1     1     1     2   512     0 -5.105354695E-01 -4.388974529E+00  2.063432580E+02  2.063908253E+02  3.300000131E-01  0.00000E+00  9.000E+00
</event>
<event>
      5  10001  3.52971E+09  2.14932E+00 -1.00000E+00  3.49068E-01
      21    -1     0     0   511   512  0.000000000E+00  0.000000000E+00  4.878726092E-01  4.878726092E-01  0.000000000E+00  0.00000E+00  9.000E+00
       2    -1     0     0   513     0  0.000000000E+00  0.000000000E+00 -8.975206306E+02  8.975206306E+02  0.000000000E+00  0.00000E+00  9.000E+00
      21     1     1     2   514   512  7.459442530E-01 -5.475650320E+00 -2.948667889E+01  3.000005685E+01  5.840038640E-07  0.00000E+00  9.000E+00
       2     1     1     2   511     0 -7.516587112E-01  1.153996624E+01 -8.194363075E+02  8.195179722E+02  3.300000131E-01  0.00000E+00  9.000E+00
      21     1     1     2   513   514  5.714458260E-03 -6.064315922E+00 -4.810977162E+01  4.849047417E+01  1.168007728E-06  0.00000E+00  9.000E+00
</event>
<event>
      5  10001  3.52971E+09  1.61401E+01 -1.00000E+00  1.74434E-01
      21    -1     0     0   515   513  0.000000000E+00  0.000000000E+00  4.068200278E-01  4.068200278E-01  0.000000000E+00  0.00000E+00  9.000E+00
      21    -1     0     0   512   514  0.000000000E+00  0.000000000E+00 -5.178107547E+02  5.178107547E+02  0.000000000E+00  0.00000E+00  9.000E+00
      21     1     1     2   515   514 -7.650031605E+00  9.910201043E+00 -1.760512873E+02  1.764958663E+02  1.907348633E-06  0.00000E+00  9.000E+00
      21     1     1     2   512   511  3.101191314E+00 -7.370081224E-01 -2.486595834E+01  2.506943264E+01  6.743495762E-07  0.00000E+00  9.000E+00
      21     1     1     2   511   513  4.548840291E+00 -9.173192921E+00 -3.164866891E+02  3.166522758E+02  6.607249480E-06  0.00000E+00  9.000E+00
</event>
<event>
      5  10001  3.52971E+09  3.31119E+00 -1.00000E+00  2.84430E-01
      21    -1     0     0   512   513  0.000000000E+00  0.000000000E+00  4.050827043E+00  4.050827043E+00  0.000000000E+00  0.00000E+00  9.000E+00
       4    -1     0     0   513     0  0.000000000E+00  0.000000000E+00 -6.839523753E+01  6.839523753E+01  0.000000000E+00  0.00000E+00  9.000E+00
      21     1     1     2   512   511  9.246002780E+00  4.380793246E+00 -3.925962113E+00  1.095869953E+01  2.384185791E-07  0.00000E+00  9.000E+00
       4     1     1     2   514     0 -4.534912493E+00 -3.248360196E+00 -4.372668895E+01  4.410658229E+01  1.500000000E+00  0.00000E+00  9.000E+00
      21     1     1     2   511   514 -4.711090287E+00 -1.132433049E+00 -1.669175943E+01  1.738078276E+01  3.371747881E-07  0.00000E+00  9.000E+00
</event>
<event>
      5  10001  3.52971E+09  1.88515E+00 -1.00000E+00  3.75479E-01
      -2    -1     0     0     0   515  0.000000000E+00  0.000000000E+00  5.030450275E+01  5.030450275E+01  0.000000000E+00  0.00000E+00  9.000E+00
      21    -1     0     0   512   514  0.000000000E+00  0.000000000E+00 -3.016819523E+00  3.016819523E+00  0.000000000E+00  0.00000E+00  9.000E+00
      -2     1     1     2     0   514 -2.987993706E+00  1.173674182E+01  2.613266512E+01  2.880458820E+01  3.300000131E-01  0.00000E+00  9.000E+00
      21     1     1     2   513   515  2.920202697E+00 -7.498750984E+00  1.228503161E+01  1.468607680E+01  1.685873940E-07  0.00000E+00  9.000E+00
      21     1     1     2   512   513  6.779100871E-02 -4.237990840E+00  8.869986498E+00  9.830657274E+00  0.000000000E+00  0.00000E+00  9.000E+00
</event>
<event>
      5  10001  3.52971E+09  3.14403E+00 -1.00000E+00  2.90812E-01
      21    -1     0     0   511   514  0.000000000E+00  0.000000000E+00  1.445564804E+00  1.445564804E+00  0.000000000E+00  0.00000E+00  9.000E+00
       2    -1     0     0   513     0  0.000000000E+00  0.000000000E+00 -1.086352990E+03  1.086352990E+03  0.000000000E+00  0.00000E+00  9.000E+00
      21     1     1     2   513   512 -1.655776082E+00  1.021286036E+01 -7.535634406E+01  7.606328090E+01  9.536743164E-07  0.00000E+00  9.000E+00
       2     1     1     2   511     0 -9.556902506E-01 -1.196351114E+01 -1.008268138E+03  1.008339618E+03  3.300000131E-01  0.00000E+00  9.000E+00
      21     1     1     2   512   514  2.611466332E+00  1.750650788E+00 -1.282943391E+00  3.395655803E+00  3.071953077E-07  0.00000E+00  9.000E+00
</event>
<event>
      5  10001  3.52971E+09  4.42649E+00 -1.00000E+00  2.53508E-01
       1    -1     0     0   512     0  0.000000000E+00  0.000000000E+00  1.852278838E+01  1.852278838E+01  0.000000000E+00  0.00000E+00  9.000E+00
      21    -1     0     0   515   513  0.000000000E+00  0.000000000E+00 -7.166163287E+01  7.166163287E+01  0.000000000E+00  0.00000E+00  9.000E+00
      21     1     1     2   512   511  5.238013567E+00 -8.054884776E+00 -5.669239473E+01  5.750083108E+01  0.000000000E+00  0.00000E+00  9.000E+00
       1     1     1     2   515     0 -9.650183039E+00  8.409493771E+00  1.540548115E+01  2.003205850E+01  3.300000131E-01  0.00000E+00  9.000E+00
      21     1     1     2   511   513  4.412169472E+00 -3.546089948E-01 -1.185193092E+01  1.265153167E+01  1.685873940E-07  0.00000E+00  9.000E+00
</event>
<event>
      5  10001  3.52971E+09  3.97611E+00 -1.00000E+00  2.64076E-01
      21    -1     0     0   514   511  0.000000000E+00  0.000000000E+00  2.725051890E+01  2.725051890E+01  0.000000000E+00  0.00000E+00  9.000E+00
      21    -1     0     0   512   514  0.000000000E+00  0.000000000E+00 -7.605633923E+01  7.605633923E+01  0.000000000E+00  0.00000E+00  9.000E+00
      21     1     1     2   516   513  2.811253911E+00 -1.584701389E+01 -1.857663496E+01  2.457890080E+01  5.840038640E-07  0.00000E+00  9.000E+00
      21     1     1     2   513   511 -4.795237319E+00  1.240125187E+01  2.234608263E+01  2.600255291E+01  4.129530925E-07  0.00000E+00  9.000E+00
      21     1     1     2   512   516  1.983983408E+00  3.445762027E+00 -5.257526800E+01  5.272540442E+01  6.743495762E-07  0.00000E+00  9.000E+00
</event>
<event>
      5  10001  3.52971E+09  4.70828E+00 -1.00000E+00  2.47824E-01
      21    -1     0     0   512   511  0.000000000E+00  0.000000000E+00  2.410111688E+01  2.410111688E+01  0.000000000E+00  0.00000E+00  9.000E+00
       4    -1     0     0   513     0  0.000000000E+00  0.000000000E+00 -5.139231090E+00  5.139231090E+00  0.000000000E+00  0.00000E+00  9.000E+00
       5     1     1     2   513     0 -7.417288963E-01  6.173798573E-01  5.576696472E+00  7.420974668E+00  4.800000191E+00  0.00000E+00  9.000E+00
       4     1     1     2   512     0  6.485538784E+00 -4.398670645E+00  3.127405633E+00  8.569783122E+00  1.500000000E+00  0.00000E+00  9.000E+00
      -5     1     1     2     0   511 -5.743809888E+00  3.781290787E+00  1.025778369E+01  1.324959019E+01  4.800000191E+00  0.00000E+00  9.000E+00
</event>
<event>
      5  10001  3.52971E+09  3.67582E+01 -1.00000E+00  1.47151E-01
      21    -1     0     0   515   511  0.000000000E+00  0.000000000E+00  4.151754163E+00  4.151754163E+00  0.000000000E+00  0.00000E+00  9.000E+00
       2    -1     0     0   511     0  0.000000000E+00  0.000000000E+00 -1.063301360E+03  1.063301360E+03  0.000000000E+00  0.00000E+00  9.000E+00
      21     1     1     2   515   514  6.847979740E+00 -4.370459966E+00 -2.092224274E+00  8.388870558E+00  1.241366005E-06  0.00000E+00  9.000E+00
       2     1     1     2   512     0  8.507016856E+00  1.228151437E+01 -9.791907802E+02  9.793048033E+02  3.300000131E-01  0.00000E+00  9.000E+00
      21     1     1     2   514   512 -1.535499660E+01 -7.911054408E+00 -7.786660141E+01  7.975944030E+01  1.651812370E-06  0.00000E+00  9.000E+00
</event>
<event>
      5  10001  3.52971E+09  1.09860E+01 -1.00000E+00  1.91147E-01
      21    -1     0     0   513   512  0.000000000E+00  0.000000000E+00  1.766978058E+02  1.766978058E+02  0.000000000E+00  0.00000E+00  9.000E+00
      21    -1     0     0   511   515  0.000000000E+00  0.000000000E+00 -1.340964595E+02  1.340964595E+02  0.000000000E+00  0.00000E+00  9.000E+00
      21     1     1     2   511   516 -1.642459225E+00  1.919362190E+01  1.385571296E+01  2.372917141E+01  3.769728732E-07  0.00000E+00  9.000E+00
      21     1     1     2   516   512  1.432147531E+00 -8.209608129E+00  1.575614367E+02  1.577816689E+02  1.907348633E-06  0.00000E+00  9.000E+00
      21     1     1     2   513   515  2.103116946E-01 -1.098401377E+01 -1.288158034E+02  1.292834250E+02  2.697398305E-06  0.00000E+00  9.000E+00
</event>
<event>
      5  10001  3.52971E+09  4.98692E+00 -1.00000E+00  2.42764E-01
      21    -1     0     0   514   511  0.000000000E+00  0.000000000E+00  1.705249662E+01  1.705249662E+01  0.000000000E+00  0.00000E+00  9.000E+00
      21    -1     0     0   517   512  0.000000000E+00  0.000000000E+00 -1.628605543E+01  1.628605543E+01  0.000000000E+00  0.00000E+00  9.000E+00
      21     1     1     2   515   511 -1.237407053E+01 -2.368748885E+00 -8.445623324E+00  1.516763483E+01  3.769728732E-07  0.00000E+00  9.000E+00
      21     1     1     2   517   515  7.475559592E+00  3.303591635E+00  1.021699240E+01  1.308375491E+01  2.920019320E-07  0.00000E+00  9.000E+00
      21     1     1     2   514   512  4.898510943E+00 -9.348427500E-01 -1.004927884E+00  5.087162321E+00  1.125012999E-07  0.00000E+00  9.000E+00
</event>
<event>
      5  10001  3.52971E+09  5.74882E+00 -1.00000E+00  2.28389E-01
      21    -1     0     0   513   512  0.000000000E+00  0.000000000E+00  1.393082215E+02  1.393082215E+02  0.000000000E+00  0.00000E+00  9.000E+00
      21    -1     0     0   511   516  0.000000000E+00  0.000000000E+00 -1.448811519E+00  1.448811519E+00  0.000000000E+00  0.00000E+00  9.000E+00
      21     1     1     2   513   516 -2.787971424E+00  9.403500713E+00  1.156814078E+02  1.160964543E+02  1.348699152E-06  0.00000E+00  9.000E+00
      21     1     1     2   515   512  1.635643654E-03 -4.949321966E+00  1.478085348E+01  1.558747639E+01  2.384185791E-07  0.00000E+00  9.000E+00
      21     1     1     2   511   515  2.786335780E+00 -4.454178747E+00  7.397148695E+00  9.073102237E+00  1.685873940E-07  0.00000E+00  9.000E+00
</event>
<event>
      5  10001  3.52971E+09  2.05574E+01 -1.00000E+00  1.65387E-01
      21    -1     0     0   514   512  0.000000000E+00  0.000000000E+00  1.484927642E+03  1.484927642E+03  0.000000000E+00  0.00000E+00  9.000E+00
      21    -1     0     0   513   514  0.000000000E+00  0.000000000E+00 -7.573224406E+00  7.573224406E+00  0.000000000E+00  0.00000E+00  9.000E+00
      21     1     1     2   515   512  1.944389885E+01  4.662733902E+00  1.384838776E+03  1.384983120E+03  2.157918644E-05  0.00000E+00  9.000E+00
      21     1     1     2   511   515 -1.678230877E+00 -1.500614038E+01  2.649620920E+00  1.533040114E+01  1.616758822E-06  0.00000E+00  9.000E+00
      21     1     1     2   513   511 -1.776566797E+01  1.034340648E+01  8.986602101E+01  9.218734592E+01  9.536743164E-07  0.00000E+00  9.000E+00
</event>
<event>
      5  10001  3.52971E+09  4.77648E+00 -1.00000E+00  2.46537E-01
       2    -1     0     0   514     0  0.000000000E+00  0.000000000E+00  4.245470631E+02  4.245470631E+02  0.000000000E+00  0.00000E+00  9.000E+00
      21    -1     0     0   511   514  0.000000000E+00  0.000000000E+00 -1.607980741E+00  1.607980741E+00  0.000000000E+00  0.00000E+00  9.000E+00
      21     1     1     2   512   516 -3.671552323E+00  1.114799701E+00  5.810258253E+00  6.962914318E+00  2.064765462E-07  0.00000E+00  9.000E+00
       2     1     1     2   516     0  1.092704596E+01  1.620632954E+00  4.023579701E+02  4.025097164E+02  3.300000131E-01  0.00000E+00  9.000E+00
      21     1     1     2   511   512 -7.255493636E+00 -2.735432655E+00  1.477085396E+01  1.668241309E+01  4.460403188E-07  0.00000E+00  9.000E+00
</event>
<event>
      5  10001  3.52971E+09  6.30384E+00 -1.00000E+00  2.22185E-01
      21    -1     0     0   513   515  0.000000000E+00  0.000000000E+00  1.413171527E+01  1.413171527E+01  0.000000000E+00  0.00000E+00  9.000E+00
       2    -1     0     0   511     0  0.000000000E+00  0.000000000E+00 -1.651189840E+02  1.651189840E+02  0.000000000E+00  0.00000E+00  9.000E+00
      21     1     1     2   513   512  1.370710925E+01  4.933530713E+00  5.581518929E+00  1.560057444E+01  2.457562462E-07  0.00000E+00  9.000E+00
      21     1     1     2   511   515 -1.993772711E+01 -3.976151435E+00 -2.636388510E+01  3.329229911E+01  6.743495762E-07  0.00000E+00  9.000E+00
       2     1     1     2   512     0  6.230617855E+00 -9.573792780E-01 -1.302049025E+02  1.303578257E+02  3.300000131E-01  0.00000E+00  9.000E+00
</event>
<event>
      5  10001  3.52971E+09  1.66714E+01 -1.00000E+00  1.73164E-01
      21    -1     0     0   511   512  0.000000000E+00  0.000000000E+00  2.793944961E+01  2.793944961E+01  0.000000000E+00  0.00000E+00  9.000E+00
       1    -1     0     0   512     0  0.000000000E+00  0.000000000E+00 -9.883102094E+02  9.883102094E+02  0.000000000E+00  0.00000E+00  9.000E+00
      21     1     1     2   513   514 -4.115854551E+00  7.215431195E+00  1.098002813E+01  1.376821425E+01  1.958808509E-06  0.00000E+00  9.000E+00
       1     1     1     2   514     0 -7.323535805E+00 -1.486111828E+01 -9.837919783E+02  9.839315284E+02  3.300000131E-01  0.00000E+00  9.000E+00
      21     1     1     2   511   513  1.143939036E+01  7.645687081E+00  1.244119035E+01  1.854991644E+01  2.861022949E-06  0.00000E+00  9.000E+00
</event>
<event>
      5  10001  3.52971E+09  5.50510E+00 -1.00000E+00  2.31433E-01
      21    -1     0     0   515   514  0.000000000E+00  0.000000000E+00  1.894849799E+02  1.894849799E+02  0.000000000E+00  0.00000E+00  9.000E+00
      21    -1     0     0   512   515  0.000000000E+00  0.000000000E+00 -8.699320153E+01  8.699320153E+01  0.000000000E+00  0.00000E+00  9.000E+00
      21     1     1     2   516   513  7.580697399E+00  7.435003515E+00  1.713411184E+01  2.015748096E+01  8.259061849E-07  0.00000E+00  9.000E+00
      21     1     1     2   512   516 -9.873229310E+00 -2.429968911E+00 -8.513457036E+01  8.573960856E+01  1.907348633E-06  0.00000E+00  9.000E+00
      21     1     1     2   513   514  2.292531911E+00 -5.005034605E+00  1.704922369E+02  1.705810919E+02  2.697398305E-06  0.00000E+00  9.000E+00
</event>
<event>
      5  10001  3.52971E+09  6.48733E+00 -1.00000E+00  2.20325E-01
      21    -1     0     0   515   512  0.000000000E+00  0.000000000E+00  3.302279046E+02  3.302279046E+02  0.000000000E+00  0.00000E+00  9.000E+00
      21    -1     0     0   514   511  0.000000000E+00  0.000000000E+00 -3.273766227E+01  3.273766227E+01  0.000000000E+00  0.00000E+00  9.000E+00
      21     1     1     2   514   517 -1.310592081E+01  2.405633675E+00 -2.292693791E+01  2.651785654E+01  4.768371582E-07  0.00000E+00  9.000E+00
      21     1     1     2   517   512  9.090887356E+00 -7.501216484E+00 -3.632431536E+00  1.233316831E+01  3.601028315E-07  0.00000E+00  9.000E+00
      21     1     1     2   515   511  4.015033452E+00  5.095582809E+00  3.240496118E+02  3.241145420E+02  5.394796609E-06  0.00000E+00  9.000E+00
</event>
<event>
      5  10001  3.52971E+09  2.60576E+00 -1.00000E+00  3.16749E-01
      21    -1     0     0   513   512  0.000000000E+00  0.000000000E+00  9.862212787E+01  9.862212787E+01  0.000000000E+00  0.00000E+00  9.000E+00
       5    -1     0     0   515     0  0.000000000E+00  0.000000000E+00 -1.385634934E+00  1.385634934E+00  0.000000000E+00  0.00000E+00  9.000E+00
      21     1     1     2   515   514 -1.035479128E-01  2.589648356E+00  2.382687531E+01  2.396741512E+01  3.371747881E-07  0.00000E+00  9.000E+00
       5     1     1     2   513     0 -1.214063379E+00 -9.500131240E+00  2.613939162E+01  2.824949981E+01  4.800000191E+00  0.00000E+00  9.000E+00
      21     1     1     2   514   512  1.317611291E+00  6.910482884E+00  4.727022601E+01  4.779084787E+01  6.743495762E-07  0.00000E+00  9.000E+00
</event>
<event>
      5  10001  3.52971E+09  7.64409E+00 -1.00000E+00  2.10283E-01
      21    -1     0     0   511   515  0.000000000E+00  0.000000000E+00  5.700104635E+02  5.700104635E+02  0.000000000E+00  0.00000E+00  9.000E+00
      21    -1     0     0   512   511  0.000000000E+00  0.000000000E+00 -1.069755065E+01  1.069755065E+01  0.000000000E+00  0.00000E+00  9.000E+00
      21     1     1     2   516   515  5.430789839E+00  9.085239135E+00  5.562265130E+02  5.563272138E+02  0.000000000E+00  0.00000E+00  9.000E+00
      21     1     1     2   512   513  1.083244873E+00 -6.636166814E+00 -8.516482660E+00  1.085092652E+01  1.149612756E-06  0.00000E+00  9.000E+00
      21     1     1     2   513   516 -6.514034712E+00 -2.449072321E+00  1.160288253E+01  1.352987385E+01  0.000000000E+00  0.00000E+00  9.000E+00
</event>
<event>
      5  10001  3.52971E+09  4.97850E+00 -1.00000E+00  2.42909E-01
       2    -1     0     0   513     0  0.000000000E+00  0.000000000E+00  5.543689113E+02  5.543689113E+02  0.000000000E+00  0.00000E+00  9.000E+00
       1    -1     0     0   514     0  0.000000000E+00  0.000000000E+00 -3.280487820E+00  3.280487820E+00  0.000000000E+00  0.00000E+00  9.000E+00
       1     1     1     2   511     0  2.718938719E+00 -7.766214459E+00  1.662191039E+01  1.855002749E+01  3.300000131E-01  0.00000E+00  9.000E+00
       2     1     1     2   514     0 -1.107179250E+01  2.000167120E+01  5.098944878E+02  5.104068465E+02  3.300000131E-01  0.00000E+00  9.000E+00
      21     1     1     2   513   511  8.352853779E+00 -1.223545674E+01  2.457202535E+01  2.869252512E+01  3.371747881E-07  0.00000E+00  9.000E+00
</event>
<event>
      5  10001  3.52971E+09  1.21181E+01 -1.00000E+00  1.86578E-01
      21    -1     0     0   512   514  0.000000000E+00  0.000000000E+00  6.962974082E+02  6.962974082E+02  0.000000000E+00  0.00000E+00  9.000E+00
      21    -1     0     0   515   516  0.000000000E+00  0.000000000E+00 -1.589370407E+01  1.589370407E+01  0.000000000E+00  0.00000E+00  9.000E+00
      21     1     1     2   512   511 -1.782206016E+01  6.736497162E-01  6.408349308E+02  6.410830587E+02  7.629394531E-06  0.00000E+00  9.000E+00
      21     1     1     2   515   514  1.178817080E+01 -1.118270170E+01  5.156017770E+01  5.405983456E+01  2.780414531E-06  0.00000E+00  9.000E+00
      21     1     1     2   511   516  6.033889362E+00  1.050905199E+01 -1.199140434E+01  1.704821904E+01  9.830249847E-07  0.00000E+00  9.000E+00
</event>
<event>
      5  10001  3.52971E+09  6.00305E+00 -1.00000E+00  2.25431E-01
      -5    -1     0     0     0   513  0.000000000E+00  0.000000000E+00  1.613562711E+01  1.613562711E+01  0.000000000E+00  0.00000E+00  9.000E+00
      21    -1     0     0   515   512  0.000000000E+00  0.000000000E+00 -7.056579945E+01  7.056579945E+01  0.000000000E+00  0.00000E+00  9.000E+00
      -5     1     1     2     0   514  6.807310813E+00 -5.909457370E+00  1.257188219E+01  1.619732665E+01  4.800000191E+00  0.00000E+00  9.000E+00
      21     1     1     2   514   512 -1.269847781E+01  6.874824420E+00 -3.358063080E+01  3.655370452E+01  4.768371582E-07  0.00000E+00  9.000E+00
      21     1     1     2   515   513  5.891166997E+00 -9.653670499E-01 -3.342142374E+01  3.395039539E+01  0.000000000E+00  0.00000E+00  9.000E+00
</event>
<event>
      5  10001  3.52971E+09  7.14718E+00 -1.00000E+00  2.14279E-01
      21    -1     0     0   511   514  0.000000000E+00  0.000000000E+00  1.527469701E+03  1.527469701E+03  0.000000000E+00  0.00000E+00  9.000E+00
      21    -1     0     0   515   512  0.000000000E+00  0.000000000E+00 -1.947120457E+01  1.947120457E+01  0.000000000E+00  0.00000E+00  9.000E+00
      21     1     1     2   511   513 -1.266288194E+01  2.134776223E+00  1.302707541E+03  1.302770833E+03  1.525878906E-05  0.00000E+00  9.000E+00
      21     1     1     2   515   514  6.868446535E+00 -6.318884595E+00  2.239730934E+02  2.241674607E+02  1.112165812E-05  0.00000E+00  9.000E+00
      21     1     1     2   513   512  5.794435402E+00  4.184108372E+00 -1.868213745E+01  2.000261244E+01  1.238859277E-06  0.00000E+00  9.000E+00
</event>
<event>
      5  10001  3.52971E+09  5.53071E+00 -1.00000E+00  2.31103E-01
      21    -1     0     0   516   512  0.000000000E+00  0.000000000E+00  2.140652664E+01  2.140652664E+01  0.000000000E+00  0.00000E+00  9.000E+00
      21    -1     0     0   513   517  0.000000000E+00  0.000000000E+00 -8.269163194E+00  8.269163194E+00  0.000000000E+00  0.00000E+00  9.000E+00
      21     1     1     2   516   517 -1.047928434E+01 -7.882612207E+00  7.450605905E+00  1.508186009E+01  0.000000000E+00  0.00000E+00  9.000E+00
      21     1     1     2   513   511  2.655547551E+00  1.095800625E+00  2.352746969E+00  3.713237146E+00  8.940696716E-08  0.00000E+00  9.000E+00
      21     1     1     2   511   512  7.823736786E+00  6.786811583E+00  3.334010571E+00  1.088059260E+01  0.000000000E+00  0.00000E+00  9.000E+00
</event>
<event>
      5  10001  3.52971E+09  3.66988E+00 -1.00000E+00  2.72599E-01
      -2    -1     0     0     0   511  0.000000000E+00  0.000000000E+00  1.500233277E+00  1.500233277E+00  0.000000000E+00  0.00000E+00  9.000E+00
       2    -1     0     0   511     0  0.000000000E+00  0.000000000E+00 -5.245565061E+02  5.245565061E+02  0.000000000E+00  0.00000E+00  9.000E+00
      -2     1     1     2     0   512  6.526409894E+00 -7.389493739E+00 -1.569238913E+01  1.853533438E+01  3.300000131E-01  0.00000E+00  9.000E+00
       2     1     1     2   513     0 -2.822291435E+00  7.280198050E+00 -4.276825089E+02  4.277539058E+02  3.300000131E-01  0.00000E+00  9.000E+00
      21     1     1     2   512   513 -3.704118459E+00  1.092956881E-01 -7.968137474E+01  7.976749914E+01  1.348699152E-06  0.00000E+00  9.000E+00
</event>
<event>
      5  10001  3.52971E+09  9.55825E+00 -1.00000E+00  1.98048E-01
       2    -1     0     0   512     0  0.000000000E+00  0.000000000E+00  1.730914762E+01  1.730914762E+01  0.000000000E+00  0.00000E+00  9.000E+00
      21    -1     0     0   514   513  0.000000000E+00  0.000000000E+00 -5.556496903E+02  5.556496903E+02  0.000000000E+00  0.00000E+00  9.000E+00
      21     1     1     2   512   513  1.453846660E+01 -1.083430114E+01 -5.486047304E+02  5.489042715E+02  7.629394531E-06  0.00000E+00  9.000E+00
      21     1     1     2   514   511 -3.475448097E+00  8.690681418E+00  8.500589512E+00  1.264384060E+01  4.915124924E-07  0.00000E+00  9.000E+00
       2     1     1     2   511     0 -1.106301850E+01  2.143619723E+00  1.763598215E+00  1.141072577E+01  3.300000131E-01  0.00000E+00  9.000E+00
</event>
<event>
      5  10001  3.52971E+09  9.18679E+00 -1.00000E+00  2.00109E-01
      21    -1     0     0   515   512  0.000000000E+00  0.000000000E+00  3.164252155E+02  3.164252155E+02  0.000000000E+00  0.00000E+00  9.000E+00
      21    -1     0     0   517   516  0.000000000E+00  0.000000000E+00 -3.955368428E+00  3.955368428E+00  0.000000000E+00  0.00000E+00  9.000E+00
      21     1     1     2   515   516  5.668710613E+00 -1.414322023E+01  8.688583652E+01  8.821175401E+01  1.651812370E-06  0.00000E+00  9.000E+00
      21     1     1     2   517   513 -2.136187184E+00  5.662749778E+00 -3.364899741E-01  6.061621585E+00  3.900007107E-07  0.00000E+00  9.000E+00
      21     1     1     2   513   512 -3.532523429E+00  8.480470449E+00  2.259205005E+02  2.261072084E+02  3.814697266E-06  0.00000E+00  9.000E+00
</event>
<event>
      5  10001  3.52971E+09  4.06916E+00 -1.00000E+00  2.61720E-01
      21    -1     0     0   511   516  0.000000000E+00  0.000000000E+00  3.831907371E+02  3.831907371E+02  0.000000000E+00  0.00000E+00  9.000E+00
      21    -1     0     0   514   515  0.000000000E+00  0.000000000E+00 -7.936845231E+00  7.936845231E+00  0.000000000E+00  0.00000E+00  9.000E+00
      21     1     1     2   511   512  8.173466570E+00  4.027953057E-01  3.060166431E+02  3.061260421E+02  0.000000000E+00  0.00000E+00  9.000E+00
      21     1     1     2   514   516 -1.213202059E+01  5.394799055E-01  7.607847194E+01  7.704161768E+01  2.132480600E-06  0.00000E+00  9.000E+00
      21     1     1     2   512   515  3.958554017E+00 -9.422752112E-01 -6.841223171E+00  7.959922547E+00  3.674277069E-07  0.00000E+00  9.000E+00
</event>
<event>
      5  10001  3.52971E+09  6.17626E+00 -1.00000E+00  2.23530E-01
       1    -1     0     0   512     0  0.000000000E+00  0.000000000E+00  3.070061713E+02  3.070061713E+02  0.000000000E+00  0.00000E+00  9.000E+00
      21    -1     0     0   511   515  0.000000000E+00  0.000000000E+00 -5.200503473E+01  5.200503473E+01  0.000000000E+00  0.00000E+00  9.000E+00
      21     1     1     2   512   515 -1.474987489E+01 -7.922549286E+00  3.442955871E+01  3.828472423E+01  1.966049969E-06  0.00000E+00  9.000E+00
       1     1     1     2   513     0  8.578687943E+00  7.672674994E+00  2.703355831E+02  2.705806723E+02  3.300000131E-01  0.00000E+00  9.000E+00
      21     1     1     2   511   513  6.171186943E+00  2.498742924E-01 -4.976400528E+01  5.014580946E+01  0.000000000E+00  0.00000E+00  9.000E+00
</event>
<event>
      5  10001  3.52971E+09  1.03800E+01 -1.00000E+00  1.93899E-01
      21    -1     0     0   514   513  0.000000000E+00  0.000000000E+00  1.508085707E+01  1.508085707E+01  0.000000000E+00  0.00000E+00  9.000E+00
      21    -1     0     0   511   516  0.000000000E+00  0.000000000E+00 -6.855429187E+01  6.855429187E+01  0.000000000E+00  0.00000E+00  9.000E+00
      21     1     1     2   514   516  6.406256742E+00  1.145276292E+01  1.110234101E+01  1.718917914E+01  2.064765462E-07  0.00000E+00  9.000E+00
      21     1     1     2   511   512  7.930425678E-01 -2.537254354E+00 -2.778468910E+01  2.791156614E+01  0.000000000E+00  0.00000E+00  9.000E+00
      21     1     1     2   512   513 -7.199299309E+00 -8.915508562E+00 -3.679108671E+01  3.853440365E+01  0.000000000E+00  0.00000E+00  9.000E+00
</event>
<event>
      5  10001  3.52971E+09  1.06051E+01 -1.00000E+00  1.92849E-01
      21    -1     0     0   511   514  0.000000000E+00  0.000000000E+00  3.352621946E+01  3.352621946E+01  0.000000000E+00  0.00000E+00  9.000E+00
       2    -1     0     0   513     0  0.000000000E+00  0.000000000E+00 -7.033438974E+02  7.033438974E+02  0.000000000E+00  0.00000E+00  9.000E+00
      21     1     1     2   511   512  9.011642818E+00  6.860998934E+00 -2.173201268E+02  2.176150742E+02  2.697398305E-06  0.00000E+00  9.000E+00
       2     1     1     2   512     0 -1.348428278E+00 -1.419194843E+01 -4.849264767E+02  4.851360906E+02  3.300000131E-01  0.00000E+00  9.000E+00
      21     1     1     2   513   514 -7.663214541E+00  7.330949492E+00  3.242892557E+01  3.411895208E+01  1.581489940E-06  0.00000E+00  9.000E+00
</event>
<event>
      5  10001  3.52971E+09  1.87261E+01 -1.00000E+00  1.68759E-01
      -4    -1     0     0     0   514  0.000000000E+00  0.000000000E+00  6.928453573E+01  6.928453573E+01  0.000000000E+00  0.00000E+00  9.000E+00
      21    -1     0     0   511   515  0.000000000E+00  0.000000000E+00 -4.917667931E+00  4.917667931E+00  0.000000000E+00  0.00000E+00  9.000E+00
      -4     1     1     2     0   512 -4.166945424E+00  1.274642134E+01  5.369422671E+01  5.536383904E+01  1.500000000E+00  0.00000E+00  9.000E+00
      21     1     1     2   511   514 -1.186246167E+00 -8.330810373E+00  7.219111920E+00  1.108716187E+01  3.674277069E-07  0.00000E+00  9.000E+00
      21     1     1     2   512   515  5.353191591E+00 -4.415610965E+00  3.453529170E+00  7.751202754E+00  1.931411236E-07  0.00000E+00  9.000E+00
</event>
<event>
      5  10001  3.52971E+09  8.49840E+00 -1.00000E+00  2.04292E-01
       2    -1     0     0   511     0  0.000000000E+00  0.000000000E+00  9.943020850E+02  9.943020850E+02  0.000000000E+00  0.00000E+00  9.000E+00
       1    -1     0     0   513     0  0.000000000E+00  0.000000000E+00 -8.133646911E+00  8.133646911E+00  0.000000000E+00  0.00000E+00  9.000E+00
       1     1     1     2   512     0  2.999808814E+00  1.202820629E+01 -3.158715020E+00  1.279699106E+01  3.300000131E-01  0.00000E+00  9.000E+00
       2     1     1     2   513     0 -1.106378033E+01 -9.346028758E+00  7.868146165E+02  7.869479685E+02  3.300000131E-01  0.00000E+00  9.000E+00
      21     1     1     2   511   512  8.063971513E+00 -2.682177535E+00  2.025125366E+02  2.026907723E+02  2.697398305E-06  0.00000E+00  9.000E+00
</event>
<event>
      5  10001  3.52971E+09  4.81976E+00 -1.00000E+00  2.45738E-01
      21    -1     0     0   514   513  0.000000000E+00  0.000000000E+00  4.386072583E+02  4.386072583E+02  0.000000000E+00  0.00000E+00  9.000E+00
      21    -1     0     0   515   516  0.000000000E+00  0.000000000E+00 -1.006018042E+01  1.006018042E+01  0.000000000E+00  0.00000E+00  9.000E+00
      21     1     1     2   515   512 -1.948203404E-01  1.041209010E+01 -6.777940897E+00  1.242537959E+01  9.310543151E-07  0.00000E+00  9.000E+00
      21     1     1     2   512   513 -4.591761802E+00 -1.097662502E+01  4.201838874E+02  4.203523163E+02  0.000000000E+00  0.00000E+00  9.000E+00
      21     1     1     2   514   516  4.786582143E+00  5.645349264E-01  1.514113134E+01  1.588974281E+01  1.685873940E-07  0.00000E+00  9.000E+00
</event>
<event>
      5  10001  3.52971E+09  1.16614E+01 -1.00000E+00  1.88340E-01
      -1    -1     0     0     0   511  0.000000000E+00  0.000000000E+00  3.688628116E+02  3.688628116E+02  0.000000000E+00  0.00000E+00  9.000E+00
      21    -1     0     0   512   514  0.000000000E+00  0.000000000E+00 -8.965428083E+01  8.965428083E+01  0.000000000E+00  0.00000E+00  9.000E+00
      -1     1     1     2     0   513  1.120269040E+01 -2.322745746E+01  3.597625444E+02  3.606857528E+02  3.300000131E-01  0.00000E+00  9.000E+00
      21     1     1     2   513   514 -2.286340942E+01  2.335513530E+01 -2.522174233E+01  4.128358174E+01  2.861022949E-06  0.00000E+00  9.000E+00
      21     1     1     2   512   511  1.166071902E+01 -1.276778392E-01 -5.533227130E+01  5.654775784E+01  0.000000000E+00  0.00000E+00  9.000E+00
</event>
<event>
      5  10001  3.52971E+09  6.21724E+00 -1.00000E+00  2.23093E-01
      21    -1     0     0   512   511  0.000000000E+00  0.000000000E+00  4.269468952E+01  4.269468952E+01  0.000000000E+00  0.00000E+00  9.000E+00
      -3    -1     0     0     0   513  0.000000000E+00  0.000000000E+00 -1.226576180E+01  1.226576180E+01  0.000000000E+00  0.00000E+00  9.000E+00
      -3     1     1     2     0   511 -1.699385105E+00 -1.588979503E+01  3.060887036E+00  1.627859101E+01  5.000000000E-01  0.00000E+00  9.000E+00
      21     1     1     2   512   515  1.296345542E+00  9.686600057E+00  3.027947786E+01  3.181756609E+01  4.768371582E-07  0.00000E+00  9.000E+00
      21     1     1     2   515   513  4.030395628E-01  6.203194973E+00 -2.911437166E+00  6.864294220E+00  1.264405455E-07  0.00000E+00  9.000E+00
</event>
<event>
      5  10001  3.52971E+09  3.07248E+01 -1.00000E+00  1.52320E-01
      21    -1     0     0   514   513  0.000000000E+00  0.000000000E+00  1.206143459E+01  1.206143459E+01  0.000000000E+00  0.00000E+00  9.000E+00
      21    -1     0     0   511   516  0.000000000E+00  0.000000000E+00 -5.604444803E+02  5.604444803E+02  0.000000000E+00  0.00000E+00  9.000E+00
      21     1     1     2   514   516  9.522835559E+00  1.347502077E+01  6.052191445E+00  1.757525542E+01  2.665600750E-07  0.00000E+00  9.000E+00
      21     1     1     2   511   512 -4.672902538E+00  3.448024632E+00 -1.253798435E+02  1.255142623E+02  1.348699152E-06  0.00000E+00  9.000E+00
      21     1     1     2   512   513 -4.849933022E+00 -1.692304540E+01 -4.290553937E+02  4.294163972E+02  7.629394531E-06  0.00000E+00  9.000E+00
</event>
<event>
      5  10001  3.52971E+09  4.97165E+00 -1.00000E+00  2.43028E-01
      21    -1     0     0   514   513  0.000000000E+00  0.000000000E+00  4.441890490E+00  4.441890490E+00  0.000000000E+00  0.00000E+00  9.000E+00
       1    -1     0     0   513     0  0.000000000E+00  0.000000000E+00 -4.556144487E+02  4.556144487E+02  0.000000000E+00  0.00000E+00  9.000E+00
      21     1     1     2   511   512  7.024322092E+00 -6.557200881E+00 -3.417848151E+01  3.550361366E+01  2.023048729E-06  0.00000E+00  9.000E+00
       1     1     1     2   512     0 -8.743145519E+00  1.122220509E+01 -4.189636373E+02  4.192052227E+02  3.300000131E-01  0.00000E+00  9.000E+00
      21     1     1     2   514   511  1.718823427E+00 -4.665004206E+00  1.969560540E+00  5.347502869E+00  6.443783137E-07  0.00000E+00  9.000E+00
</event>
<event>
      5  10001  3.52971E+09  3.91858E+00 -1.00000E+00  2.65584E-01
      21    -1     0     0   515   512  0.000000000E+00  0.000000000E+00  7.612136696E+01  7.612136696E+01  0.000000000E+00  0.00000E+00  9.000E+00
      21    -1     0     0   513   515  0.000000000E+00  0.000000000E+00 -4.956794583E+00  4.956794583E+00  0.000000000E+00  0.00000E+00  9.000E+00
      21     1     1     2   513   511  4.564210796E+00 -9.963908267E+00  2.802700262E+00  1.131223306E+01  2.210199382E-07  0.00000E+00  9.000E+00
      21     1     1     2   516   512 -4.027112514E+00  6.500914730E+00  6.227157651E+01  6.273937176E+01  6.743495762E-07  0.00000E+00  9.000E+00
      21     1     1     2   511   516 -5.370982819E-01  3.462993537E+00  6.090295609E+00  7.026556725E+00  8.429369702E-08  0.00000E+00  9.000E+00
</event>
<event>
      5  10001  3.52971E+09  5.36927E+00 -1.00000E+00  2.33227E-01
      21    -1     0     0   512   513  0.000000000E+00  0.000000000E+00  1.673824744E+01  1.673824744E+01  0.000000000E+00  0.00000E+00  9.000E+00
      21    -1     0     0   511   517  0.000000000E+00  0.000000000E+00 -1.014327191E+02  1.014327191E+02  0.000000000E+00  0.00000E+00  9.000E+00
      21     1     1     2   514   517 -1.215762639E+00 -1.035920889E+01  1.495789131E+00  1.053701442E+01  3.637837057E-07  0.00000E+00  9.000E+00
      21     1     1     2   511   513  6.236672392E+00  1.226172328E+01 -9.571582412E+01  9.669935330E+01  1.348699152E-06  0.00000E+00  9.000E+00
      21     1     1     2   512   514 -5.020909752E+00 -1.902514389E+00  9.525563304E+00  1.093459885E+01  2.064765462E-07  0.00000E+00  9.000E+00
</event>
<event>
      5  10001  3.52971E+09  7.55720E+00 -1.00000E+00  2.10952E-01
      21    -1     0     0   514   513  0.000000000E+00  0.000000000E+00  4.861262562E+00  4.861262562E+00  0.000000000E+00  0.00000E+00  9.000E+00
      21    -1     0     0   513   512  0.000000000E+00  0.000000000E+00 -3.875731121E+01  3.875731121E+01  0.000000000E+00  0.00000E+00  9.000E+00
      -5     1     1     2     0   512 -6.722371261E+00  4.144096763E+00 -2.033366311E+01  2.233521146E+01  4.800000191E+00  0.00000E+00  9.000E+00
      21     1     1     2   514   511  9.928965198E+00 -3.760335057E+00 -8.809330191E+00  1.379596927E+01  2.064765462E-07  0.00000E+00  9.000E+00
       5     1     1     2   511     0 -3.206593938E+00 -3.837617053E-01 -4.753055349E+00  7.487393051E+00  4.800000191E+00  0.00000E+00  9.000E+00
</event>
<event>
      5  10001  3.52971E+09  3.02230E+00 -1.00000E+00  2.95885E-01
      21    -1     0     0   515   512  0.000000000E+00  0.000000000E+00  1.744728901E+00  1.744728901E+00  0.000000000E+00  0.00000E+00  9.000E+00
      21    -1     0     0   513   516  0.000000000E+00  0.000000000E+00 -1.370520960E+02  1.370520960E+02  0.000000000E+00  0.00000E+00  9.000E+00
      21     1     1     2   515   516  1.058847912E+01  3.934029293E+00 -1.131979404E+02  1.137601256E+02  1.907348633E-06  0.00000E+00  9.000E+00
      21     1     1     2   514   512 -5.203914533E+00 -3.642033139E+00 -1.226122302E+01  1.380879147E+01  2.384185791E-07  0.00000E+00  9.000E+00
      21     1     1     2   513   514 -5.384564590E+00 -2.919961533E-01 -9.848203699E+00  1.122790781E+01  2.384185791E-07  0.00000E+00  9.000E+00
</event>
<event>
      5  10001  3.52971E+09  6.02096E+00 -1.00000E+00  2.25231E-01
      21    -1     0     0   511   514  0.000000000E+00  0.000000000E+00  3.032356458E+00  3.032356458E+00  0.000000000E+00  0.00000E+00  9.000E+00
      21    -1     0     0   513   517  0.000000000E+00  0.000000000E+00 -7.916897033E+01  7.916897033E+01  0.000000000E+00  0.00000E+00  9.000E+00
      21     1     1     2   511   517  1.785839132E+00 -1.078320697E+01 -9.893652725E+00  1.474283345E+01  2.665600750E-07  0.00000E+00  9.000E+00
      21     1     1     2   512   514  1.644005888E+00  7.478060555E+00 -3.303677926E+01  3.391243030E+01  6.743495762E-07  0.00000E+00  9.000E+00
      21     1     1     2   513   512 -3.429845020E+00  3.305146414E+00 -3.320618189E+01  3.354606304E+01  9.536743164E-07  0.00000E+00  9.000E+00
</event>
<event>
      5  10001  3.52971E+09  6.62932E+00 -1.00000E+00  2.18943E-01
      21    -1     0     0   515   512  0.000000000E+00  0.000000000E+00  8.653317279E+00  8.653317279E+00  0.000000000E+00  0.00000E+00  9.000E+00
       1    -1     0     0   513     0  0.000000000E+00  0.000000000E+00 -4.740737606E+02  4.740737606E+02  0.000000000E+00  0.00000E+00  9.000E+00
      21     1     1     2   515   516  1.778881323E+01 -4.638702363E+00 -3.682075503E+00  1.874878971E+01  1.192092896E-07  0.00000E+00  9.000E+00
      21     1     1     2   513   512 -1.699237657E+01 -1.942546377E+00 -6.586684969E+01  6.805112957E+01  1.348699152E-06  0.00000E+00  9.000E+00
       1     1     1     2   516     0 -7.964366596E-01  6.581248740E+00 -3.958715181E+02  3.959271585E+02  3.300000131E-01  0.00000E+00  9.000E+00
</event>
<event>
      5  10001  3.52971E+09  1.16146E+01 -1.00000E+00  1.88527E-01
       3    -1     0     0   515     0  0.000000000E+00  0.000000000E+00  2.984453867E+01  2.984453867E+01  0.000000000E+00  0.00000E+00  9.000E+00
      21    -1     0     0   514   515  0.000000000E+00  0.000000000E+00 -3.151131522E+02  3.151131522E+02  0.000000000E+00  0.00000E+00  9.000E+00
      21     1     1     2   514   511 -1.909352795E+01  2.857996739E+01 -3.024826819E+02  3.044292204E+02  3.814697266E-06  0.00000E+00  9.000E+00
       3     1     1     2   512     0  4.915698946E+00 -1.333606112E+01  1.304195492E+01  1.929655955E+01  5.000000000E-01  0.00000E+00  9.000E+00
      21     1     1     2   511   512  1.417782901E+01 -1.524390627E+01  4.172113437E+00  2.123191099E+01  9.176018428E-07  0.00000E+00  9.000E+00
</event>
<event>
      5  10001  3.52971E+09  9.11692E+00 -1.00000E+00  2.00511E-01
      21    -1     0     0   514   512  0.000000000E+00  0.000000000E+00  8.209989067E+01  8.209989067E+01  0.000000000E+00  0.00000E+00  9.000E+00
      -2    -1     0     0     0   513  0.000000000E+00  0.000000000E+00 -2.383670387E+00  2.383670387E+00  0.000000000E+00  0.00000E+00  9.000E+00
      -2     1     1     2     0   512  1.038680946E+01 -6.693727939E+00  2.689854647E+01  2.960291382E+01  3.300000131E-01  0.00000E+00  9.000E+00
      21     1     1     2   514   515 -3.975233912E+00  5.334534911E+00  1.384200484E+01  1.535776173E+01  3.371747881E-07  0.00000E+00  9.000E+00
      21     1     1     2   515   513 -6.411575553E+00  1.359193028E+00  3.897566898E+01  3.952288551E+01  6.743495762E-07  0.00000E+00  9.000E+00
</event>
<event>
      5  10001  3.52971E+09  1.03476E+01 -1.00000E+00  1.94053E-01
      -3    -1     0     0     0   515  0.000000000E+00  0.000000000E+00  1.228016804E+02  1.228016804E+02  0.000000000E+00  0.00000E+00  9.000E+00
       2    -1     0     0   512     0  0.000000000E+00  0.000000000E+00 -1.837894565E+02  1.837894565E+02  0.000000000E+00  0.00000E+00  9.000E+00
      21     1     1     2   512   515  2.270331193E+01  1.226386367E+01  8.276025732E+01  8.668969326E+01  2.523185073E-06  0.00000E+00  9.000E+00
       2     1     1     2   511     0 -1.973611628E+01 -2.350952431E+00 -1.805644108E+02  1.816553236E+02  3.300000131E-01  0.00000E+00  9.000E+00
      -3     1     1     2     0   511 -2.967195653E+00 -9.912911243E+00  3.681637736E+01  3.824612009E+01  5.000000000E-01  0.00000E+00  9.000E+00
</event>
<event>
      5  10001  3.52971E+09  7.12357E+00 -1.00000E+00  2.14480E-01
      21    -1     0     0   513   512  0.000000000E+00  0.000000000E+00  4.541762821E+01  4.541762821E+01  0.000000000E+00  0.00000E+00  9.000E+00
      21    -1     0     0   515   513  0.000000000E+00  0.000000000E+00 -2.762009257E+01  2.762009257E+01  0.000000000E+00  0.00000E+00  9.000E+00
      21     1     1     2   511   512 -1.368270244E+01 -1.751635203E+00  3.970869649E+01  4.203647403E+01  6.743495762E-07  0.00000E+00  9.000E+00
      21     1     1     2   514   511  8.793636587E+00 -3.429324463E+00 -1.724963232E+00  9.594988736E+00  2.682209015E-07  0.00000E+00  9.000E+00
      21     1     1     2   515   514  4.889065855E+00  5.180959665E+00 -2.018619762E+01  2.140625802E+01  2.384185791E-07  0.00000E+00  9.000E+00
</event>
<event>
      5  10001  3.52971E+09  1.12727E+01 -1.00000E+00  1.89925E-01
      21    -1     0     0   516   514  0.000000000E+00  0.000000000E+00  1.721120851E+01  1.721120851E+01  0.000000000E+00  0.00000E+00  9.000E+00
      21    -1     0     0   512   517  0.000000000E+00  0.000000000E+00 -8.578198777E+00  8.578198777E+00  0.000000000E+00  0.00000E+00  9.000E+00
      21     1     1     2   516   517  1.556819187E+00 -8.951927458E+00  4.768528541E+00  1.026155717E+01  1.332800375E-07  0.00000E+00  9.000E+00
      21     1     1     2   512   511  4.968928056E+00  6.211234557E+00  1.805847019E+00  8.156639271E+00  1.490116119E-07  0.00000E+00  9.000E+00
      21     1     1     2   511   514 -6.525747243E+00  2.740692901E+00  2.058634178E+00  7.371210846E+00  1.397852826E-07  0.00000E+00  9.000E+00
</event>
<event>
      5  10001  3.52971E+09  3.56334E+00 -1.00000E+00  2.75880E-01
      -1    -1     0     0     0   511  0.000000000E+00  0.000000000E+00  8.170612824E-01  8.170612824E-01  0.000000000E+00  0.00000E+00  9.000E+00
       2    -1     0     0   512     0  0.000000000E+00  0.000000000E+00 -6.420602653E+02  6.420602653E+02  0.000000000E+00  0.00000E+00  9.000E+00
      -1     1     1     2     0   513  4.035190587E+00 -8.764244370E+00 -3.394297565E+01  3.528922269E+01  3.300000131E-01  0.00000E+00  9.000E+00
       2     1     1     2   513     0 -7.152223996E+00  1.048991594E+01 -3.018166355E+02  3.020837351E+02  3.300000131E-01  0.00000E+00  9.000E+00
      21     1     1     2   512   511  3.117033409E+00 -1.725671569E+00 -3.054835929E+02  3.055043688E+02  3.814697266E-06  0.00000E+00  9.000E+00
</event>
<event>
      5  10001  3.52971E+09  7.21593E+00 -1.00000E+00  2.13700E-01
      21    -1     0     0   512   511  0.000000000E+00  0.000000000E+00  2.045695503E+01  2.045695503E+01  0.000000000E+00  0.00000E+00  9.000E+00
       3    -1     0     0   513     0  0.000000000E+00  0.000000000E+00 -2.358318377E+01  2.358318377E+01  0.000000000E+00  0.00000E+00  9.000E+00
      21     1     1     2   513   514  7.008251115E+00 -1.085086608E+01  9.159266386E+00  1.583505728E+01  3.371747881E-07  0.00000E+00  9.000E+00
       3     1     1     2   512     0 -2.994779149E+00  1.343217985E+01 -1.674046830E+01  2.167684102E+01  5.000000000E-01  0.00000E+00  9.000E+00
      21     1     1     2   514   511 -4.013471966E+00 -2.581313775E+00  4.454973176E+00  6.528240500E+00  5.960464478E-08  0.00000E+00  9.000E+00
</event>
<event>
      5  10001  3.52971E+09  2.43578E+01 -1.00000E+00  1.59599E-01
      21    -1     0     0   515   514  0.000000000E+00  0.000000000E+00  2.217883924E+02  2.217883924E+02  0.000000000E+00  0.00000E+00  9.000E+00
      21    -1     0     0   511   515  0.000000000E+00  0.000000000E+00 -7.230607708E+01  7.230607708E+01  0.000000000E+00  0.00000E+00  9.000E+00
      21     1     1     2   511   513  1.032192330E+01  1.112818611E+00 -6.938424433E+01  7.015663780E+01  1.348699152E-06  0.00000E+00  9.000E+00
      21     1     1     2   513   512  8.494600768E+00  6.027262222E+00  1.787765786E+02  1.790797341E+02  2.697398305E-06  0.00000E+00  9.000E+00
      21     1     1     2   512   514 -1.881652407E+01 -7.140080833E+00  4.008998108E+01  4.485809754E+01  6.743495762E-07  0.00000E+00  9.000E+00
</event>
<event>
      5  10001  3.52971E+09  1.48238E+01 -1.00000E+00  1.77865E-01
      21    -1     0     0   511   512  0.000000000E+00  0.000000000E+00  6.360626197E+01  6.360626197E+01  0.000000000E+00  0.00000E+00  9.000E+00
      -2    -1     0     0     0   516  0.000000000E+00  0.000000000E+00 -1.556414748E+01  1.556414748E+01  0.000000000E+00  0.00000E+00  9.000E+00
      -2     1     1     2     0   513 -1.895840016E+01 -1.109555330E+01  1.232611739E+00  2.200364677E+01  3.300000131E-01  0.00000E+00  9.000E+00
      21     1     1     2   511   516  2.400682420E+01  4.428597123E+00  3.358004517E+01  4.151577428E+01  6.743495762E-07  0.00000E+00  9.000E+00
      21     1     1     2   513   512 -5.048424035E+00  6.666956177E+00  1.322945758E+01  1.565098840E+01  1.685873940E-07  0.00000E+00  9.000E+00
</event>
<event>
      5  10001  3.52971E+09  1.44776E+01 -1.00000E+00  1.78842E-01
      21    -1     0     0   514   515  0.000000000E+00  0.000000000E+00  4.152010149E+00  4.152010149E+00  0.000000000E+00  0.00000E+00  9.000E+00
      21    -1     0     0   513   512  0.000000000E+00  0.000000000E+00 -5.140935811E+01  5.140935811E+01  0.000000000E+00  0.00000E+00  9.000E+00
      21     1     1     2   514   512  4.907486007E+00  8.672803552E+00 -3.617747886E+01  3.752480402E+01  4.768371582E-07  0.00000E+00  9.000E+00
      21     1     1     2   511   515  2.762412051E+00 -4.386135001E+00 -5.829924508E+00  7.801097382E+00  1.685873940E-07  0.00000E+00  9.000E+00
      21     1     1     2   513   511 -7.669898059E+00 -4.286668550E+00 -5.249944595E+00  1.023546685E+01  1.576990671E-07  0.00000E+00  9.000E+00
</event>
<event>
      5  10001  3.52971E+09  1.42098E+01 -1.00000E+00  1.79623E-01
      21    -1     0     0   513   511  0.000000000E+00  0.000000000E+00  7.466661701E+00  7.466661701E+00  0.000000000E+00  0.00000E+00  9.000E+00
       2    -1     0     0   515     0  0.000000000E+00  0.000000000E+00 -5.970432649E+01  5.970432649E+01  0.000000000E+00  0.00000E+00  9.000E+00
      21     1     1     2   515   511  5.729664477E+00  1.716712830E+01 -1.518751962E+01  2.362625873E+01  2.384185791E-07  0.00000E+00  9.000E+00
      21     1     1     2   513   512 -3.183224118E+00 -1.023319816E+01 -7.492498498E+00  1.307626835E+01  3.862822472E-07  0.00000E+00  9.000E+00
       2     1     1     2   512     0 -2.546440359E+00 -6.933930144E+00 -2.955764667E+01  3.046846111E+01  3.300000131E-01  0.00000E+00  9.000E+00
</event>
<event>
      5  10001  3.52971E+09  6.80432E+00 -1.00000E+00  2.17303E-01
      21    -1     0     0   514   515  0.000000000E+00  0.000000000E+00  1.089889753E+02  1.089889753E+02  0.000000000E+00  0.00000E+00  9.000E+00
      21    -1     0     0   512   514  0.000000000E+00  0.000000000E+00 -1.724669667E+00  1.724669667E+00  0.000000000E+00  0.00000E+00  9.000E+00
      21     1     1     2   511   515  7.583725352E-01 -5.902332216E+00  6.864230700E+01  6.889977478E+01  0.000000000E+00  0.00000E+00  9.000E+00
       1     1     1     2   512     0  4.282868432E+00  8.072566368E+00  1.505979877E+01  1.761861881E+01  3.300000131E-01  0.00000E+00  9.000E+00
      -1     1     1     2     0   511 -5.041240967E+00 -2.170234153E+00  2.356219985E+01  2.419525137E+01  3.300000131E-01  0.00000E+00  9.000E+00
</event>
<event>
      5  10001  3.52971E+09  1.42676E+01 -1.00000E+00  1.79453E-01
       2    -1     0     0   512     0  0.000000000E+00  0.000000000E+00  6.133296573E+01  6.133296573E+01  0.000000000E+00  0.00000E+00  9.000E+00
      -1    -1     0     0     0   514  0.000000000E+00  0.000000000E+00 -3.193200048E+01  3.193200048E+01  0.000000000E+00  0.00000E+00  9.000E+00
      21     1     1     2   512   514  1.566969844E+01 -9.845219127E+00  2.612516310E+01  3.201549525E+01  4.768371582E-07  0.00000E+00  9.000E+00
       2     1     1     2   513     0 -1.435564682E+00  1.081361440E+01  2.946680863E+01  3.142287086E+01  3.300000131E-01  0.00000E+00  9.000E+00
      -1     1     1     2     0   513 -1.423413376E+01 -9.683952703E-01 -2.619100648E+01  2.982660010E+01  3.300000131E-01  0.00000E+00  9.000E+00
</event>
<event>
      5  10001  3.52971E+09  2.68656E+00 -1.00000E+00  3.12199E-01
      21    -1     0     0   512   516  0.000000000E+00  0.000000000E+00  2.012205603E+00  2.012205603E+00  0.000000000E+00  0.00000E+00  9.000E+00
      21    -1     0     0   515   511  0.000000000E+00  0.000000000E+00 -2.274540512E+02  2.274540512E+02  0.000000000E+00  0.00000E+00  9.000E+00
      21     1     1     2   513   516  6.103983502E+00 -9.619644669E+00 -4.691634896E+01  4.827980922E+01  1.168007728E-06  0.00000E+00  9.000E+00
      21     1     1     2   515   513 -7.946699045E+00  7.664643894E+00 -1.781289431E+02  1.784707740E+02  1.907348633E-06  0.00000E+00  9.000E+00
      21     1     1     2   512   511  1.842715543E+00  1.955000775E+00 -3.965535613E-01  2.715673642E+00  1.472314659E-07  0.00000E+00  9.000E+00
</event>
<event>
      5  10001  3.52971E+09  3.08240E+01 -1.00000E+00  1.52224E-01
      21    -1     0     0   514   511  0.000000000E+00  0.000000000E+00  7.826735748E+02  7.826735748E+02  0.000000000E+00  0.00000E+00  9.000E+00
      21    -1     0     0   516   517  0.000000000E+00  0.000000000E+00 -2.178800168E+00  2.178800168E+00  0.000000000E+00  0.00000E+00  9.000E+00
      21     1     1     2   514   517 -4.052811149E+00 -1.032135945E+01  1.274957577E+01  1.689696485E+01  6.743495762E-07  0.00000E+00  9.000E+00
      -1     1     1     2     0   511  5.590415713E+00  9.305165336E-01  1.143422844E+02  1.144831232E+02  3.300000131E-01  0.00000E+00  9.000E+00
       1     1     1     2   516     0 -1.537604564E+00  9.390842914E+00  6.534029145E+02  6.534722869E+02  3.300000131E-01  0.00000E+00  9.000E+00
</event>
<event>
      5  10001  3.52971E+09  1.51850E+01 -1.00000E+00  1.76880E-01
      21    -1     0     0   512   516  0.000000000E+00  0.000000000E+00  4.314116122E+01  4.314116122E+01  0.000000000E+00  0.00000E+00  9.000E+00
      21    -1     0     0   515   513  0.000000000E+00  0.000000000E+00 -5.505852437E+00  5.505852437E+00  0.000000000E+00  0.00000E+00  9.000E+00
      21     1     1     2   512   513 -9.276945536E+00  8.170499999E+00  1.304758797E+01  1.797382376E+01  4.460403188E-07  0.00000E+00  9.000E+00
      21     1     1     2   515   511  2.912791072E+00 -4.782772178E+00  6.076997525E-01  5.632811068E+00  1.401818374E-07  0.00000E+00  9.000E+00
      21     1     1     2   511   516  6.364154463E+00 -3.387727821E+00  2.398002106E+01  2.504037882E+01  4.768371582E-07  0.00000E+00  9.000E+00
</event>
<event>
      5  10001  3.52971E+09  5.08612E+00 -1.00000E+00  2.37221E-01
      21    -1     0     0   511   512  0.000000000E+00  0.000000000E+00  7.803771053E-01  7.803771053E-01  0.000000000E+00  0.00000E+00  9.000E+00
       2    -1     0     0   515     0  0.000000000E+00  0.000000000E+00 -1.243583355E+03  1.243583355E+03  0.000000000E+00  0.00000E+00  9.000E+00
      21     1     1     2   515   514  1.785808474E+01  1.685767254E+00 -1.899663564E+02  1.908113455E+02  8.529922400E-06  0.00000E+00  9.000E+00
       2     1     1     2   511     0 -1.324394576E+01  4.535537305E-01 -1.032645008E+03  1.032730086E+03  3.300000131E-01  0.00000E+00  9.000E+00
      21     1     1     2   514   512 -4.614138977E+00 -2.139320984E+00 -2.019161310E+01  2.082230085E+01  1.261592536E-06  0.00000E+00  9.000E+00
</event>
<event>
      5  10001  3.52971E+09  5.95918E+00 -1.00000E+00  2.25927E-01
      21    -1     0     0   514   512  0.000000000E+00  0.000000000E+00  2.610389693E+02  2.610389693E+02  0.000000000E+00  0.00000E+00  9.000E+00
       2    -1     0     0   512     0  0.000000000E+00  0.000000000E+00 -3.157989854E+01  3.157989854E+01  0.000000000E+00  0.00000E+00  9.000E+00
      21     1     1     2   514   513 -1.246194390E+01  6.368870308E+00  2.550352798E+02  2.554189823E+02  3.814697266E-06  0.00000E+00  9.000E+00
       2     1     1     2   511     0  7.161069830E+00 -6.322231266E+00 -2.923559105E+01  3.075841695E+01  3.300000131E-01  0.00000E+00  9.000E+00
      21     1     1     2   513   511  5.300874069E+00 -4.663904178E-02  3.659381943E+00  6.441468567E+00  1.332800375E-07  0.00000E+00  9.000E+00
</event>
<event>
      5  10001  3.52971E+09  1.92416E+01 -1.00000E+00  1.67763E-01
      21    -1     0     0   515   511  0.000000000E+00  0.000000000E+00  6.235767675E+01  6.235767675E+01  0.000000000E+00  0.00000E+00  9.000E+00
      21    -1     0     0   512   515  0.000000000E+00  0.000000000E+00 -1.310220483E+01  1.310220483E+01  0.000000000E+00  0.00000E+00  9.000E+00
      21     1     1     2   512   516  4.337496879E+00 -2.077044157E+01  3.767526477E+00  2.155039159E+01  4.064494877E-07  0.00000E+00  9.000E+00
      21     1     1     2   516   514 -1.183183135E+01  1.011171479E+01  2.061702299E+01  2.583216302E+01  2.384185791E-07  0.00000E+00  9.000E+00
      21     1     1     2   514   511  7.494334475E+00  1.065872678E+01  2.487092245E+01  2.807732697E+01  3.371747881E-07  0.00000E+00  9.000E+00
</event>
<event>
      5  10001  3.52971E+09  1.34362E+01 -1.00000E+00  1.82006E-01
       3    -1     0     0   515     0  0.000000000E+00  0.000000000E+00  8.112016200E+00  8.112016200E+00  0.000000000E+00  0.00000E+00  9.000E+00
      21    -1     0     0   512   514  0.000000000E+00  0.000000000E+00 -4.007725782E+02  4.007725782E+02  0.000000000E+00  0.00000E+00  9.000E+00
      21     1     1     2   515   514 -9.040034611E+00 -1.331751356E+01 -1.054016751E+02  1.066235973E+02  1.348699152E-06  0.00000E+00  9.000E+00
       3     1     1     2   513     0  4.997286787E+00  2.613080972E+01 -1.680036395E+01  3.146894216E+01  5.000000000E-01  0.00000E+00  9.000E+00
      21     1     1     2   512   513  4.042747824E+00 -1.281329615E+01 -2.704585229E+02  2.707920549E+02  5.394796609E-06  0.00000E+00  9.000E+00
</event>
<event>
      5  10001  3.52971E+09  6.32602E+00 -1.00000E+00  2.21955E-01
      21    -1     0     0   511   513  0.000000000E+00  0.000000000E+00  1.206933444E+02  1.206933444E+02  0.000000000E+00  0.00000E+00  9.000E+00
      21    -1     0     0   512   514  0.000000000E+00  0.000000000E+00 -5.640497817E+01  5.640497817E+01  0.000000000E+00  0.00000E+00  9.000E+00
      21     1     1     2   512   516 -7.374826102E+00  9.572409929E+00 -2.079643387E+00  1.226148476E+01  3.068336886E-07  0.00000E+00  9.000E+00
      21     1     1     2   516   513  1.233007187E+01 -1.350484723E+01  1.146716991E+02  1.161206707E+02  1.348699152E-06  0.00000E+00  9.000E+00
      21     1     1     2   511   514 -4.955245766E+00  3.932437301E+00 -4.830368951E+01  4.871616717E+01  9.536743164E-07  0.00000E+00  9.000E+00
</event>
<event>
      5  10001  3.52971E+09  1.14562E+01 -1.00000E+00  1.89167E-01
      21    -1     0     0   515   514  0.000000000E+00  0.000000000E+00  2.372050263E+02  2.372050263E+02  0.000000000E+00  0.00000E+00  9.000E+00
      21    -1     0     0   512   517  0.000000000E+00  0.000000000E+00 -7.870716395E+00  7.870716395E+00  0.000000000E+00  0.00000E+00  9.000E+00
      21     1     1     2   515   517 -4.953570447E+00  1.465536881E+01  1.131929434E+00  1.551125267E+01  8.041106202E-07  0.00000E+00  9.000E+00
      21     1     1     2   512   513 -6.125442100E-01 -5.598820817E+00  1.845671326E+02  1.846530488E+02  2.697398305E-06  0.00000E+00  9.000E+00
      21     1     1     2   513   514  5.566114657E+00 -9.056547992E+00  4.363524788E+01  4.491144121E+01  8.259061849E-07  0.00000E+00  9.000E+00
</event>
<event>
      5  10001  3.52971E+09  5.25646E+00 -1.00000E+00  2.34776E-01
      21    -1     0     0   511   512  0.000000000E+00  0.000000000E+00  2.701052564E+02  2.701052564E+02  0.000000000E+00  0.00000E+00  9.000E+00
       2    -1     0     0   516     0  0.000000000E+00  0.000000000E+00 -5.366454402E+02  5.366454402E+02  0.000000000E+00  0.00000E+00  9.000E+00
      21     1     1     2   511   514 -3.890271559E-01  9.228210310E+00  3.553043689E+00  9.896227923E+00  8.780312456E-07  0.00000E+00  9.000E+00
      21     1     1     2   516   512  5.060361374E+00 -1.163838594E+01  2.632147330E+02  2.635205020E+02  5.394796609E-06  0.00000E+00  9.000E+00
       2     1     1     2   514     0 -4.671334218E+00  2.410175631E+00 -5.333079605E+02  5.333339666E+02  3.300000131E-01  0.00000E+00  9.000E+00
</event>
<event>
      5  10001  3.52971E+09  3.84614E+00 -1.00000E+00  2.67541E-01
      -1    -1     0     0     0   513  0.000000000E+00  0.000000000E+00  1.989861753E+02  1.989861753E+02  0.000000000E+00  0.00000E+00  9.000E+00
      21    -1     0     0   513   511  0.000000000E+00  0.000000000E+00 -9.912153761E+00  9.912153761E+00  0.000000000E+00  0.00000E+00  9.000E+00
      -1     1     1     2     0   512 -7.276849024E+00  7.084743747E+00  1.958607945E+02  1.961242103E+02  3.300000131E-01  0.00000E+00  9.000E+00
      21     1     1     2   512   515  1.780867320E+00 -2.919304603E+00 -4.182766317E+00  5.402718005E+00  1.576990671E-07  0.00000E+00  9.000E+00
      21     1     1     2   515   511  5.495981705E+00 -4.165439144E+00 -2.604006695E+00  7.371400751E+00  2.995096332E-07  0.00000E+00  9.000E+00
</event>
<event>
      5  10001  3.52971E+09  4.34606E+01 -1.00000E+00  1.42638E-01
      21    -1     0     0   514   511  0.000000000E+00  0.000000000E+00  5.363325868E+01  5.363325868E+01  0.000000000E+00  0.00000E+00  9.000E+00
      21    -1     0     0   513   516  0.000000000E+00  0.000000000E+00 -3.084197096E+02  3.084197096E+02  0.000000000E+00  0.00000E+00  9.000E+00
      21     1     1     2   514   516  8.339541299E+00  5.229845982E+00  4.958522612E+01  5.055288209E+01  2.611744678E-06  0.00000E+00  9.000E+00
      21     1     1     2   513   512  1.573032855E+01 -2.338006807E+01 -2.220755797E+02  2.238562796E+02  3.814697266E-06  0.00000E+00  9.000E+00
      21     1     1     2   512   511 -2.406986985E+01  1.815022209E+01 -8.229609737E+01  8.764380662E+01  1.348699152E-06  0.00000E+00  9.000E+00
</event>
<event>
      5  10001  3.52971E+09  1.11251E+01 -1.00000E+00  1.90548E-01
      21    -1     0     0   514   513  0.000000000E+00  0.000000000E+00  8.435040617E+01  8.435040617E+01  0.000000000E+00  0.00000E+00  9.000E+00
      21    -1     0     0   517   511  0.000000000E+00  0.000000000E+00 -5.677411246E+01  5.677411246E+01  0.000000000E+00  0.00000E+00  9.000E+00
      21     1     1     2   515   511  1.154094794E+01 -1.504415623E+01 -5.080529901E+01  5.422820782E+01  1.168007728E-06  0.00000E+00  9.000E+00
      21     1     1     2   517   513 -1.745912048E+01  5.623847872E+00  1.872814563E+01  2.621434706E+01  5.840038640E-07  0.00000E+00  9.000E+00
      21     1     1     2   514   515  5.918172539E+00  9.420308357E+00  5.965344708E+01  6.068196375E+01  0.000000000E+00  0.00000E+00  9.000E+00
</event>
<event>
      5  10001  3.52971E+09  1.14850E+01 -1.00000E+00  1.89049E-01
      21    -1     0     0   516   513  0.000000000E+00  0.000000000E+00  1.446183016E+00  1.446183016E+00  0.000000000E+00  0.00000E+00  9.000E+00
       1    -1     0     0   513     0  0.000000000E+00  0.000000000E+00 -2.005940437E+02  2.005940437E+02  0.000000000E+00  0.00000E+00  9.000E+00
      21     1     1     2   511   512 -8.704542996E-01  5.894214941E+00 -2.497776628E+01  2.567855659E+01  3.371747881E-07  0.00000E+00  9.000E+00
       1     1     1     2   512     0  9.094373102E+00 -8.589279086E+00 -1.527160090E+02  1.532278423E+02  3.300000131E-01  0.00000E+00  9.000E+00
      21     1     1     2   516   511 -8.223918803E+00  2.695064145E+00 -2.145408541E+01  2.313382787E+01  2.384185791E-07  0.00000E+00  9.000E+00
</event>
<event>
      5  10001  3.52971E+09  5.67803E+00 -1.00000E+00  2.29251E-01
      21    -1     0     0   514   512  0.000000000E+00  0.000000000E+00  2.657299159E+01  2.657299159E+01  0.000000000E+00  0.00000E+00  9.000E+00
      21    -1     0     0   513   511  0.000000000E+00  0.000000000E+00 -6.776085862E+01  6.776085862E+01  0.000000000E+00  0.00000E+00  9.000E+00
      21     1     1     2   514   511  9.395136705E+00  1.001822218E+01  2.370594109E+01  2.739717161E+01  7.539457465E-07  0.00000E+00  9.000E+00
      21     1     1     2   513   515 -3.911423038E+00 -1.006961758E+01 -4.677091974E+01  4.800224330E+01  9.536743164E-07  0.00000E+00  9.000E+00
      21     1     1     2   515   512 -5.483713667E+00  5.139540013E-02 -1.812288838E+01  1.893443530E+01  0.000000000E+00  0.00000E+00  9.000E+00
</event>
<event>
      5  10001  3.52971E+09  7.93590E+00 -1.00000E+00  2.08123E-01
      21    -1     0     0   516   511  0.000000000E+00  0.000000000E+00  5.837114136E+00  5.837114136E+00  0.000000000E+00  0.00000E+00  9.000E+00
      21    -1     0     0   517   513  0.000000000E+00  0.000000000E+00 -8.131884294E+02  8.131884294E+02  0.000000000E+00  0.00000E+00  9.000E+00
      21     1     1     2   516   512  9.791674704E+00  1.770986119E+00 -7.183537594E+02  7.184226729E+02  0.000000000E+00  0.00000E+00  9.000E+00
      21     1     1     2   517   511 -1.452531602E+01  4.598558708E+00 -4.716757934E+00  1.594927437E+01  7.794318694E-07  0.00000E+00  9.000E+00
      21     1     1     2   512   513  4.733641313E+00 -6.369544827E+00 -8.428079794E+01  8.465359628E+01  1.348699152E-06  0.00000E+00  9.000E+00
</event>
<event>
      5  10001  3.52971E+09  5.50757E+00 -1.00000E+00  2.31401E-01
      -1    -1     0     0     0   513  0.000000000E+00  0.000000000E+00  6.761063303E+01  6.761063303E+01  0.000000000E+00  0.00000E+00  9.000E+00
      21    -1     0     0   512   515  0.000000000E+00  0.000000000E+00 -2.178647936E+02  2.178647936E+02  0.000000000E+00  0.00000E+00  9.000E+00
      21     1     1     2   514   515  1.003912998E+01  7.858569697E+00  1.019830697E+01  1.632625840E+01  8.259061849E-07  0.00000E+00  9.000E+00
      21     1     1     2   512   513 -7.819061250E+00 -2.818286244E+00 -2.145801250E+02  2.147410312E+02  0.000000000E+00  0.00000E+00  9.000E+00
      -1     1     1     2     0   514 -2.220068726E+00 -5.040283453E+00  5.412765748E+01  5.440813696E+01  3.300000131E-01  0.00000E+00  9.000E+00
</event>
<event>
      5  10001  3.52971E+09  7.47533E+00 -1.00000E+00  2.11593E-01
      -4    -1     0     0     0   511  0.000000000E+00  0.000000000E+00  1.612943504E+01  1.612943504E+01  0.000000000E+00  0.00000E+00  9.000E+00
      21    -1     0     0   513   514  0.000000000E+00  0.000000000E+00 -1.261199847E+01  1.261199847E+01  0.000000000E+00  0.00000E+00  9.000E+00
      -4     1     1     2     0   512 -3.829154526E+00  4.605288492E+00  7.020429144E+00  9.349199530E+00  1.500000000E+00  0.00000E+00  9.000E+00
      21     1     1     2   513   511  7.117428862E+00 -1.028198104E+01 -2.033019394E+00  1.266925789E+01  2.327635788E-07  0.00000E+00  9.000E+00
      21     1     1     2   512   514 -3.288274335E+00  5.676692543E+00 -1.469973178E+00  6.722976088E+00  1.632340424E-07  0.00000E+00  9.000E+00
</event>
<event>
      5  10001  3.52971E+09  1.37055E+01 -1.00000E+00  1.81154E-01
      21    -1     0     0   515   511  0.000000000E+00  0.000000000E+00  1.440861726E+00  1.440861726E+00  0.000000000E+00  0.00000E+00  9.000E+00
      21    -1     0     0   516   515  0.000000000E+00  0.000000000E+00 -2.599342712E+02  2.599342712E+02  0.000000000E+00  0.00000E+00  9.000E+00
      21     1     1     2   513   511 -4.588806890E+00 -1.088085268E+01 -4.512992545E+01  4.664933306E+01  1.066240300E-06  0.00000E+00  9.000E+00
      21     1     1     2   517   513  8.894310618E-01  1.161679201E+01 -2.070059561E+02  2.073335641E+02  0.000000000E+00  0.00000E+00  9.000E+00
      21     1     1     2   516   517  3.699375828E+00 -7.359393293E-01 -6.357527911E+00  7.392235748E+00  1.685873940E-07  0.00000E+00  9.000E+00
</event>
<event>
      5  10001  3.52971E+09  1.57682E+01 -1.00000E+00  1.75361E-01
       1    -1     0     0   513     0  0.000000000E+00  0.000000000E+00  5.743798797E+02  5.743798797E+02  0.000000000E+00  0.00000E+00  9.000E+00
      21    -1     0     0   514   513  0.000000000E+00  0.000000000E+00 -5.423542362E+01  5.423542362E+01  0.000000000E+00  0.00000E+00  9.000E+00
      21     1     1     2   514   512 -1.482959960E+01 -1.405459466E+01 -5.192102055E+01  5.579642489E+01  2.697398305E-06  0.00000E+00  9.000E+00
       1     1     1     2   511     0  1.001504196E+01  1.910726108E+01  3.661098826E+02  3.667450661E+02  3.300000131E-01  0.00000E+00  9.000E+00
      21     1     1     2   512   511  4.814557638E+00 -5.052666426E+00  2.059555941E+02  2.060738123E+02  2.697398305E-06  0.00000E+00  9.000E+00
</event>
<event>
      5  10001  3.52971E+09  6.81002E+00 -1.00000E+00  2.17251E-01
      21    -1     0     0   515   511  0.000000000E+00  0.000000000E+00  1.371311866E+02  1.371311866E+02  0.000000000E+00  0.00000E+00  9.000E+00
       2    -1     0     0   512     0  0.000000000E+00  0.000000000E+00 -8.856101343E+01  8.856101343E+01  0.000000000E+00  0.00000E+00  9.000E+00
      21     1     1     2   515   516 -5.826761559E+00 -8.223839981E+00  7.537965731E+01  7.605047948E+01  1.907348633E-06  0.00000E+00  9.000E+00
      21     1     1     2   512   511  3.535583956E+00  1.463684766E+01  6.035803898E+01  6.220796197E+01  1.784161275E-06  0.00000E+00  9.000E+00
       2     1     1     2   516     0  2.291177602E+00 -6.413007683E+00 -8.716752309E+01  8.743375860E+01  3.300000131E-01  0.00000E+00  9.000E+00
</event>
<event>
      5  10001  3.52971E+09  4.83330E+00 -1.00000E+00  2.45490E-01
      21    -1     0     0   513   512  0.000000000E+00  0.000000000E+00  1.291855608E+00  1.291855608E+00  0.000000000E+00  0.00000E+00  9.000E+00
      21    -1     0     0   514   511  0.000000000E+00  0.000000000E+00 -5.315629661E+02  5.315629661E+02  0.000000000E+00  0.00000E+00  9.000E+00
      21     1     1     2   514   517 -1.546152722E+01 -2.405771203E+00 -1.282828185E+02  1.292336183E+02  3.303624740E-06  0.00000E+00  9.000E+00
      21     1     1     2   517   512  1.960723830E+01 -7.895923539E-02 -1.199869328E+02  1.215784276E+02  1.348699152E-06  0.00000E+00  9.000E+00
      21     1     1     2   513   511 -4.145711084E+00  2.484730439E+00 -2.820013592E+02  2.820427759E+02  5.394796609E-06  0.00000E+00  9.000E+00
</event>
<event>
      5  10001  3.52971E+09  1.42728E+01 -1.00000E+00  1.79437E-01
      21    -1     0     0   515   512  0.000000000E+00  0.000000000E+00  1.143133933E+01  1.143133933E+01  0.000000000E+00  0.00000E+00  9.000E+00
      21    -1     0     0   516   515  0.000000000E+00  0.000000000E+00 -2.235623440E+02  2.235623440E+02  0.000000000E+00  0.00000E+00  9.000E+00
      21     1     1     2   511   512  1.497687888E+01 -4.370831177E+00  5.521182592E+00  1.654975901E+01  8.678567278E-07  0.00000E+00  9.000E+00
      21     1     1     2   516   514 -3.230028946E+00  5.871428142E+00 -7.207114546E+01  7.238201962E+01  9.536743164E-07  0.00000E+00  9.000E+00
      21     1     1     2   514   511 -1.174684993E+01 -1.500596965E+00 -1.455810418E+02  1.460619047E+02  1.907348633E-06  0.00000E+00  9.000E+00
</event>
<event>
      5  10001  3.52971E+09  5.39480E+00 -1.00000E+00  2.32884E-01
      21    -1     0     0   511   512  0.000000000E+00  0.000000000E+00  5.458134657E+01  5.458134657E+01  0.000000000E+00  0.00000E+00  9.000E+00
      21    -1     0     0   513   514  0.000000000E+00  0.000000000E+00 -1.342364378E+01  1.342364378E+01  0.000000000E+00  0.00000E+00  9.000E+00
      -1     1     1     2     0   514 -9.811529028E+00  1.931148106E+00 -8.982709161E+00  1.344594358E+01  3.300000131E-01  0.00000E+00  9.000E+00
       1     1     1     2   511     0  1.452078315E+01 -4.561978006E+00  2.914424867E+01  3.288101150E+01  3.300000131E-01  0.00000E+00  9.000E+00
      21     1     1     2   513   512 -4.709254126E+00  2.630829900E+00  2.099616328E+01  2.167803526E+01  2.384185791E-07  0.00000E+00  9.000E+00
</event>
<event>
      5  10001  3.52971E+09  9.67483E+00 -1.00000E+00  1.97427E-01
      21    -1     0     0   515   514  0.000000000E+00  0.000000000E+00  8.364530161E+01  8.364530161E+01  0.000000000E+00  0.00000E+00  9.000E+00
      21    -1     0     0   513   512  0.000000000E+00  0.000000000E+00 -4.474585203E+01  4.474585203E+01  0.000000000E+00  0.00000E+00  9.000E+00
      21     1     1     2   515   512 -6.983361025E+00 -2.152480113E+01  7.724108605E+01  8.048769949E+01  9.536743164E-07  0.00000E+00  9.000E+00
      21     1     1     2   513   511  1.235759258E+01  1.912153895E+01 -2.913599088E+01  3.697633447E+01  4.768371582E-07  0.00000E+00  9.000E+00
      21     1     1     2   511   514 -5.374231555E+00  2.403262180E+00 -9.205645589E+00  1.092711969E+01  1.685873940E-07  0.00000E+00  9.000E+00
</event>
<event>
      5  10001  3.52971E+09  9.15548E+00 -1.00000E+00  2.00289E-01
      21    -1     0     0   511   513  0.000000000E+00  0.000000000E+00  3.949374390E+01  3.949374390E+01  0.000000000E+00  0.00000E+00  9.000E+00
       5    -1     0     0   514     0  0.000000000E+00  0.000000000E+00 -1.052404140E+01  1.052404140E+01  0.000000000E+00  0.00000E+00  9.000E+00
      21     1     1     2   512   513  9.092103002E+00  3.352935386E+00  2.832495363E+01  2.993679192E+01  3.371747881E-07  0.00000E+00  9.000E+00
       5     1     1     2   511     0 -1.217951660E+01  1.847538176E+00 -2.190993882E+00  1.340128643E+01  4.800000191E+00  0.00000E+00  9.000E+00
      21     1     1     2   514   512  3.087413596E+00 -5.200473562E+00  2.835742749E+00  6.679706949E+00  1.632340424E-07  0.00000E+00  9.000E+00
</event>
<event>
      5  10001  3.52971E+09  8.73843E+00 -1.00000E+00  2.02775E-01
      21    -1     0     0   515   513  0.000000000E+00  0.000000000E+00  1.184288958E+00  1.184288958E+00  0.000000000E+00  0.00000E+00  9.000E+00
      21    -1     0     0   514   515  0.000000000E+00  0.000000000E+00 -2.639003358E+02  2.639003358E+02  0.000000000E+00  0.00000E+00  9.000E+00
      21     1     1     2   514   512 -9.611653509E+00  6.724714298E-01 -2.312867753E+02  2.314873831E+02  3.814697266E-06  0.00000E+00  9.000E+00
      21     1     1     2   511   513  2.532545992E+00  2.852388715E+00 -7.860518107E+00  8.737142296E+00  1.192092896E-07  0.00000E+00  9.000E+00
      21     1     1     2   512   511  7.079107517E+00 -3.524860145E+00 -2.356875342E+01  2.486009936E+01  3.371747881E-07  0.00000E+00  9.000E+00
</event>
<event>
      5  10001  3.52971E+09  2.30345E+00 -1.00000E+00  3.36660E-01
      21    -1     0     0   516   511  0.000000000E+00  0.000000000E+00  1.500821979E+01  1.500821979E+01  0.000000000E+00  0.00000E+00  9.000E+00
       2    -1     0     0   512     0  0.000000000E+00  0.000000000E+00 -9.200624192E+01  9.200624192E+01  0.000000000E+00  0.00000E+00  9.000E+00
      21     1     1     2   512   513 -3.030906425E+00 -4.235016393E+00  7.149694320E+00  8.845331338E+00  7.817075878E-07  0.00000E+00  9.000E+00
       2     1     1     2   516     0  6.804131282E+00  9.636526814E+00 -8.913044689E+01  8.990831060E+01  3.300000131E-01  0.00000E+00  9.000E+00
      21     1     1     2   513   511 -3.773224857E+00 -5.401510421E+00  4.982730444E+00  8.260819773E+00  5.840038640E-07  0.00000E+00  9.000E+00
</event>
<event>
      5  10001  3.52971E+09  2.10062E+00 -1.00000E+00  3.53393E-01
      21    -1     0     0   514   515  0.000000000E+00  0.000000000E+00  6.191954108E+01  6.191954108E+01  0.000000000E+00  0.00000E+00  9.000E+00
      21    -1     0     0   511   514  0.000000000E+00  0.000000000E+00 -7.558160020E+00  7.558160020E+00  0.000000000E+00  0.00000E+00  9.000E+00
      21     1     1     2   511   512 -8.142943476E+00 -4.531527184E+00 -3.592244504E+00  9.987316339E+00  4.339283639E-07  0.00000E+00  9.000E+00
      21     1     1     2   512   513  1.021439202E+01  4.880394031E+00  4.980778729E+01  5.107805522E+01  6.743495762E-07  0.00000E+00  9.000E+00
      21     1     1     2   513   515 -2.071448544E+00 -3.488668476E-01  8.145838276E+00  8.412329545E+00  1.685873940E-07  0.00000E+00  9.000E+00
</event>
<event>
      5  10001  3.52971E+09  7.57923E+00 -1.00000E+00  2.10781E-01
      21    -1     0     0   516   512  0.000000000E+00  0.000000000E+00  7.100346888E+01  7.100346888E+01  0.000000000E+00  0.00000E+00  9.000E+00
      21    -1     0     0   515   516  0.000000000E+00  0.000000000E+00 -4.353425516E+02  4.353425516E+02  0.000000000E+00  0.00000E+00  9.000E+00
      21     1     1     2   517   511 -1.673324145E+01  8.126043452E+00 -4.432052463E+01  4.806602600E+01  1.066240300E-06  0.00000E+00  9.000E+00
      21     1     1     2   515   517  9.205515209E+00 -7.243990265E+00 -3.888530726E+02  3.890294706E+02  5.394796609E-06  0.00000E+00  9.000E+00
      21     1     1     2   511   512  7.527726244E+00 -8.820531875E-01  6.883451448E+01  6.925052393E+01  1.348699152E-06  0.00000E+00  9.000E+00
</event>
<event>
      5  10001  3.52971E+09  1.04236E+01 -1.00000E+00  1.93692E-01
      21    -1     0     0   513   512  0.000000000E+00  0.000000000E+00  3.537061050E+00  3.537061050E+00  0.000000000E+00  0.00000E+00  9.000E+00
       2    -1     0     0   511     0  0.000000000E+00  0.000000000E+00 -1.088596570E+02  1.088596570E+02  0.000000000E+00  0.00000E+00  9.000E+00
      21     1     1     2   511   512  6.832646457E+00  1.209386531E+01 -8.724024134E+01  8.833915522E+01  9.536743164E-07  0.00000E+00  9.000E+00
      21     1     1     2   513   514 -3.331247233E+00 -1.160653737E+00 -1.380864858E+00  3.788286285E+00  1.632340424E-07  0.00000E+00  9.000E+00
       2     1     1     2   514     0 -3.501399224E+00 -1.093321158E+01 -1.670148978E+01  2.026927657E+01  3.300000131E-01  0.00000E+00  9.000E+00
</event>
<event>
      5  10001  3.52971E+09  1.18488E+01 -1.00000E+00  1.87605E-01
      21    -1     0     0   515   512  0.000000000E+00  0.000000000E+00  1.705398179E+02  1.705398179E+02  0.000000000E+00  0.00000E+00  9.000E+00
      21    -1     0     0   516   515  0.000000000E+00  0.000000000E+00 -1.656374672E+01  1.656374672E+01  0.000000000E+00  0.00000E+00  9.000E+00
      21     1     1     2   516   511 -1.880420507E+01  5.804433907E+00 -8.911286151E+00  2.160325443E+01  5.840038640E-07  0.00000E+00  9.000E+00
      21     1     1     2   511   513  2.168159142E+01  1.117840040E+00  1.263818641E+02  1.282330556E+02  1.348699152E-06  0.00000E+00  9.000E+00
      21     1     1     2   513   512 -2.877386352E+00 -6.922273947E+00  3.650549319E+01  3.726725455E+01  0.000000000E+00  0.00000E+00  9.000E+00
</event>
<event>
      5  10001  3.52971E+09  9.76759E+00 -1.00000E+00  1.96940E-01
      21    -1     0     0   514   512  0.000000000E+00  0.000000000E+00  4.427710464E+00  4.427710464E+00  0.000000000E+00  0.00000E+00  9.000E+00
      -2    -1     0     0     0   514  0.000000000E+00  0.000000000E+00 -1.830930454E+02  1.830930454E+02  0.000000000E+00  0.00000E+00  9.000E+00
      -2     1     1     2     0   513  1.185478304E+01 -7.473764807E+00 -1.669201681E+02  1.675077445E+02  3.300000131E-01  0.00000E+00  9.000E+00
      21     1     1     2   511   512 -2.445561220E+00  3.980788978E-01  9.915365237E-01  2.668778965E+00  1.569934749E-07  0.00000E+00  9.000E+00
      21     1     1     2   513   511 -9.409221817E+00  7.075685909E+00 -1.273670341E+01  1.734423247E+01  1.685873940E-07  0.00000E+00  9.000E+00
</event>
<event>
      5  10001  3.52971E+09  9.13102E+00 -1.00000E+00  2.00430E-01
      21    -1     0     0   515   511  0.000000000E+00  0.000000000E+00  4.264763596E+02  4.264763596E+02  0.000000000E+00  0.00000E+00  9.000E+00
      21    -1     0     0   513   516  0.000000000E+00  0.000000000E+00 -3.969922835E+00  3.969922835E+00  0.000000000E+00  0.00000E+00  9.000E+00
      21     1     1     2   515   516 -9.329012102E+00 -7.592573490E-01  2.515215955E+00  9.691916726E+00  6.664001875E-08  0.00000E+00  9.000E+00
      21     1     1     2   512   511  8.167194560E+00 -4.875030067E+00  3.948023283E+02  3.949168867E+02  5.394796609E-06  0.00000E+00  9.000E+00
      21     1     1     2   513   512  1.161817542E+00  5.634287416E+00  2.518889255E+01  2.583747902E+01  3.371747881E-07  0.00000E+00  9.000E+00
</event>
<event>
      5  10001  3.52971E+09  4.80323E+00 -1.00000E+00  2.46042E-01
      21    -1     0     0   514   512  0.000000000E+00  0.000000000E+00  4.491081438E+01  4.491081438E+01  0.000000000E+00  0.00000E+00  9.000E+00
       1    -1     0     0   513     0  0.000000000E+00  0.000000000E+00 -8.636454863E+01  8.636454863E+01  0.000000000E+00  0.00000E+00  9.000E+00
      21     1     1     2   514   517  9.380091622E+00 -3.481360564E+00  4.178968625E+01  4.297073268E+01  6.743495762E-07  0.00000E+00  9.000E+00
      21     1     1     2   513   512 -7.812974872E+00  8.021709889E+00 -1.033743153E+01  1.523984569E+01  2.920019320E-07  0.00000E+00  9.000E+00
       1     1     1     2   517     0 -1.567116750E+00 -4.540349325E+00 -7.290598897E+01  7.306478464E+01  3.300000131E-01  0.00000E+00  9.000E+00
</event>
<event>
      5  10001  3.52971E+09  6.75165E+00 -1.00000E+00  2.17789E-01
      21    -1     0     0   511   512  0.000000000E+00  0.000000000E+00  2.833638311E+01  2.833638311E+01  0.000000000E+00  0.00000E+00  9.000E+00
      21    -1     0     0   515   511  0.000000000E+00  0.000000000E+00 -6.951778417E+01  6.951778417E+01  0.000000000E+00  0.00000E+00  9.000E+00
      21     1     1     2   513   512  2.568994075E+00 -9.801051553E+00  2.692680097E+01  2.877000091E+01  0.000000000E+00  0.00000E+00  9.000E+00
      21     1     1     2   515   514 -2.352163641E+00  1.604092004E+00 -2.812963099E+01  2.827334300E+01  3.371747881E-07  0.00000E+00  9.000E+00
      21     1     1     2   514   513 -2.168304339E-01  8.196959550E+00 -3.997857105E+01  4.081082337E+01  9.536743164E-07  0.00000E+00  9.000E+00
</event>
<event>
      5  10001  3.52971E+09  5.00617E+00 -1.00000E+00  2.38416E-01
      21    -1     0     0   516   513  0.000000000E+00  0.000000000E+00  7.844636379E+02  7.844636379E+02  0.000000000E+00  0.00000E+00  9.000E+00
      21    -1     0     0   511   516  0.000000000E+00  0.000000000E+00 -3.850462411E+01  3.850462411E+01  0.000000000E+00  0.00000E+00  9.000E+00
      21     1     1     2   515   513  1.205466159E+01  1.384901188E+00  7.781498595E+02  7.782444581E+02  0.000000000E+00  0.00000E+00  9.000E+00
      21     1     1     2   517   515 -8.991780207E+00 -5.344758105E+00 -3.659219827E+01  3.805794956E+01  1.066240300E-06  0.00000E+00  9.000E+00
      21     1     1     2   511   517 -3.062881385E+00  3.959856917E+00  4.401352556E+00  6.665854297E+00  1.032382731E-07  0.00000E+00  9.000E+00
</event>
<event>
      5  10001  3.52971E+09  3.03390E+00 -1.00000E+00  2.95385E-01
      21    -1     0     0   511   514  0.000000000E+00  0.000000000E+00  3.997974882E-01  3.997974882E-01  0.000000000E+00  0.00000E+00  9.000E+00
      -1    -1     0     0     0   512  0.000000000E+00  0.000000000E+00 -3.946486109E+02  3.946486109E+02  0.000000000E+00  0.00000E+00  9.000E+00
      -1     1     1     2     0   514  4.069528446E+00 -9.624491084E+00 -2.843600877E+02  2.845522101E+02  3.300000131E-01  0.00000E+00  9.000E+00
      21     1     1     2   511   513 -1.934542467E+00  8.675723741E+00 -9.617449446E+01  9.658438809E+01  1.907348633E-06  0.00000E+00  9.000E+00
      21     1     1     2   513   512 -2.134985979E+00  9.487673429E-01 -1.371423127E+01  1.391181023E+01  4.129530925E-07  0.00000E+00  9.000E+00
</event>
<event>
      5  10001  3.52971E+09  2.83147E+01 -1.00000E+00  1.54802E-01
      21    -1     0     0   513   515  0.000000000E+00  0.000000000E+00  7.430260057E+01  7.430260057E+01  0.000000000E+00  0.00000E+00  9.000E+00
       1    -1     0     0   511     0  0.000000000E+00  0.000000000E+00 -5.488507958E+01  5.488507958E+01  0.000000000E+00  0.00000E+00  9.000E+00
      21     1     1     2   511   515  2.710021490E+01  1.935834255E+01  5.743209726E+01  6.638985517E+01  0.000000000E+00  0.00000E+00  9.000E+00
       1     1     1     2   514     0 -2.254062256E+01  3.303347437E+00 -3.132321190E+01  3.873298689E+01  3.300000131E-01  0.00000E+00  9.000E+00
      21     1     1     2   513   514 -4.559592341E+00 -2.266168998E+01 -6.691364377E+00  2.406483809E+01  3.371747881E-07  0.00000E+00  9.000E+00
</event>
<event>
      5  10001  3.52971E+09  3.98581E+00 -1.00000E+00  2.63826E-01
      21    -1     0     0   512   514  0.000000000E+00  0.000000000E+00  3.522697115E+02  3.522697115E+02  0.000000000E+00  0.00000E+00  9.000E+00
      21    -1     0     0   515   512  0.000000000E+00  0.000000000E+00 -1.409860167E+01  1.409860167E+01  0.000000000E+00  0.00000E+00  9.000E+00
      21     1     1     2   516   511  5.627963787E+00  1.133432682E+01  2.795956023E+01  3.069003012E+01  1.215700987E-06  0.00000E+00  9.000E+00
      21     1     1     2   511   514 -4.644145182E+00 -7.471838839E+00  3.225715565E+02  3.226915021E+02  3.814697266E-06  0.00000E+00  9.000E+00
      21     1     1     2   515   516 -9.838186047E-01 -3.862487981E+00 -1.236000683E+01  1.298678102E+01  2.384185791E-07  0.00000E+00  9.000E+00
</event>
<event>
      5  10001  3.52971E+09  4.77332E+00 -1.00000E+00  2.46596E-01
      21    -1     0     0   513   514  0.000000000E+00  0.000000000E+00  4.268354245E+00  4.268354245E+00  0.000000000E+00  0.00000E+00  9.000E+00
      21    -1     0     0   511   513  0.000000000E+00  0.000000000E+00 -6.965508948E+01  6.965508948E+01  0.000000000E+00  0.00000E+00  9.000E+00
      21     1     1     2   517   514 -9.062844751E+00 -2.149087941E+00 -4.405446409E+00  1.030347961E+01  1.976862425E-07  0.00000E+00  9.000E+00
      21     1     1     2   515   517  1.138229852E+01  6.320984746E+00 -4.955328124E+01  5.123513686E+01  6.743495762E-07  0.00000E+00  9.000E+00
      21     1     1     2   511   515 -2.319453767E+00 -4.171896805E+00 -1.142800759E+01  1.238482726E+01  0.000000000E+00  0.00000E+00  9.000E+00
</event>
<event>
      5  10001  3.52971E+09  4.61046E+00 -1.00000E+00  2.49727E-01
       2    -1     0     0   512     0  0.000000000E+00  0.000000000E+00  1.592507146E+01  1.592507146E+01  0.000000000E+00  0.00000E+00  9.000E+00
      21    -1     0     0   511   513  0.000000000E+00  0.000000000E+00 -8.786597942E+01  8.786597942E+01  0.000000000E+00  0.00000E+00  9.000E+00
       2     1     1     2   511     0  7.139342810E+00 -1.523804691E+01 -1.814297996E+01  2.474762436E+01  3.300000131E-01  0.00000E+00  9.000E+00
       3     1     1     2   512     0 -9.473347693E+00  1.126287329E+01  8.211779815E+00  1.686060376E+01  5.000000000E-01  0.00000E+00  9.000E+00
      -3     1     1     2     0   513  2.334004883E+00  3.975173621E+00 -6.200970782E+01  6.218282277E+01  5.000000000E-01  0.00000E+00  9.000E+00
</event>
<event>
      5  10001  3.52971E+09  6.23526E+00 -1.00000E+00  2.22903E-01
      21    -1     0     0   512   513  0.000000000E+00  0.000000000E+00  7.459822760E+02  7.459822760E+02  0.000000000E+00  0.00000E+00  9.000E+00
      21    -1     0     0   511   515  0.000000000E+00  0.000000000E+00 -2.574624137E+00  2.574624137E+00  0.000000000E+00  0.00000E+00  9.000E+00
      21     1     1     2   514   515  2.477888060E-02  1.374276902E+01  4.844808245E+01  5.035951754E+01  6.743495762E-07  0.00000E+00  9.000E+00
      21     1     1     2   511   513  9.582367494E-01 -7.585487551E+00  7.502128179E+00  1.071166496E+01  3.264680848E-07  0.00000E+00  9.000E+00
      21     1     1     2   512   514 -9.830156300E-01 -6.157281472E+00  6.874574413E+02  6.874857177E+02  0.000000000E+00  0.00000E+00  9.000E+00
</event>
<event>
      5  10001  3.52971E+09  3.44078E+00 -1.00000E+00  2.79888E-01
      21    -1     0     0   516   511  0.000000000E+00  0.000000000E+00  1.955604693E+02  1.955604693E+02  0.000000000E+00  0.00000E+00  9.000E+00
      21    -1     0     0   517   513  0.000000000E+00  0.000000000E+00 -2.770217763E+00  2.770217763E+00  0.000000000E+00  0.00000E+00  9.000E+00
      21     1     1     2   516   514  1.282061769E+01 -6.616209896E+00  2.589852884E+01  2.964584739E+01  6.743495762E-07  0.00000E+00  9.000E+00
      21     1     1     2   517   511 -1.027108229E+01  8.926803021E+00  1.626716196E+02  1.632398198E+02  1.907348633E-06  0.00000E+00  9.000E+00
      21     1     1     2   514   513 -2.549535401E+00 -2.310593125E+00  4.220103112E+00  5.445019892E+00  1.576990671E-07  0.00000E+00  9.000E+00
</event>
<event>
      5  10001  3.52971E+09  5.12422E+00 -1.00000E+00  2.36662E-01
      21    -1     0     0   512   513  0.000000000E+00  0.000000000E+00  2.780974417E+01  2.780974417E+01  0.000000000E+00  0.00000E+00  9.000E+00
      21    -1     0     0   515   512  0.000000000E+00  0.000000000E+00 -3.971918081E+01  3.971918081E+01  0.000000000E+00  0.00000E+00  9.000E+00
      -2     1     1     2     0   511 -9.053233141E+00 -3.272394303E+00 -1.163270712E+01  1.510292587E+01  3.300000131E-01  0.00000E+00  9.000E+00
      21     1     1     2   511   513  1.362955097E+01  5.576643715E+00  2.370171502E+01  2.790403035E+01  4.768371582E-07  0.00000E+00  9.000E+00
       2     1     1     2   515     0 -4.576317830E+00 -2.304249412E+00 -2.397844454E+01  2.452196878E+01  3.300000131E-01  0.00000E+00  9.000E+00
</event>
<event>
      5  10001  3.52971E+09  2.12002E+00 -1.00000E+00  3.51644E-01
       1    -1     0     0   511     0  0.000000000E+00  0.000000000E+00  3.242944643E+01  3.242944643E+01  0.000000000E+00  0.00000E+00  9.000E+00
      21    -1     0     0   513   512  0.000000000E+00  0.000000000E+00 -6.012178076E+01  6.012178076E+01  0.000000000E+00  0.00000E+00  9.000E+00
      21     1     1     2   511   512  5.593185545E+00  9.424039939E+00 -1.397552750E+01  1.775983171E+01  4.460403188E-07  0.00000E+00  9.000E+00
       1     1     1     2   514     0 -3.710151134E+00 -8.450105340E+00  2.981275757E+01  3.121023735E+01  3.300000131E-01  0.00000E+00  9.000E+00
      21     1     1     2   513   514 -1.883034411E+00 -9.739345988E-01 -4.352956440E+01  4.358115813E+01  6.743495762E-07  0.00000E+00  9.000E+00
</event>
<event>
      5  10001  3.52971E+09  9.72060E+00 -1.00000E+00  1.97186E-01
      21    -1     0     0   514   513  0.000000000E+00  0.000000000E+00  2.049080589E+02  2.049080589E+02  0.000000000E+00  0.00000E+00  9.000E+00
      21    -1     0     0   515   514  0.000000000E+00  0.000000000E+00 -1.544421051E+00  1.544421051E+00  0.000000000E+00  0.00000E+00  9.000E+00
      21     1     1     2   511   513 -1.032862654E+01 -2.452442561E-01  1.462296601E+02  1.465941819E+02  1.907348633E-06  0.00000E+00  9.000E+00
       5     1     1     2   515     0  1.082526907E+01 -2.690204820E+00  4.122853264E+01  4.297971100E+01  4.800000191E+00  0.00000E+00  9.000E+00
      -5     1     1     2     0   511 -4.966425381E-01  2.935449076E+00  1.590544510E+01  1.687858705E+01  4.800000191E+00  0.00000E+00  9.000E+00
</event>
<event>
      5  10001  3.52971E+09  1.00255E+01 -1.00000E+00  1.95625E-01
      21    -1     0     0   512   513  0.000000000E+00  0.000000000E+00  9.305765085E+00  9.305765085E+00  0.000000000E+00  0.00000E+00  9.000E+00
      21    -1     0     0   516   512  0.000000000E+00  0.000000000E+00 -1.866639367E+01  1.866639367E+01  0.000000000E+00  0.00000E+00  9.000E+00
      21     1     1     2   516   511 -1.420319464E+00 -1.167453284E+01 -5.989067758E+00  1.319776334E+01  3.153981341E-07  0.00000E+00  9.000E+00
      21     1     1     2   511   514 -1.921441230E+00  4.943307575E+00 -4.766695094E+00  7.130891129E+00  1.332800375E-07  0.00000E+00  9.000E+00
      21     1     1     2   514   513  3.341760694E+00  6.731225267E+00  1.395134272E+00  7.643504286E+00  6.828569911E-08  0.00000E+00  9.000E+00
</event>
<event>
      5  10001  3.52971E+09  8.03526E+00 -1.00000E+00  2.07416E-01
      21    -1     0     0   511   513  0.000000000E+00  0.000000000E+00  5.652382356E+01  5.652382356E+01  0.000000000E+00  0.00000E+00  9.000E+00
      21    -1     0     0   514   512  0.000000000E+00  0.000000000E+00 -3.982542439E+01  3.982542439E+01  0.000000000E+00  0.00000E+00  9.000E+00
      -2     1     1     2     0   512 -4.157213336E+00 -1.463553689E+01 -1.797490972E+01  2.355180762E+01  3.300000131E-01  0.00000E+00  9.000E+00
      21     1     1     2   514   513  2.230221547E+00  2.243601563E+01 -1.192799416E+01  2.550736620E+01  4.460403188E-07  0.00000E+00  9.000E+00
       2     1     1     2   511     0  1.926991789E+00 -7.800478745E+00  4.660130304E+01  4.729007413E+01  3.300000131E-01  0.00000E+00  9.000E+00
</event>
<event>
      5  10001  3.52971E+09  6.72475E+00 -1.00000E+00  2.18040E-01
      21    -1     0     0   515   512  0.000000000E+00  0.000000000E+00  1.694429416E+02  1.694429416E+02  0.000000000E+00  0.00000E+00  9.000E+00
      21    -1     0     0   513   516  0.000000000E+00  0.000000000E+00 -8.794854368E+00  8.794854368E+00  0.000000000E+00  0.00000E+00  9.000E+00
      21     1     1     2   515   516  8.561791930E+00  1.302038598E+01  1.146410660E+02  1.156953272E+02  1.348699152E-06  0.00000E+00  9.000E+00
      21     1     1     2   517   512 -7.167204391E+00 -6.441833603E+00  5.239109684E+01  5.327000157E+01  9.536743164E-07  0.00000E+00  9.000E+00
      21     1     1     2   513   517 -1.394587539E+00 -6.578552378E+00 -6.384075609E+00  9.272467156E+00  4.298152060E-07  0.00000E+00  9.000E+00
</event>
<event>
      5  10001  3.52971E+09  1.08989E+01 -1.00000E+00  1.91528E-01
      21    -1     0     0   511   516  0.000000000E+00  0.000000000E+00  4.622011059E+01  4.622011059E+01  0.000000000E+00  0.00000E+00  9.000E+00
      21    -1     0     0   513   511  0.000000000E+00  0.000000000E+00 -3.967211745E+01  3.967211745E+01  0.000000000E+00  0.00000E+00  9.000E+00
      21     1     1     2   513   514  1.474775272E+01 -2.064422579E+00 -3.519599045E+01  3.821669524E+01  4.768371582E-07  0.00000E+00  9.000E+00
      21     1     1     2   512   516 -4.074190609E+00  1.634860980E+00  3.447810450E+01  3.475645968E+01  6.743495762E-07  0.00000E+00  9.000E+00
      21     1     1     2   514   512 -1.067356211E+01  4.295615997E-01  7.265879092E+00  1.291907312E+01  1.192092896E-07  0.00000E+00  9.000E+00
</event>
<event>
      5  10001  3.52971E+09  1.07508E+01 -1.00000E+00  1.92187E-01
      21    -1     0     0   515   512  0.000000000E+00  0.000000000E+00  2.620293420E+02  2.620293420E+02  0.000000000E+00  0.00000E+00  9.000E+00
      21    -1     0     0   513   517  0.000000000E+00  0.000000000E+00 -2.173117323E+01  2.173117323E+01  0.000000000E+00  0.00000E+00  9.000E+00
      21     1     1     2   515   517  8.665384176E-01  1.063956565E+01 -1.991068523E+01  2.259173815E+01  6.743495762E-07  0.00000E+00  9.000E+00
      21     1     1     2   511   512  7.471113434E+00 -8.303685400E+00  2.031328001E+02  2.034396795E+02  2.697398305E-06  0.00000E+00  9.000E+00
      21     1     1     2   513   511 -8.337651851E+00 -2.335880253E+00  5.707605385E+01  5.772909750E+01  0.000000000E+00  0.00000E+00  9.000E+00
</event>
<event>
      5  10001  3.52971E+09  4.49480E+00 -1.00000E+00  2.52072E-01
      21    -1     0     0   514   511  0.000000000E+00  0.000000000E+00  1.338512928E+02  1.338512928E+02  0.000000000E+00  0.00000E+00  9.000E+00
      21    -1     0     0   513   514  0.000000000E+00  0.000000000E+00 -2.592836324E+00  2.592836324E+00  0.000000000E+00  0.00000E+00  9.000E+00
      21     1     1     2   513   516  9.319674916E+00  7.459747296E+00  1.358077683E+01  1.808152841E+01  4.460403188E-07  0.00000E+00  9.000E+00
      21     1     1     2   516   512 -6.397264175E+00 -2.839567092E+00  5.422321503E+01  5.467307544E+01  6.743495762E-07  0.00000E+00  9.000E+00
      21     1     1     2   512   511 -2.922410741E+00 -4.620180204E+00  6.345446459E+01  6.368952524E+01  6.743495762E-07  0.00000E+00  9.000E+00
</event>
<event>
      5  10001  3.52971E+09  2.12817E+00 -1.00000E+00  3.50920E-01
      21    -1     0     0   515   512  0.000000000E+00  0.000000000E+00  5.320375793E+00  5.320375793E+00  0.000000000E+00  0.00000E+00  9.000E+00
      21    -1     0     0   511   513  0.000000000E+00  0.000000000E+00 -2.073095556E+02  2.073095556E+02  0.000000000E+00  0.00000E+00  9.000E+00
      21     1     1     2   517   512 -1.146733202E+01  9.094699104E-01 -4.337047636E+00  1.229377165E+01  1.032382731E-07  0.00000E+00  9.000E+00
      21     1     1     2   511   517  9.384046380E+00 -1.344253179E+00 -1.548323268E+01  1.815482958E+01  2.384185791E-07  0.00000E+00  9.000E+00
      21     1     1     2   515   513  2.083285642E+00  4.347832687E-01 -1.821688995E+02  1.821813302E+02  2.697398305E-06  0.00000E+00  9.000E+00
</event>
<event>
      5  10001  3.52971E+09  8.39716E+00 -1.00000E+00  2.04952E-01
      21    -1     0     0   514   511  0.000000000E+00  0.000000000E+00  4.694390733E+01  4.694390733E+01  0.000000000E+00  0.00000E+00  9.000E+00
      21    -1     0     0   517   516  0.000000000E+00  0.000000000E+00 -5.589292485E+01  5.589292485E+01  0.000000000E+00  0.00000E+00  9.000E+00
      21     1     1     2   514   516  6.123736852E-01  1.581791092E+01  1.834736280E+01  2.423235501E+01  3.371747881E-07  0.00000E+00  9.000E+00
      21     1     1     2   512   511 -1.651304559E+00 -7.485267464E+00  2.473725025E+01  2.589763668E+01  8.259061849E-07  0.00000E+00  9.000E+00
      21     1     1     2   517   512  1.038930874E+00 -8.332643453E+00 -5.203363057E+01  5.270684049E+01  6.743495762E-07  0.00000E+00  9.000E+00
</event>
<event>
      5  10001  3.52971E+09  4.70704E+00 -1.00000E+00  2.47847E-01
      21    -1     0     0   513   511  0.000000000E+00  0.000000000E+00  7.863390066E+00  7.863390066E+00  0.000000000E+00  0.00000E+00  9.000E+00
       2    -1     0     0   512     0  0.000000000E+00  0.000000000E+00 -1.950493826E+02  1.950493826E+02  0.000000000E+00  0.00000E+00  9.000E+00
      21     1     1     2   512   514 -1.965475894E+00 -2.918326889E+00  2.676987128E+00  4.421084415E+00  5.255696800E-07  0.00000E+00  9.000E+00
       2     1     1     2   513     0  2.592583808E+00  1.067250108E+01 -1.903783241E+02  1.906951467E+02  3.300000131E-01  0.00000E+00  9.000E+00
      21     1     1     2   514   511 -6.271079134E-01 -7.754174188E+00  5.153443958E-01  7.796541638E+00  7.567384199E-07  0.00000E+00  9.000E+00
</event>
<event>
      5  10001  3.52971E+09  1.47543E+01 -1.00000E+00  1.78058E-01
      21    -1     0     0   515   513  0.000000000E+00  0.000000000E+00  7.716211617E+01  7.716211617E+01  0.000000000E+00  0.00000E+00  9.000E+00
      -4    -1     0     0     0   515  0.000000000E+00  0.000000000E+00 -5.240300382E+01  5.240300382E+01  0.000000000E+00  0.00000E+00  9.000E+00
      -4     1     1     2     0   512 -9.093651450E+00 -1.280098812E+01 -4.588854825E+01  4.852389776E+01  1.500000000E+00  0.00000E+00  9.000E+00
      21     1     1     2   512   511 -5.516043055E+00  1.075629001E+01  6.351537674E+01  6.465545289E+01  6.743495762E-07  0.00000E+00  9.000E+00
      21     1     1     2   511   513  1.460969451E+01  2.044698119E+00  7.132283860E+00  1.638576934E+01  3.039252468E-07  0.00000E+00  9.000E+00
</event>
<event>
      5  10001  3.52971E+09  4.96444E+00 -1.00000E+00  2.43154E-01
      21    -1     0     0   514   512  0.000000000E+00  0.000000000E+00  1.071939236E+01  1.071939236E+01  0.000000000E+00  0.00000E+00  9.000E+00
      21    -1     0     0   516   513  0.000000000E+00  0.000000000E+00 -1.020775814E+01  1.020775814E+01  0.000000000E+00  0.00000E+00  9.000E+00
      21     1     1     2   514   513  8.545093270E+00  4.722055755E+00 -9.612447737E-01  9.810220235E+00  2.303663616E-07  0.00000E+00  9.000E+00
      21     1     1     2   516   515 -4.865108615E+00 -2.294910067E+00 -1.749359457E+00  5.656514170E+00  1.032382731E-07  0.00000E+00  9.000E+00
      21     1     1     2   515   512 -3.679984655E+00 -2.427145688E+00  3.222238457E+00  5.460416094E+00  7.300048300E-08  0.00000E+00  9.000E+00
</event>
<event>
      5  10001  3.52971E+09  5.72118E+00 -1.00000E+00  2.28723E-01
      21    -1     0     0   515   513  0.000000000E+00  0.000000000E+00  5.430037948E+01  5.430037948E+01  0.000000000E+00  0.00000E+00  9.000E+00
      -1    -1     0     0     0   511  0.000000000E+00  0.000000000E+00 -1.161280770E+01  1.161280770E+01  0.000000000E+00  0.00000E+00  9.000E+00
      -1     1     1     2     0   512  6.014131961E+00  1.331502704E+01 -3.285203615E+00  1.497869124E+01  3.300000131E-01  0.00000E+00  9.000E+00
      21     1     1     2   515   511 -1.038800621E+00 -1.613899470E+01  3.267039141E+01  3.645409074E+01  8.259061849E-07  0.00000E+00  9.000E+00
      21     1     1     2   512   513 -4.975331340E+00  2.823967660E+00  1.330238398E+01  1.448040520E+01  2.384185791E-07  0.00000E+00  9.000E+00
</event>
<event>
      5  10001  3.52971E+09  9.11537E+00 -1.00000E+00  2.00520E-01
      21    -1     0     0   514   516  0.000000000E+00  0.000000000E+00  4.991637371E+01  4.991637371E+01  0.000000000E+00  0.00000E+00  9.000E+00
      21    -1     0     0   512   513  0.000000000E+00  0.000000000E+00 -2.412931596E+00  2.412931596E+00  0.000000000E+00  0.00000E+00  9.000E+00
      21     1     1     2   514   513  4.671278083E+00 -5.610329708E+00  2.462224802E+01  2.568173934E+01  4.768371582E-07  0.00000E+00  9.000E+00
      21     1     1     2   512   511 -3.395734793E+00  2.696339666E+00  8.886445044E-01  4.426166675E+00  1.409716005E-07  0.00000E+00  9.000E+00
      21     1     1     2   511   516 -1.275543290E+00  2.913990042E+00  2.199254959E+01  2.222139928E+01  4.129530925E-07  0.00000E+00  9.000E+00
</event>
<event>
      5  10001  3.52971E+09  2.68893E+01 -1.00000E+00  1.56414E-01
      21    -1     0     0   512   513  0.000000000E+00  0.000000000E+00  1.426006676E+02  1.426006676E+02  0.000000000E+00  0.00000E+00  9.000E+00
       1    -1     0     0   515     0  0.000000000E+00  0.000000000E+00 -1.400494100E+03  1.400494100E+03  0.000000000E+00  0.00000E+00  9.000E+00
      21     1     1     2   512   511 -3.468877780E+01 -2.517361420E+01 -7.944179143E+00  4.359050515E+01  3.198720900E-06  0.00000E+00  9.000E+00
       1     1     1     2   511     0  1.853041794E+01  3.680736401E+00 -1.373212355E+03  1.373342348E+03  3.300000131E-01  0.00000E+00  9.000E+00
      21     1     1     2   515   513  1.615835986E+01  2.149287780E+01  1.232631017E+02  1.261619143E+02  5.223489356E-06  0.00000E+00  9.000E+00
</event>
<event>
      5  10001  3.52971E+09  9.31017E+00 -1.00000E+00  1.99411E-01
      21    -1     0     0   514   511  0.000000000E+00  0.000000000E+00  5.811740443E+01  5.811740443E+01  0.000000000E+00  0.00000E+00  9.000E+00
      -2    -1     0     0     0   513  0.000000000E+00  0.000000000E+00 -1.554514769E+02  1.554514769E+02  0.000000000E+00  0.00000E+00  9.000E+00
      21     1     1     2   514   513 -1.491800104E+01 -8.420269747E+00  1.575825479E+01  2.327595952E+01  5.591411304E-07  0.00000E+00  9.000E+00
      21     1     1     2   515   511  9.125404436E+00  1.131615245E+00  3.790707853E+01  3.900641180E+01  8.259061849E-07  0.00000E+00  9.000E+00
      -2     1     1     2     0   515  5.792596602E+00  7.288654501E+00 -1.509994058E+02  1.512865100E+02  3.300000131E-01  0.00000E+00  9.000E+00
</event>
<event>
      5  10001  3.52971E+09  1.19744E+01 -1.00000E+00  1.87121E-01
      21    -1     0     0   512   511  0.000000000E+00  0.000000000E+00  1.441858473E+01  1.441858473E+01  0.000000000E+00  0.00000E+00  9.000E+00
      21    -1     0     0   516   512  0.000000000E+00  0.000000000E+00 -1.823845759E+01  1.823845759E+01  0.000000000E+00  0.00000E+00  9.000E+00
      21     1     1     2   515   511 -5.108372764E+00  9.288897852E+00  4.151125570E+00  1.138468002E+01  1.192092896E-07  0.00000E+00  9.000E+00
      21     1     1     2   513   515 -1.216740772E+00 -1.066879757E+01 -9.807824667E+00  1.454294070E+01  2.665600750E-07  0.00000E+00  9.000E+00
      21     1     1     2   516   513  6.325113535E+00  1.379899715E+00  1.836826238E+00  6.729421601E+00  5.575503985E-08  0.00000E+00  9.000E+00
</event>
<event>
      5  10001  3.52971E+09  5.09786E+00 -1.00000E+00  2.37048E-01
      21    -1     0     0   514   516  0.000000000E+00  0.000000000E+00  1.394169184E+01  1.394169184E+01  0.000000000E+00  0.00000E+00  9.000E+00
      -1    -1     0     0     0   514  0.000000000E+00  0.000000000E+00 -1.360716774E+01  1.360716774E+01  0.000000000E+00  0.00000E+00  9.000E+00
      -1     1     1     2     0   512  8.494446739E+00  5.154982190E+00 -7.989515883E+00  1.275424364E+01  3.300000131E-01  0.00000E+00  9.000E+00
      21     1     1     2   512   511 -7.037700835E+00 -6.355285774E-01  6.802103094E+00  9.808248371E+00  2.230201594E-07  0.00000E+00  9.000E+00
      21     1     1     2   511   516 -1.456745904E+00 -4.519453612E+00  1.521936889E+00  4.986367564E+00  8.688795410E-08  0.00000E+00  9.000E+00
</event>
<event>
      5  10001  3.52971E+09  3.88759E+00 -1.00000E+00  2.66413E-01
      21    -1     0     0   512   514  0.000000000E+00  0.000000000E+00  1.186940254E+01  1.186940254E+01  0.000000000E+00  0.00000E+00  9.000E+00
       2    -1     0     0   513     0  0.000000000E+00  0.000000000E+00 -5.432072286E+01  5.432072286E+01  0.000000000E+00  0.00000E+00  9.000E+00
      21     1     1     2   512   511  1.078943216E+01 -6.545951532E+00 -4.517271282E-01  1.262796046E+01  1.276421674E-07  0.00000E+00  9.000E+00
       2     1     1     2   511     0 -6.909176063E+00  6.310279070E+00 -4.660454497E+01  4.753576388E+01  3.300000131E-01  0.00000E+00  9.000E+00
      21     1     1     2   513   514 -3.880256102E+00  2.356724617E-01  4.604951782E+00  6.026401068E+00  5.960464478E-08  0.00000E+00  9.000E+00
</event>
<event>
      5  10001  3.52971E+09  8.41872E+00 -1.00000E+00  2.04810E-01
      -2    -1     0     0     0   513  0.000000000E+00  0.000000000E+00  9.283713159E+00  9.283713159E+00  0.000000000E+00  0.00000E+00  9.000E+00
       2    -1     0     0   513     0  0.000000000E+00  0.000000000E+00 -1.195120741E+03  1.195120741E+03  0.000000000E+00  0.00000E+00  9.000E+00
      -2     1     1     2     0   512 -9.569473741E+00  3.582074766E+00  6.426188605E+00  1.207521790E+01  3.300000131E-01  0.00000E+00  9.000E+00
       2     1     1     2   511     0  7.215109324E+00 -3.249401469E+00 -5.066629867E+02  5.067248834E+02  3.300000131E-01  0.00000E+00  9.000E+00
      21     1     1     2   512   511  2.354364417E+00 -3.326732977E-01 -6.856002294E+02  6.856043526E+02  0.000000000E+00  0.00000E+00  9.000E+00
</event>
<event>
      5  10001  3.52971E+09  1.47100E+01 -1.00000E+00  1.78182E-01
      21    -1     0     0   511   512  0.000000000E+00  0.000000000E+00  2.619246572E+02  2.619246572E+02  0.000000000E+00  0.00000E+00  9.000E+00
       2    -1     0     0   512     0  0.000000000E+00  0.000000000E+00 -4.581485107E+02  4.581485107E+02  0.000000000E+00  0.00000E+00  9.000E+00
      21     1     1     2   511   514 -2.782833710E+01  7.664377148E+00  2.602455820E+02  2.618414061E+02  0.000000000E+00  0.00000E+00  9.000E+00
       2     1     1     2   513     0  2.273509310E+01  5.444550669E+00 -3.580571163E+02  3.588196413E+02  3.300000131E-01  0.00000E+00  9.000E+00
      21     1     1     2   514   513  5.093243994E+00 -1.310892782E+01 -9.841231918E+01  9.941212043E+01  0.000000000E+00  0.00000E+00  9.000E+00
</event>
<event>
      5  10001  3.52971E+09  1.01225E+01 -1.00000E+00  1.95143E-01
      21    -1     0     0   513   512  0.000000000E+00  0.000000000E+00  7.836207758E+00  7.836207758E+00  0.000000000E+00  0.00000E+00  9.000E+00
       2    -1     0     0   512     0  0.000000000E+00  0.000000000E+00 -2.497995789E+02  2.497995789E+02  0.000000000E+00  0.00000E+00  9.000E+00
      21     1     1     2   513   515  5.837908752E+00 -9.335753297E+00  2.787438976E+00  1.135813736E+01  4.107966647E-07  0.00000E+00  9.000E+00
       2     1     1     2   511     0 -4.086111625E+00  3.069068666E+00 -2.310854804E+02  2.311422152E+02  3.300000131E-01  0.00000E+00  9.000E+00
      21     1     1     2   515   511 -1.751797127E+00  6.266684632E+00 -1.366532974E+01  1.513543413E+01  2.384185791E-07  0.00000E+00  9.000E+00
</event>
<event>
      5  10001  3.52971E+09  6.01884E+00 -1.00000E+00  2.25254E-01
      21    -1     0     0   514   511  0.000000000E+00  0.000000000E+00  1.458528253E+02  1.458528253E+02  0.000000000E+00  0.00000E+00  9.000E+00
      21    -1     0     0   512   516  0.000000000E+00  0.000000000E+00 -1.119387556E+00  1.119387556E+00  0.000000000E+00  0.00000E+00  9.000E+00
      21     1     1     2   514   516 -1.084421152E+01  4.931091746E+00  5.017296330E+01  5.156780813E+01  6.743495762E-07  0.00000E+00  9.000E+00
      -3     1     1     2     0   511  4.127408866E+00  2.350506303E-01  2.946102646E+01  2.975387089E+01  5.000000000E-01  0.00000E+00  9.000E+00
       3     1     1     2   512     0  6.716802657E+00 -5.166142376E+00  6.509944795E+01  6.565053381E+01  5.000000000E-01  0.00000E+00  9.000E+00
</event>
<event>
      5  10001  3.52971E+09  4.78101E+00 -1.00000E+00  2.46453E-01
       2    -1     0     0   512     0  0.000000000E+00  0.000000000E+00  1.520231947E+02  1.520231947E+02  0.000000000E+00  0.00000E+00  9.000E+00
      21    -1     0     0   513   515  0.000000000E+00  0.000000000E+00 -7.806444584E+00  7.806444584E+00  0.000000000E+00  0.00000E+00  9.000E+00
      -2     1     1     2     0   515  5.379849352E+00  9.374433391E+00  1.115083299E+00  1.087083673E+01  3.300000131E-01  0.00000E+00  9.000E+00
       2     1     1     2   513     0 -1.144429858E+01 -1.077402100E+01  1.417013904E+02  1.425708401E+02  3.300000131E-01  0.00000E+00  9.000E+00
       2     1     1     2   512     0  6.064449224E+00  1.399587614E+00  1.400276346E+00  6.387962408E+00  3.300000131E-01  0.00000E+00  9.000E+00
</event>
<event>
      5  10001  3.52971E+09  9.61523E+00 -1.00000E+00  1.97743E-01
      21    -1     0     0   511   513  0.000000000E+00  0.000000000E+00  2.141965306E+00  2.141965306E+00  0.000000000E+00  0.00000E+00  9.000E+00
      21    -1     0     0   516   514  0.000000000E+00  0.000000000E+00 -1.341646779E+02  1.341646779E+02  0.000000000E+00  0.00000E+00  9.000E+00
      21     1     1     2   511   514  1.126375873E+01 -2.912009809E-01 -1.611899715E+01  1.966670099E+01  4.129530925E-07  0.00000E+00  9.000E+00
      21     1     1     2   516   515 -5.532558864E+00 -1.816150141E-01 -2.762685159E+01  2.817596707E+01  3.371747881E-07  0.00000E+00  9.000E+00
      21     1     1     2   515   513 -5.731199862E+00  4.728159950E-01 -8.827686384E+01  8.846397514E+01  1.348699152E-06  0.00000E+00  9.000E+00
</event>
<event>
      5  10001  3.52971E+09  1.43587E+01 -1.00000E+00  1.79186E-01
      21    -1     0     0   511   514  0.000000000E+00  0.000000000E+00  4.875752433E+02  4.875752433E+02  0.000000000E+00  0.00000E+00  9.000E+00
      21    -1     0     0   517   513  0.000000000E+00  0.000000000E+00 -3.004701151E+00  3.004701151E+00  0.000000000E+00  0.00000E+00  9.000E+00
      21     1     1     2   512   513  1.771835785E+01 -9.701720798E+00  6.830882683E+01  7.123313424E+01  1.348699152E-06  0.00000E+00  9.000E+00
      21     1     1     2   517   514 -3.097246219E+01  4.178908109E+00  1.834841321E+02  1.861267940E+02  0.000000000E+00  0.00000E+00  9.000E+00
      21     1     1     2   511   512  1.325410434E+01  5.522812689E+00  2.327775831E+02  2.332200162E+02  2.697398305E-06  0.00000E+00  9.000E+00
</event>
<event>
      5  10001  3.52971E+09  9.85666E+00 -1.00000E+00  1.96480E-01
       1    -1     0     0   515     0  0.000000000E+00  0.000000000E+00  5.391408583E+02  5.391408583E+02  0.000000000E+00  0.00000E+00  9.000E+00
      21    -1     0     0   516   512  0.000000000E+00  0.000000000E+00 -7.643545641E+00  7.643545641E+00  0.000000000E+00  0.00000E+00  9.000E+00
      21     1     1     2   515   512  3.515872321E+00 -1.633211133E+01  1.743016438E+01  2.414352602E+01  5.331201500E-07  0.00000E+00  9.000E+00
      21     1     1     2   516   513  2.658293533E+00  8.648881191E+00  5.882581062E-01  9.067288347E+00  1.628936165E-07  0.00000E+00  9.000E+00
       1     1     1     2   513     0 -6.174165853E+00  7.683230138E+00  5.134788902E+02  5.135735896E+02  3.300000131E-01  0.00000E+00  9.000E+00
</event>
<event>
      5  10001  3.52971E+09  1.12403E+01 -1.00000E+00  1.90061E-01
      21    -1     0     0   511   512  0.000000000E+00  0.000000000E+00  1.118130750E+02  1.118130750E+02  0.000000000E+00  0.00000E+00  9.000E+00
      21    -1     0     0   514   511  0.000000000E+00  0.000000000E+00 -1.083354208E+01  1.083354208E+01  0.000000000E+00  0.00000E+00  9.000E+00
      21     1     1     2   514   517 -1.135065050E+01 -1.081929289E+01 -3.518494860E+00  1.607091072E+01  6.474721725E-07  0.00000E+00  9.000E+00
      -5     1     1     2     0   512  5.929028887E+00  1.365323883E-01  4.944743066E+01  5.003259363E+01  4.800000191E+00  0.00000E+00  9.000E+00
       5     1     1     2   517     0  5.421621609E+00  1.068276050E+01  5.505059711E+01  5.654311273E+01  4.800000191E+00  0.00000E+00  9.000E+00
</event>
<event>
      5  10001  3.52971E+09  6.92188E+00 -1.00000E+00  2.16239E-01
      21    -1     0     0   513   516  0.000000000E+00  0.000000000E+00  5.374274746E+01  5.374274746E+01  0.000000000E+00  0.00000E+00  9.000E+00
      21    -1     0     0   515   513  0.000000000E+00  0.000000000E+00 -1.594123201E+01  1.594123201E+01  0.000000000E+00  0.00000E+00  9.000E+00
      21     1     1     2   515   514  8.219096576E+00 -6.246796032E+00 -1.353363665E+01  1.702161362E+01  2.920019320E-07  0.00000E+00  9.000E+00
      21     1     1     2   511   516 -2.132940964E+00  4.953001358E+00  1.992644659E+01  2.064327816E+01  2.384185791E-07  0.00000E+00  9.000E+00
      21     1     1     2   514   511 -6.086155612E+00  1.293794675E+00  3.140870550E+01  3.201908769E+01  3.371747881E-07  0.00000E+00  9.000E+00
</event>
<event>
      5  10001  3.52971E+09  6.32459E+00 -1.00000E+00  2.21970E-01
      21    -1     0     0   512   515  0.000000000E+00  0.000000000E+00  1.008807321E+02  1.008807321E+02  0.000000000E+00  0.00000E+00  9.000E+00
      21    -1     0     0   517   513  0.000000000E+00  0.000000000E+00 -5.148657459E+01  5.148657459E+01  0.000000000E+00  0.00000E+00  9.000E+00
      21     1     1     2   511   515  1.364636886E+01 -1.175483968E+01  9.390843392E+01  9.562004811E+01  1.348699152E-06  0.00000E+00  9.000E+00
      21     1     1     2   517   511 -1.260625448E+01  5.516357530E+00 -2.166595322E+00  1.392989546E+01  6.034510354E-07  0.00000E+00  9.000E+00
      21     1     1     2   512   513 -1.040114382E+00  6.238482149E+00 -4.234768105E+01  4.281736316E+01  9.536743164E-07  0.00000E+00  9.000E+00
</event>
<event>
      5  10001  3.52971E+09  7.01442E+00 -1.00000E+00  2.15422E-01
      21    -1     0     0   514   511  0.000000000E+00  0.000000000E+00  8.164695738E+01  8.164695738E+01  0.000000000E+00  0.00000E+00  9.000E+00
      21    -1     0     0   516   514  0.000000000E+00  0.000000000E+00 -2.933215626E+01  2.933215626E+01  0.000000000E+00  0.00000E+00  9.000E+00
      21     1     1     2   516   513 -6.269525332E+00  4.253687322E+00 -2.705052856E+01  2.809149158E+01  3.371747881E-07  0.00000E+00  9.000E+00
      21     1     1     2   513   515  1.056025696E+01 -9.802721332E+00  3.319215706E+01  3.618468824E+01  4.768371582E-07  0.00000E+00  9.000E+00
      21     1     1     2   515   511 -4.290731632E+00  5.549034010E+00  4.617317264E+01  4.670293382E+01  9.536743164E-07  0.00000E+00  9.000E+00
</event>
<event>
      5  10001  3.52971E+09  2.23186E+00 -1.00000E+00  3.42198E-01
      21    -1     0     0   514   511  0.000000000E+00  0.000000000E+00  1.599294730E+02  1.599294730E+02  0.000000000E+00  0.00000E+00  9.000E+00
       1    -1     0     0   513     0  0.000000000E+00  0.000000000E+00 -3.611148707E+00  3.611148707E+00  0.000000000E+00  0.00000E+00  9.000E+00
      21     1     1     2   513   511  2.281555581E+00 -9.136962201E+00  1.089036229E+02  1.093100574E+02  2.697398305E-06  0.00000E+00  9.000E+00
       1     1     1     2   512     0 -2.654173415E+00  1.133738711E+01  6.666574398E+00  1.342136719E+01  3.300000131E-01  0.00000E+00  9.000E+00
      21     1     1     2   514   512  3.726178341E-01 -2.200424906E+00  4.074812705E+01  4.080919715E+01  4.768371582E-07  0.00000E+00  9.000E+00
</event>
<event>
      5  10001  3.52971E+09  9.71111E+00 -1.00000E+00  1.97236E-01
       1    -1     0     0   515     0  0.000000000E+00  0.000000000E+00  1.017991928E+01  1.017991928E+01  0.000000000E+00  0.00000E+00  9.000E+00
      21    -1     0     0   514   512  0.000000000E+00  0.000000000E+00 -7.750085687E+02  7.750085687E+02  0.000000000E+00  0.00000E+00  9.000E+00
      21     1     1     2   515   512 -1.789258990E+01 -9.401176658E+00 -7.610969935E+02  7.613653265E+02  1.078959322E-05  0.00000E+00  9.000E+00
       1     1     1     2   511     0  8.567591002E+00  4.091136977E-01  3.163568233E+00  9.148117487E+00  3.300000131E-01  0.00000E+00  9.000E+00
      21     1     1     2   514   511  9.324998895E+00  8.992062960E+00 -6.895224215E+00  1.467504404E+01  1.233110479E-06  0.00000E+00  9.000E+00
</event>
<event>
      5  10001  3.52971E+09  1.66797E+01 -1.00000E+00  1.73145E-01
      21    -1     0     0   513   511  0.000000000E+00  0.000000000E+00  2.307382402E+02  2.307382402E+02  0.000000000E+00  0.00000E+00  9.000E+00
      21    -1     0     0   514   516  0.000000000E+00  0.000000000E+00 -3.111665501E+00  3.111665501E+00  0.000000000E+00  0.00000E+00  9.000E+00
      21     1     1     2   513   516 -4.876106934E+00  1.561150235E+01  1.437958608E+02  1.447229940E+02  2.697398305E-06  0.00000E+00  9.000E+00
      21     1     1     2   512   511  8.378751479E+00 -9.160482941E+00  1.321833720E+01  1.813401121E+01  2.920019320E-07  0.00000E+00  9.000E+00
      21     1     1     2   514   512 -3.502644545E+00 -6.451019413E+00  7.061237678E+01  7.099290052E+01  9.536743164E-07  0.00000E+00  9.000E+00
</event>
<event>
      5  10001  3.52971E+09  5.83359E+00 -1.00000E+00  2.27379E-01
      21    -1     0     0   514   511  0.000000000E+00  0.000000000E+00  2.028457910E+01  2.028457910E+01  0.000000000E+00  0.00000E+00  9.000E+00
       1    -1     0     0   512     0  0.000000000E+00  0.000000000E+00 -8.300077344E+00  8.300077344E+00  0.000000000E+00  0.00000E+00  9.000E+00
      21     1     1     2   512   511  8.636688607E+00  2.635986994E-01 -2.682827513E+00  9.047620562E+00  1.365713982E-07  0.00000E+00  9.000E+00
       1     1     1     2   513     0 -6.596901014E+00  3.071014421E+00  1.369068052E+01  1.550786464E+01  3.300000131E-01  0.00000E+00  9.000E+00
      21     1     1     2   514   513 -2.039787593E+00 -3.334613120E+00  9.766487427E-01  4.029171237E+00  9.884312124E-08  0.00000E+00  9.000E+00
</event>
<event>
      5  10001  3.52971E+09  4.50601E+00 -1.00000E+00  2.51840E-01
      21    -1     0     0   513   511  0.000000000E+00  0.000000000E+00  2.537383339E+00  2.537383339E+00  0.000000000E+00  0.00000E+00  9.000E+00
       1    -1     0     0   511     0  0.000000000E+00  0.000000000E+00 -4.451299046E+02  4.451299046E+02  0.000000000E+00  0.00000E+00  9.000E+00
      21     1     1     2   513   512  7.390581310E+00 -7.431399595E+00 -1.887807157E+01  2.159231295E+01  8.596304120E-07  0.00000E+00  9.000E+00
       1     1     1     2   515     0 -1.468830846E+01  8.790170618E+00 -4.109685887E+02  4.113250579E+02  3.300000131E-01  0.00000E+00  9.000E+00
      21     1     1     2   512   515  7.297727148E+00 -1.358771022E+00 -1.274586098E+01  1.474991703E+01  3.769728732E-07  0.00000E+00  9.000E+00
</event>
<event>
      5  10001  3.52971E+09  1.00568E+01 -1.00000E+00  1.95469E-01
      21    -1     0     0   514   513  0.000000000E+00  0.000000000E+00  3.039222958E+01  3.039222958E+01  0.000000000E+00  0.00000E+00  9.000E+00
      21    -1     0     0   511   516  0.000000000E+00  0.000000000E+00 -3.546498107E+01  3.546498107E+01  0.000000000E+00  0.00000E+00  9.000E+00
      21     1     1     2   514   516  7.975194870E+00  9.787972536E+00  2.204919718E+01  2.540817262E+01  0.000000000E+00  0.00000E+00  9.000E+00
      21     1     1     2   511   512  1.910629469E+00 -1.163447377E+01 -2.797307671E+01  3.035629268E+01  3.371747881E-07  0.00000E+00  9.000E+00
      21     1     1     2   512   513 -9.885824340E+00  1.846501232E+00  8.511280352E-01  1.009274535E+01  2.289159819E-07  0.00000E+00  9.000E+00
</event>
<event>
      5  10001  3.52971E+09  1.64699E+01 -1.00000E+00  1.73639E-01
       2    -1     0     0   511     0  0.000000000E+00  0.000000000E+00  2.225894901E+02  2.225894901E+02  0.000000000E+00  0.00000E+00  9.000E+00
      21    -1     0     0   515   514  0.000000000E+00  0.000000000E+00 -4.702193480E+01  4.702193480E+01  0.000000000E+00  0.00000E+00  9.000E+00
      21     1     1     2   515   512  8.672114655E+00  1.372860081E+01 -4.239541937E+01  4.539880655E+01  1.719260824E-06  0.00000E+00  9.000E+00
       2     1     1     2   512     0 -1.807837659E+01 -2.090632608E-01  1.956273657E+02  1.964613105E+02  3.300000131E-01  0.00000E+00  9.000E+00
      21     1     1     2   511   514  9.406261936E+00 -1.351953755E+01  2.233560891E+01  2.775130780E+01  5.331201500E-07  0.00000E+00  9.000E+00
</event>
<event>
      5  10001  3.52971E+09  1.16364E+01 -1.00000E+00  1.88440E-01
      21    -1     0     0   513   515  0.000000000E+00  0.000000000E+00  3.736687030E+01  3.736687030E+01  0.000000000E+00  0.00000E+00  9.000E+00
      21    -1     0     0   512   513  0.000000000E+00  0.000000000E+00 -9.744550668E+01  9.744550668E+01  0.000000000E+00  0.00000E+00  9.000E+00
      21     1     1     2   514   515  8.521668085E+00  1.288811185E+01  2.577910825E+01  3.005469474E+01  3.371747881E-07  0.00000E+00  9.000E+00
      21     1     1     2   516   514 -1.567735867E+01 -2.206433207E+01 -1.135583612E+01  2.935250141E+01  2.384185791E-07  0.00000E+00  9.000E+00
      21     1     1     2   512   516  7.155690589E+00  9.176220223E+00 -7.450190850E+01  7.540518083E+01  1.348699152E-06  0.00000E+00  9.000E+00
</event>
<event>
      5  10001  3.52971E+09  9.56096E+00 -1.00000E+00  1.98034E-01
       2    -1     0     0   511     0  0.000000000E+00  0.000000000E+00  4.874336497E+01  4.874336497E+01  0.000000000E+00  0.00000E+00  9.000E+00
      21    -1     0     0   512   517  0.000000000E+00  0.000000000E+00 -2.631206994E+02  2.631206994E+02  0.000000000E+00  0.00000E+00  9.000E+00
      21     1     1     2   511   517 -1.289405169E+01 -8.209035248E+00 -3.357712457E+00  1.564989015E+01  5.022376641E-07  0.00000E+00  9.000E+00
      21     1     1     2   512   515  7.957437218E+00  2.115555405E-02 -2.530164312E+02  2.531415330E+02  3.814697266E-06  0.00000E+00  9.000E+00
       2     1     1     2   515     0  4.936614475E+00  8.187879694E+00  4.199680924E+01  4.307264124E+01  3.300000131E-01  0.00000E+00  9.000E+00
</event>
<event>
      5  10001  3.52971E+09  5.17838E+00 -1.00000E+00  2.35880E-01
      21    -1     0     0   512   514  0.000000000E+00  0.000000000E+00  1.406790459E+01  1.406790459E+01  0.000000000E+00  0.00000E+00  9.000E+00
      21    -1     0     0   514   511  0.000000000E+00  0.000000000E+00 -1.058838565E+02  1.058838565E+02  0.000000000E+00  0.00000E+00  9.000E+00
      21     1     1     2   512   513  1.842098506E+00  1.646271797E+01  7.562601649E+00  1.821008934E+01  2.064765462E-07  0.00000E+00  9.000E+00
       4     1     1     2   513     0  1.056314083E+00 -1.218101761E+01 -3.437438823E+01  3.651494975E+01  1.500000000E+00  0.00000E+00  9.000E+00
      -4     1     1     2     0   511 -2.898412589E+00 -4.281700366E+00 -6.500416532E+01  6.522672200E+01  1.500000000E+00  0.00000E+00  9.000E+00
</event>
<event>
      5  10001  3.52971E+09  3.16226E+00 -1.00000E+00  2.90084E-01
      21    -1     0     0   515   511  0.000000000E+00  0.000000000E+00  8.516882666E+01  8.516882666E+01  0.000000000E+00  0.00000E+00  9.000E+00
       3    -1     0     0   514     0  0.000000000E+00  0.000000000E+00 -5.723054727E+00  5.723054727E+00  0.000000000E+00  0.00000E+00  9.000E+00
      21     1     1     2   515   516  9.244418537E+00  7.224335775E+00  6.016533680E+01  6.129859748E+01  9.536743164E-07  0.00000E+00  9.000E+00
      21     1     1     2   514   511 -8.114570784E+00 -4.271380098E+00  2.295566419E+01  2.471949566E+01  0.000000000E+00  0.00000E+00  9.000E+00
       3     1     1     2   516     0 -1.129847753E+00 -2.952955678E+00 -3.675229062E+00  4.873788243E+00  5.000000000E-01  0.00000E+00  9.000E+00
</event>
<event>
      5  10001  3.52971E+09  2.73206E+00 -1.00000E+00  3.09756E-01
      21    -1     0     0   513   511  0.000000000E+00  0.000000000E+00  3.201141525E+02  3.201141525E+02  0.000000000E+00  0.00000E+00  9.000E+00
      -4    -1     0     0     0   512  0.000000000E+00  0.000000000E+00 -5.386965143E-01  5.386965143E-01  0.000000000E+00  0.00000E+00  9.000E+00
      -4     1     1     2     0   514  1.921870628E+00 -7.061862134E+00  5.551746428E+01  5.601787504E+01  1.500000000E+00  0.00000E+00  9.000E+00
      21     1     1     2   513   512 -1.845577691E+00  1.210493482E+01  2.030371258E+02  2.034060227E+02  2.697398305E-06  0.00000E+00  9.000E+00
      21     1     1     2   514   511 -7.629293726E-02 -5.043072689E+00  6.102086588E+01  6.122895129E+01  0.000000000E+00  0.00000E+00  9.000E+00
</event>
<event>
      5  10001  3.52971E+09  1.31259E+01 -1.00000E+00  1.83020E-01
      -3    -1     0     0     0   511  0.000000000E+00  0.000000000E+00  8.355880704E+01  8.355880704E+01  0.000000000E+00  0.00000E+00  9.000E+00
      21    -1     0     0   511   515  0.000000000E+00  0.000000000E+00 -4.711374207E+00  4.711374207E+00  0.000000000E+00  0.00000E+00  9.000E+00
      -3     1     1     2     0   513 -1.739845522E+00 -4.370140456E+00  4.791370839E+01  4.814663687E+01  5.000000000E-01  0.00000E+00  9.000E+00
      21     1     1     2   512   515  2.125300978E+00  1.462982807E+01  1.424576932E+01  2.053023909E+01  0.000000000E+00  0.00000E+00  9.000E+00
      21     1     1     2   513   512 -3.854554558E-01 -1.025968762E+01  1.668795512E+01  1.959330528E+01  4.129530925E-07  0.00000E+00  9.000E+00
</event>
<event>
      5  10001  3.52971E+09  5.91525E+00 -1.00000E+00  2.26429E-01
      21    -1     0     0   514   515  0.000000000E+00  0.000000000E+00  1.166613381E+02  1.166613381E+02  0.000000000E+00  0.00000E+00  9.000E+00
      21    -1     0     0   511   516  0.000000000E+00  0.000000000E+00 -5.928760444E+02  5.928760444E+02  0.000000000E+00  0.00000E+00  9.000E+00
      21     1     1     2   514   516  2.498853530E+00  9.329416258E+00 -5.251165140E+02  5.252053270E+02  0.000000000E+00  0.00000E+00  9.000E+00
      21     1     1     2   511   512 -8.338946797E+00 -1.026938374E+01 -6.699289137E+01  6.828649772E+01  0.000000000E+00  0.00000E+00  9.000E+00
      21     1     1     2   512   515  5.840093267E+00  9.399674847E-01  1.158946990E+02  1.160455578E+02  1.907348633E-06  0.00000E+00  9.000E+00
</event>
<event>
      5  10001  3.52971E+09  5.73588E+00 -1.00000E+00  2.28545E-01
      21    -1     0     0   513   512  0.000000000E+00  0.000000000E+00  5.433732454E-01  5.433732454E-01  0.000000000E+00  0.00000E+00  9.000E+00
      21    -1     0     0   515   513  0.000000000E+00  0.000000000E+00 -2.302340382E+02  2.302340382E+02  0.000000000E+00  0.00000E+00  9.000E+00
      21     1     1     2   511   512  8.671737576E+00 -4.416191677E+00 -1.244833554E+02  1.248631553E+02  2.336015456E-06  0.00000E+00  9.000E+00
      21     1     1     2   515   514 -7.688450390E+00  3.706548665E-02 -7.047910864E+01  7.089723830E+01  1.348699152E-06  0.00000E+00  9.000E+00
      21     1     1     2   514   511 -9.832871858E-01  4.379126190E+00 -3.472820092E+01  3.501701785E+01  4.768371582E-07  0.00000E+00  9.000E+00
</event>
<event>
      5  10001  3.52971E+09  1.65832E+01 -1.00000E+00  1.73371E-01
      21    -1     0     0   516   512  0.000000000E+00  0.000000000E+00  1.193751940E+02  1.193751940E+02  0.000000000E+00  0.00000E+00  9.000E+00
      21    -1     0     0   517   516  0.000000000E+00  0.000000000E+00 -2.807857584E+01  2.807857584E+01  0.000000000E+00  0.00000E+00  9.000E+00
      21     1     1     2   517   511 -4.335700573E-01 -1.524172402E+01 -2.293806895E+01  2.754365882E+01  3.371747881E-07  0.00000E+00  9.000E+00
      21     1     1     2   513   512  1.199893963E+01  1.226670264E+01  9.937962851E+01  1.008501716E+02  1.348699152E-06  0.00000E+00  9.000E+00
      21     1     1     2   511   513 -1.156536957E+01  2.975021374E+00  1.485505859E+01  1.905993943E+01  0.000000000E+00  0.00000E+00  9.000E+00
</event>
<event>
      5  10001  3.52971E+09  1.03454E+01 -1.00000E+00  1.94063E-01
      21    -1     0     0   514   511  0.000000000E+00  0.000000000E+00  2.376116850E+01  2.376116850E+01  0.000000000E+00  0.00000E+00  9.000E+00
      21    -1     0     0   515   512  0.000000000E+00  0.000000000E+00 -2.698308636E+02  2.698308636E+02  0.000000000E+00  0.00000E+00  9.000E+00
      21     1     1     2   515   517 -9.260966196E+00 -1.025154392E+01 -2.463408207E+02  2.467279060E+02  0.000000000E+00  0.00000E+00  9.000E+00
      21     1     1     2   517   511 -7.905659381E-02  1.470035893E+01  1.986140459E+01  2.470996145E+01  7.907449699E-07  0.00000E+00  9.000E+00
      21     1     1     2   514   512  9.340022790E+00 -4.448815010E+00 -1.959027892E+01  2.215416459E+01  3.371747881E-07  0.00000E+00  9.000E+00
</event>
<event>
      5  10001  3.52971E+09  8.83289E+00 -1.00000E+00  2.02196E-01
      21    -1     0     0   513   511  0.000000000E+00  0.000000000E+00  1.329421994E+02  1.329421994E+02  0.000000000E+00  0.00000E+00  9.000E+00
      21    -1     0     0   515   516  0.000000000E+00  0.000000000E+00 -5.252656937E+00  5.252656937E+00  0.000000000E+00  0.00000E+00  9.000E+00
      21     1     1     2   513   516  4.597753114E+00  7.248519127E+00  2.651808030E+00  8.984010745E+00  2.289159819E-07  0.00000E+00  9.000E+00
      21     1     1     2   515   512 -4.677514129E+00 -1.608104555E+01  3.565086480E+01  3.938861924E+01  4.768371582E-07  0.00000E+00  9.000E+00
      21     1     1     2   512   511  7.976101548E-02  8.832526421E+00  8.938686963E+01  8.982222635E+01  9.536743164E-07  0.00000E+00  9.000E+00
</event>
<event>
      5  10001  3.52971E+09  5.50576E+00 -1.00000E+00  2.31424E-01
      21    -1     0     0   512   511  0.000000000E+00  0.000000000E+00  6.296911044E+00  6.296911044E+00  0.000000000E+00  0.00000E+00  9.000E+00
       2    -1     0     0   514     0  0.000000000E+00  0.000000000E+00 -5.063851028E+02  5.063851028E+02  0.000000000E+00  0.00000E+00  9.000E+00
      21     1     1     2   514   511  7.505955114E+00  6.753745590E+00  2.063196161E+00  1.030578576E+01  9.606338418E-07  0.00000E+00  9.000E+00
       2     1     1     2   513     0 -8.145679806E+00 -1.637903286E+00 -4.072621359E+02  4.073470156E+02  3.300000131E-01  0.00000E+00  9.000E+00
      21     1     1     2   512   513  6.397246912E-01 -5.115842304E+00 -9.488925196E+01  9.502921250E+01  0.000000000E+00  0.00000E+00  9.000E+00
</event>
<event>
      5  10001  3.52971E+09  3.03500E+00 -1.00000E+00  2.95337E-01
      21    -1     0     0   515   513  0.000000000E+00  0.000000000E+00  2.576993313E+02  2.576993313E+02  0.000000000E+00  0.00000E+00  9.000E+00
      21    -1     0     0   514   516  0.000000000E+00  0.000000000E+00 -1.869566849E+02  1.869566849E+02  0.000000000E+00  0.00000E+00  9.000E+00
      21     1     1     2   515   516 -1.200557387E+01 -4.478197622E-01  1.153246980E+02  1.159487832E+02  1.907348633E-06  0.00000E+00  9.000E+00
      21     1     1     2   511   513  8.972575305E+00  3.375356431E-01  1.419083552E+02  1.421921317E+02  0.000000000E+00  0.00000E+00  9.000E+00
      21     1     1     2   514   511  3.032998566E+00  1.102841191E-01 -1.864904068E+02  1.865151014E+02  0.000000000E+00  0.00000E+00  9.000E+00
</event>
<event>
      5  10001  3.52971E+09  4.65893E+00 -1.00000E+00  2.48775E-01
      21    -1     0     0   512   511  0.000000000E+00  0.000000000E+00  4.390213348E+00  4.390213348E+00  0.000000000E+00  0.00000E+00  9.000E+00
      21    -1     0     0   513   512  0.000000000E+00  0.000000000E+00 -6.148268930E+01  6.148268930E+01  0.000000000E+00  0.00000E+00  9.000E+00
      21     1     1     2   514   517  9.492641161E+00  9.702025168E+00 -1.724463972E+01  2.194577699E+01  3.371747881E-07  0.00000E+00  9.000E+00
      21     1     1     2   517   511 -5.628675667E+00 -1.230499331E+01 -2.589825231E+01  2.922010135E+01  3.371747881E-07  0.00000E+00  9.000E+00
      21     1     1     2   513   514 -3.863965494E+00  2.602968140E+00 -1.394958392E+01  1.470702430E+01  1.685873940E-07  0.00000E+00  9.000E+00
</event>
<event>
      5  10001  3.52971E+09  3.01591E+01 -1.00000E+00  1.52878E-01
      21    -1     0     0   515   511  0.000000000E+00  0.000000000E+00  1.816457634E+01  1.816457634E+01  0.000000000E+00  0.00000E+00  9.000E+00
      21    -1     0     0   513   515  0.000000000E+00  0.000000000E+00 -8.398539016E+02  8.398539016E+02  0.000000000E+00  0.00000E+00  9.000E+00
      21     1     1     2   516   511  9.667579478E+00  1.304644132E+01  1.412886574E+01  2.152432510E+01  1.685873940E-07  0.00000E+00  9.000E+00
      21     1     1     2   513   512 -1.284625365E+01 -1.846123862E+01 -4.007285728E+02  4.013592314E+02  7.629394531E-06  0.00000E+00  9.000E+00
      21     1     1     2   512   516  3.178674169E+00  5.414797307E+00 -4.350896182E+02  4.351349214E+02  0.000000000E+00  0.00000E+00  9.000E+00
</event>
<event>
      5  10001  3.52971E+09  2.09966E+01 -1.00000E+00  1.64642E-01
      21    -1     0     0   512   514  0.000000000E+00  0.000000000E+00  3.406179883E+01  3.406179883E+01  0.000000000E+00  0.00000E+00  9.000E+00
      21    -1     0     0   514   515  0.000000000E+00  0.000000000E+00 -8.296382149E+00  8.296382149E+00  0.000000000E+00  0.00000E+00  9.000E+00
      -2     1     1     2     0   515 -7.558575183E+00  1.095352873E+01  8.311382748E+00  1.569394258E+01  3.300000131E-01  0.00000E+00  9.000E+00
       2     1     1     2   511     0 -3.617734468E+00 -5.191958631E+00  1.803611596E+00  6.588349711E+00  3.300000131E-01  0.00000E+00  9.000E+00
      21     1     1     2   512   511  1.117630965E+01 -5.761570098E+00  1.565042234E+01  2.007588869E+01  5.331201500E-07  0.00000E+00  9.000E+00
</event>
<event>
      5  10001  3.52971E+09  8.75307E+00 -1.00000E+00  2.02685E-01
      21    -1     0     0   513   511  0.000000000E+00  0.000000000E+00  8.597459300E+00  8.597459300E+00  0.000000000E+00  0.00000E+00  9.000E+00
      21    -1     0     0   514   513  0.000000000E+00  0.000000000E+00 -1.049271957E+02  1.049271957E+02  0.000000000E+00  0.00000E+00  9.000E+00
      21     1     1     2   514   516 -2.630313392E+01 -9.301845369E+00 -6.110568820E+01  6.717353878E+01  6.743495762E-07  0.00000E+00  9.000E+00
      21     1     1     2   516   515  1.603614127E+01  1.084124502E+01 -2.633567524E+01  3.268421960E+01  3.371747881E-07  0.00000E+00  9.000E+00
      21     1     1     2   515   511  1.026699265E+01 -1.539399655E+00 -8.888372945E+00  1.366689661E+01  1.685873940E-07  0.00000E+00  9.000E+00
</event>
<event>
      5  10001  3.52971E+09  1.47620E+01 -1.00000E+00  1.78037E-01
       1    -1     0     0   515     0  0.000000000E+00  0.000000000E+00  1.445956884E+02  1.445956884E+02  0.000000000E+00  0.00000E+00  9.000E+00
      21    -1     0     0   512   513  0.000000000E+00  0.000000000E+00 -3.205277246E+01  3.205277246E+01  0.000000000E+00  0.00000E+00  9.000E+00
      21     1     1     2   515   513  3.607138072E+00 -1.286581096E+01 -2.954763670E+01  3.242843461E+01  4.768371582E-07  0.00000E+00  9.000E+00
       1     1     1     2   514     0  5.196627034E+00  1.474235485E+01  9.474103098E+01  9.602246513E+01  3.300000131E-01  0.00000E+00  9.000E+00
      21     1     1     2   512   514 -8.803765106E+00 -1.876543891E+00  4.734952164E+01  4.819756111E+01  0.000000000E+00  0.00000E+00  9.000E+00
</event>
<event>
      5  10001  3.52971E+09  4.37790E+00 -1.00000E+00  2.54554E-01
      21    -1     0     0   511   513  0.000000000E+00  0.000000000E+00  1.784028192E+02  1.784028192E+02  0.000000000E+00  0.00000E+00  9.000E+00
      21    -1     0     0   512   516  0.000000000E+00  0.000000000E+00 -7.675361827E+00  7.675361827E+00  0.000000000E+00  0.00000E+00  9.000E+00
      21     1     1     2   511   516 -3.179917588E+00 -1.199928137E+01 -2.260435719E+00  1.261761463E+01  6.536159575E-07  0.00000E+00  9.000E+00
      21     1     1     2   512   515 -4.527396552E-02  3.134292318E+00  5.888972904E+01  5.897309577E+01  9.536743164E-07  0.00000E+00  9.000E+00
      21     1     1     2   515   513  3.225191554E+00  8.864989051E+00  1.140981641E+02  1.144874707E+02  0.000000000E+00  0.00000E+00  9.000E+00
</event>
<event>
      5  10001  3.52971E+09  4.68579E+00 -1.00000E+00  2.48255E-01
      21    -1     0     0   514   512  0.000000000E+00  0.000000000E+00  4.214180203E+02  4.214180203E+02  0.000000000E+00  0.00000E+00  9.000E+00
      21    -1     0     0   513   514  0.000000000E+00  0.000000000E+00 -1.884404741E+00  1.884404741E+00  0.000000000E+00  0.00000E+00  9.000E+00
      21     1     1     2   513   517 -1.693433061E+00  1.095706654E+01  1.629546158E+01  1.970956851E+01  4.129530925E-07  0.00000E+00  9.000E+00
      21     1     1     2   511   512 -7.040362969E-01 -8.419652232E+00  3.800039200E+02  3.800978366E+02  5.394796609E-06  0.00000E+00  9.000E+00
      21     1     1     2   517   511  2.397469357E+00 -2.537414308E+00  2.323423398E+01  2.349501989E+01  0.000000000E+00  0.00000E+00  9.000E+00
</event>
<event>
      5  10001  3.52971E+09  5.41960E+00 -1.00000E+00  2.32554E-01
      21    -1     0     0   515   511  0.000000000E+00  0.000000000E+00  6.268731954E+02  6.268731954E+02  0.000000000E+00  0.00000E+00  9.000E+00
      21    -1     0     0   516   515  0.000000000E+00  0.000000000E+00 -9.884629464E+00  9.884629464E+00  0.000000000E+00  0.00000E+00  9.000E+00
      21     1     1     2   516   513 -1.783745891E+00  1.806259067E+01 -1.300321442E+00  1.819697137E+01  1.000044449E-06  0.00000E+00  9.000E+00
      21     1     1     2   513   512  8.718728060E-02 -2.470679909E+00  1.190475771E+02  1.190732442E+02  0.000000000E+00  0.00000E+00  9.000E+00
      21     1     1     2   512   511  1.696558610E+00 -1.559191076E+01  4.992413103E+02  4.994876093E+02  7.629394531E-06  0.00000E+00  9.000E+00
</event>
<event>
      5  10001  3.52971E+09  1.59296E+01 -1.00000E+00  1.74955E-01
      21    -1     0     0   512   511  0.000000000E+00  0.000000000E+00  1.096664948E+02  1.096664948E+02  0.000000000E+00  0.00000E+00  9.000E+00
      21    -1     0     0   511   514  0.000000000E+00  0.000000000E+00 -1.210877354E+00  1.210877354E+00  0.000000000E+00  0.00000E+00  9.000E+00
      21     1     1     2   513   514 -6.097621772E+00  8.780418198E+00  4.883401406E+01  4.999037571E+01  0.000000000E+00  0.00000E+00  9.000E+00
       3     1     1     2   512     0 -1.312760012E-01 -3.842967624E+00  2.849772176E+01  2.876031605E+01  5.000000000E-01  0.00000E+00  9.000E+00
      -3     1     1     2     0   513  6.228897773E+00 -4.937450574E+00  3.112388165E+01  3.212668041E+01  5.000000000E-01  0.00000E+00  9.000E+00
</event>
<event>
      5  10001  3.52971E+09  1.94314E+01 -1.00000E+00  1.67406E-01
      21    -1     0     0   515   514  0.000000000E+00  0.000000000E+00  2.820269221E+02  2.820269221E+02  0.000000000E+00  0.00000E+00  9.000E+00
      21    -1     0     0   511   515  0.000000000E+00  0.000000000E+00 -3.696926142E+00  3.696926142E+00  0.000000000E+00  0.00000E+00  9.000E+00
      21     1     1     2   511   513  2.268355123E+01 -2.069814492E+01  1.333736868E+02  1.368630594E+02  1.907348633E-06  0.00000E+00  9.000E+00
      21     1     1     2   513   512 -4.864744597E+00  9.255612602E+00  7.629128216E+01  7.700449233E+01  9.536743164E-07  0.00000E+00  9.000E+00
      21     1     1     2   512   514 -1.781880663E+01  1.144253232E+01  6.866502704E+01  7.185629655E+01  1.348699152E-06  0.00000E+00  9.000E+00
</event>
<event>
      5  10001  3.52971E+09  2.50194E+00 -1.00000E+00  3.23030E-01
      21    -1     0     0   516   515  0.000000000E+00  0.000000000E+00  1.724848887E+03  1.724848887E+03  0.000000000E+00  0.00000E+00  9.000E+00
      21    -1     0     0   511   514  0.000000000E+00  0.000000000E+00 -6.223406183E+00  6.223406183E+00  0.000000000E+00  0.00000E+00  9.000E+00
      21     1     1     2   516   514 -2.395279259E+00 -1.113530575E+01  1.064368701E+01  1.558911383E+01  3.371747881E-07  0.00000E+00  9.000E+00
      21     1     1     2   511   513 -3.664099822E-02  1.054754345E+01  3.667472369E+00  1.116702149E+01  1.397852826E-07  0.00000E+00  9.000E+00
      21     1     1     2   513   515  2.431920257E+00  5.877623010E-01  1.704314322E+03  1.704316158E+03  2.157918644E-05  0.00000E+00  9.000E+00
</event>
<event>
      5  10001  3.52971E+09  7.21725E+00 -1.00000E+00  2.13689E-01
      21    -1     0     0   514   513  0.000000000E+00  0.000000000E+00  1.664751277E+01  1.664751277E+01  0.000000000E+00  0.00000E+00  9.000E+00
      21    -1     0     0   515   512  0.000000000E+00  0.000000000E+00 -1.830919233E+02  1.830919233E+02  0.000000000E+00  0.00000E+00  9.000E+00
      21     1     1     2   511   513  1.429992116E+01  4.664182706E+00 -5.775752206E+01  5.968394843E+01  6.743495762E-07  0.00000E+00  9.000E+00
      21     1     1     2   515   511 -1.526547816E+01 -1.181655010E+01 -1.227445779E+02  1.242533584E+02  1.907348633E-06  0.00000E+00  9.000E+00
      21     1     1     2   514   512  9.655569967E-01  7.152367398E+00  1.405768936E+01  1.580212928E+01  4.460403188E-07  0.00000E+00  9.000E+00
</event>
<event>
      5  10001  3.52971E+09  5.26220E+00 -1.00000E+00  2.34695E-01
      21    -1     0     0   516   511  0.000000000E+00  0.000000000E+00  1.720652384E+02  1.720652384E+02  0.000000000E+00  0.00000E+00  9.000E+00
      21    -1     0     0   517   516  0.000000000E+00  0.000000000E+00 -2.029412936E+00  2.029412936E+00  0.000000000E+00  0.00000E+00  9.000E+00
      21     1     1     2   512   511 -1.443404602E+01  1.109511830E+00  1.362918917E+02  1.370585730E+02  1.907348633E-06  0.00000E+00  9.000E+00
      21     1     1     2   513   512  5.307847866E+00 -1.927656915E+00  8.734636606E+00  1.040110508E+01  1.192092896E-07  0.00000E+00  9.000E+00
      21     1     1     2   517   513  9.126198152E+00  8.181450856E-01  2.500929718E+01  2.663497324E+01  0.000000000E+00  0.00000E+00  9.000E+00
</event>
<event>
      5  10001  3.52971E+09  2.18204E+01 -1.00000E+00  1.63304E-01
      21    -1     0     0   514   512  0.000000000E+00  0.000000000E+00  3.286350536E+02  3.286350536E+02  0.000000000E+00  0.00000E+00  9.000E+00
      21    -1     0     0   515   514  0.000000000E+00  0.000000000E+00 -5.923516653E-01  5.923516653E-01  0.000000000E+00  0.00000E+00  9.000E+00
      21     1     1     2   513   512  8.438186668E+00 -4.067905543E+00  1.363910246E+02  1.367123347E+02  0.000000000E+00  0.00000E+00  9.000E+00
      21     1     1     2   515   511  4.137109489E-01  1.772231172E+00  1.429903773E+02  1.430019579E+02  2.697398305E-06  0.00000E+00  9.000E+00
      21     1     1     2   511   513 -8.851897617E+00  2.295674371E+00  4.866130006E+01  4.951311276E+01  1.651812370E-06  0.00000E+00  9.000E+00
</event>
<event>
      5  10001  3.52971E+09  5.99984E+00 -1.00000E+00  2.25467E-01
      21    -1     0     0   514   512  0.000000000E+00  0.000000000E+00  3.490446883E+02  3.490446883E+02  0.000000000E+00  0.00000E+00  9.000E+00
      21    -1     0     0   517   516  0.000000000E+00  0.000000000E+00 -2.022636593E+01  2.022636593E+01  0.000000000E+00  0.00000E+00  9.000E+00
      21     1     1     2   517   513 -7.201724507E+00 -3.246552206E+00 -1.916005001E+01  2.072468223E+01  6.743495762E-07  0.00000E+00  9.000E+00
      21     1     1     2   513   512  1.284578933E+01  5.281898516E+00  2.412413531E+02  2.416408558E+02  2.697398305E-06  0.00000E+00  9.000E+00
      21     1     1     2   514   516 -5.644064824E+00 -2.035346310E+00  1.067370194E+02  1.069055162E+02  1.348699152E-06  0.00000E+00  9.000E+00
</event>
<event>
      5  10001  3.52971E+09  1.32546E+01 -1.00000E+00  1.82595E-01
      21    -1     0     0   511   513  0.000000000E+00  0.000000000E+00  1.454759675E+01  1.454759675E+01  0.000000000E+00  0.00000E+00  9.000E+00
      21    -1     0     0   515   511  0.000000000E+00  0.000000000E+00 -4.217934911E+02  4.217934911E+02  0.000000000E+00  0.00000E+00  9.000E+00
      21     1     1     2   516   512 -1.027683288E+01  2.492741047E+00 -1.741017036E+01  2.037010270E+01  1.369610464E-06  0.00000E+00  9.000E+00
      21     1     1     2   515   516  1.099784983E+01  1.074224495E+01 -3.993559099E+02  3.996517125E+02  1.078959322E-05  0.00000E+00  9.000E+00
      21     1     1     2   512   513 -7.210169495E-01 -1.323498600E+01  9.520185917E+00  1.631927264E+01  8.172577143E-07  0.00000E+00  9.000E+00
</event>
<event>
      5  10001  3.52971E+09  1.97425E+01 -1.00000E+00  1.66832E-01
      21    -1     0     0   514   515  0.000000000E+00  0.000000000E+00  8.084584503E+01  8.084584503E+01  0.000000000E+00  0.00000E+00  9.000E+00
      21    -1     0     0   512   513  0.000000000E+00  0.000000000E+00 -3.341196284E+00  3.341196284E+00  0.000000000E+00  0.00000E+00  9.000E+00
      21     1     1     2   514   513 -1.603786288E+00  7.497246491E+00  1.352807467E+01  1.554958648E+01  0.000000000E+00  0.00000E+00  9.000E+00
      21     1     1     2   511   515  6.047549020E+00 -1.194317774E+01  1.910882157E+01  2.333151100E+01  3.371747881E-07  0.00000E+00  9.000E+00
      21     1     1     2   512   511 -4.443762731E+00  4.445931250E+00  4.486775251E+01  4.530594384E+01  4.768371582E-07  0.00000E+00  9.000E+00
</event>
<event>
      5  10001  3.52971E+09  6.43964E+00 -1.00000E+00  2.20800E-01
      21    -1     0     0   516   511  0.000000000E+00  0.000000000E+00  7.594415829E+00  7.594415829E+00  0.000000000E+00  0.00000E+00  9.000E+00
      21    -1     0     0   512   513  0.000000000E+00  0.000000000E+00 -6.616670286E+01  6.616670286E+01  0.000000000E+00  0.00000E+00  9.000E+00
      21     1     1     2   516   517  2.768444357E+00  1.077854856E+01 -9.586175244E-01  1.116961685E+01  8.752450440E-08  0.00000E+00  9.000E+00
      21     1     1     2   512   511 -8.149704763E+00 -7.241454212E+00 -1.083106931E+01  1.536777177E+01  2.384185791E-07  0.00000E+00  9.000E+00
      21     1     1     2   517   513  5.381260406E+00 -3.537094343E+00 -4.678260019E+01  4.722373006E+01  6.743495762E-07  0.00000E+00  9.000E+00
</event>
<event>
      5  10001  3.52971E+09  1.02468E+01 -1.00000E+00  1.94536E-01
      21    -1     0     0   514   511  0.000000000E+00  0.000000000E+00  6.171648003E+01  6.171648003E+01  0.000000000E+00  0.00000E+00  9.000E+00
      21    -1     0     0   511   513  0.000000000E+00  0.000000000E+00 -4.873193334E+00  4.873193334E+00  0.000000000E+00  0.00000E+00  9.000E+00
      -3     1     1     2     0   513  9.581283331E+00  5.530517755E+00  3.410432191E+00  1.158743564E+01  5.000000000E-01  0.00000E+00  9.000E+00
       3     1     1     2   512     0 -4.549494746E+00 -2.906963720E+00  1.182019441E+01  1.300443526E+01  5.000000000E-01  0.00000E+00  9.000E+00
      21     1     1     2   514   512 -5.031788585E+00 -2.623554034E+00  4.161266009E+01  4.199780246E+01  6.743495762E-07  0.00000E+00  9.000E+00
</event>
<event>
      5  10001  3.52971E+09  4.69128E+00 -1.00000E+00  2.48149E-01
       1    -1     0     0   513     0  0.000000000E+00  0.000000000E+00  2.437330268E+02  2.437330268E+02  0.000000000E+00  0.00000E+00  9.000E+00
      21    -1     0     0   511   513  0.000000000E+00  0.000000000E+00 -4.080543131E+00  4.080543131E+00  0.000000000E+00  0.00000E+00  9.000E+00
      21     1     1     2   512   514 -1.624777296E+01 -1.296904068E+01  4.148673455E+01  4.640404386E+01  1.581489940E-06  0.00000E+00  9.000E+00
       1     1     1     2   514     0  1.321588108E+01  9.389323425E+00  1.951722180E+02  1.958446386E+02  3.300000131E-01  0.00000E+00  9.000E+00
      21     1     1     2   511   512  3.031891877E+00  3.579717253E+00  2.993531195E+00  5.564887509E+00  1.115100797E-07  0.00000E+00  9.000E+00
</event>
<event>
      5  10001  3.52971E+09  5.35495E+00 -1.00000E+00  2.33421E-01
      21    -1     0     0   515   512  0.000000000E+00  0.000000000E+00  3.485613593E+00  3.485613593E+00  0.000000000E+00  0.00000E+00  9.000E+00
      21    -1     0     0   511   513  0.000000000E+00  0.000000000E+00 -8.088759364E+01  8.088759364E+01  0.000000000E+00  0.00000E+00  9.000E+00
      21     1     1     2   516   512 -7.650904287E+00  3.275178615E+00 -5.706759826E+00  1.009109702E+01  1.192092896E-07  0.00000E+00  9.000E+00
      21     1     1     2   511   516  1.267037398E+01 -5.140758178E+00 -4.406387639E+01  4.613665543E+01  4.768371582E-07  0.00000E+00  9.000E+00
      21     1     1     2   515   513 -5.019469696E+00  1.865579563E+00 -2.763134383E+01  2.814545479E+01  3.371747881E-07  0.00000E+00  9.000E+00
</event>
<event>
      5  10001  3.52971E+09  1.17319E+01 -1.00000E+00  1.88061E-01
      -1    -1     0     0     0   514  0.000000000E+00  0.000000000E+00  2.033622346E+01  2.033622346E+01  0.000000000E+00  0.00000E+00  9.000E+00
      21    -1     0     0   515   513  0.000000000E+00  0.000000000E+00 -4.138322067E+01  4.138322067E+01  0.000000000E+00  0.00000E+00  9.000E+00
      -1     1     1     2     0   511 -1.778481207E+01 -7.846165488E+00  7.110850165E-01  1.945446980E+01  3.300000131E-01  0.00000E+00  9.000E+00
      21     1     1     2   515   514  2.526428627E+01  5.873480850E-01 -1.858726401E+01  3.137061558E+01  3.371747881E-07  0.00000E+00  9.000E+00
      21     1     1     2   511   513 -7.479474202E+00  7.258817403E+00 -3.170818209E+00  1.089435875E+01  1.976862425E-07  0.00000E+00  9.000E+00
</event>
<event>
      5  10001  3.52971E+09  5.28548E+00 -1.00000E+00  2.34372E-01
      21    -1     0     0   512   514  0.000000000E+00  0.000000000E+00  8.925105282E+00  8.925105282E+00  0.000000000E+00  0.00000E+00  9.000E+00
       1    -1     0     0   511     0  0.000000000E+00  0.000000000E+00 -6.860126986E+02  6.860126986E+02  0.000000000E+00  0.00000E+00  9.000E+00
      21     1     1     2   515   514  1.073317502E+01 -8.703547646E+00  1.632009942E+00  1.391460542E+01  5.515442945E-07  0.00000E+00  9.000E+00
       1     1     1     2   512     0 -9.227998865E+00  5.680693650E+00 -6.772560532E+02  6.773428207E+02  3.300000131E-01  0.00000E+00  9.000E+00
      21     1     1     2   511   515 -1.505176150E+00  3.022853995E+00 -1.463550004E+00  3.680377716E+00  1.490116119E-07  0.00000E+00  9.000E+00
</event>
<event>
      5  10001  3.52971E+09  4.01995E+00 -1.00000E+00  2.62954E-01
       3    -1     0     0   511     0  0.000000000E+00  0.000000000E+00  3.693670583E+01  3.693670583E+01  0.000000000E+00  0.00000E+00  9.000E+00
       3    -1     0     0   513     0  0.000000000E+00  0.000000000E+00 -4.532650835E+01  4.532650835E+01  0.000000000E+00  0.00000E+00  9.000E+00
       3     1     1     2   511     0  6.673890762E+00 -8.799249830E+00 -4.286177045E+01  4.426453413E+01  5.000000000E-01  0.00000E+00  9.000E+00
       3     1     1     2   512     0 -2.978100521E+00  9.058205318E+00  3.234886399E+01  3.372861052E+01  5.000000000E-01  0.00000E+00  9.000E+00
      21     1     1     2   513   512 -3.695790241E+00 -2.589554880E-01  2.123103950E+00  4.270069535E+00  2.980232239E-08  0.00000E+00  9.000E+00
</event>
<event>
      5  10001  3.52971E+09  5.58864E+00 -1.00000E+00  2.30365E-01
      21    -1     0     0   514   515  0.000000000E+00  0.000000000E+00  2.511629466E+02  2.511629466E+02  0.000000000E+00  0.00000E+00  9.000E+00
      21    -1     0     0   513   514  0.000000000E+00  0.000000000E+00 -1.649532166E+02  1.649532166E+02  0.000000000E+00  0.00000E+00  9.000E+00
      21     1     1     2   512   515  1.453195120E+01 -9.223203398E+00  2.503669913E+02  2.509579157E+02  0.000000000E+00  0.00000E+00  9.000E+00
      21     1     1     2   513   511 -5.682069845E+00  2.541850558E+00 -8.506477504E+01  8.529222049E+01  2.697398305E-06  0.00000E+00  9.000E+00
      21     1     1     2   511   512 -8.849881360E+00  6.681352840E+00 -7.909248634E+01  7.986602702E+01  1.907348633E-06  0.00000E+00  9.000E+00
</event>
<event>
      5  10001  3.52971E+09  7.48542E+00 -1.00000E+00  2.11513E-01
      21    -1     0     0   516   513  0.000000000E+00  0.000000000E+00  2.215951787E+01  2.215951787E+01  0.000000000E+00  0.00000E+00  9.000E+00
      21    -1     0     0   517   514  0.000000000E+00  0.000000000E+00 -1.064854044E+02  1.064854044E+02  0.000000000E+00  0.00000E+00  9.000E+00
      21     1     1     2   517   512 -4.999740557E+00 -7.424500893E+00 -2.796239966E+01  2.936011604E+01  4.768371582E-07  0.00000E+00  9.000E+00
      21     1     1     2   512   513  3.745224180E+00  1.480404722E+01  1.853383316E+01  2.401436008E+01  4.129530925E-07  0.00000E+00  9.000E+00
      21     1     1     2   516   514  1.254516377E+00 -7.379546326E+00 -7.489732004E+01  7.527044616E+01  9.536743164E-07  0.00000E+00  9.000E+00
</event>
<event>
      5  10001  3.52971E+09  4.35223E+00 -1.00000E+00  2.55115E-01
      21    -1     0     0   513   512  0.000000000E+00  0.000000000E+00  5.652604854E+00  5.652604854E+00  0.000000000E+00  0.00000E+00  9.000E+00
      21    -1     0     0   517   515  0.000000000E+00  0.000000000E+00 -8.596127393E+01  8.596127393E+01  0.000000000E+00  0.00000E+00  9.000E+00
      21     1     1     2   511   515 -6.134040761E+00  1.025050347E+01 -7.655164428E+01  7.747808413E+01  9.536743164E-07  0.00000E+00  9.000E+00
      21     1     1     2   517   512  2.186570702E+00 -8.417633693E+00 -4.382602441E+00  9.738832198E+00  2.731427965E-07  0.00000E+00  9.000E+00
      21     1     1     2   513   511  3.947470059E+00 -1.832869780E+00  6.255776466E-01  4.396962461E+00  1.377853901E-07  0.00000E+00  9.000E+00
</event>
<event>
      5  10001  3.52971E+09  4.48520E+00 -1.00000E+00  2.52272E-01
       2    -1     0     0   511     0  0.000000000E+00  0.000000000E+00  2.295191899E+02  2.295191899E+02  0.000000000E+00  0.00000E+00  9.000E+00
      21    -1     0     0   514   511  0.000000000E+00  0.000000000E+00 -7.579425263E+00  7.579425263E+00  0.000000000E+00  0.00000E+00  9.000E+00
      21     1     1     2   512   513  2.063324829E+00  6.561062514E+00 -2.920971726E+00  7.472411022E+00  3.345302391E-07  0.00000E+00  9.000E+00
       2     1     1     2   513     0 -7.154557310E+00 -8.025488065E+00  2.240011391E+02  2.242592592E+02  3.300000131E-01  0.00000E+00  9.000E+00
      21     1     1     2   514   512  5.091232481E+00  1.464425551E+00  8.595973229E-01  5.366944934E+00  1.120067863E-07  0.00000E+00  9.000E+00
</event>
<event>
      5  10001  3.52971E+09  5.23540E+00 -1.00000E+00  2.35071E-01
       5    -1     0     0   513     0  0.000000000E+00  0.000000000E+00  4.270234382E+00  4.270234382E+00  0.000000000E+00  0.00000E+00  9.000E+00
      21    -1     0     0   515   511  0.000000000E+00  0.000000000E+00 -5.594975390E+01  5.594975390E+01  0.000000000E+00  0.00000E+00  9.000E+00
      21     1     1     2   516   511  9.193735903E+00  2.691313945E+00 -2.463731567E+01  2.643416868E+01  0.000000000E+00  0.00000E+00  9.000E+00
       5     1     1     2   515     0 -1.059980850E+01 -7.789651886E+00 -1.441806665E+01  2.009863837E+01  4.800000191E+00  0.00000E+00  9.000E+00
      21     1     1     2   513   516  1.406072594E+00  5.098337941E+00 -1.262413721E+01  1.368718123E+01  1.685873940E-07  0.00000E+00  9.000E+00
</event>
<event>
      5  10001  3.52971E+09  6.47410E+00 -1.00000E+00  2.20456E-01
      21    -1     0     0   512   511  0.000000000E+00  0.000000000E+00  2.913089123E+00  2.913089123E+00  0.000000000E+00  0.00000E+00  9.000E+00
      21    -1     0     0   516   514  0.000000000E+00  0.000000000E+00 -6.757161936E+01  6.757161936E+01  0.000000000E+00  0.00000E+00  9.000E+00
      21     1     1     2   512   514 -1.164829402E+00  9.827156370E+00 -5.221200478E+01  5.314153999E+01  6.743495762E-07  0.00000E+00  9.000E+00
      21     1     1     2   515   511 -1.047994158E+00 -3.449499938E+00 -5.252487841E-01  3.643244140E+00  1.240023745E-07  0.00000E+00  9.000E+00
      21     1     1     2   516   515  2.212823560E+00 -6.377656433E+00 -1.192127667E+01  1.369992435E+01  1.685873940E-07  0.00000E+00  9.000E+00
</event>
<event>
      5  10001  3.52971E+09  7.10261E+00 -1.00000E+00  2.14659E-01
      21    -1     0     0   513   511  0.000000000E+00  0.000000000E+00  1.421044191E+02  1.421044191E+02  0.000000000E+00  0.00000E+00  9.000E+00
      21    -1     0     0   516   517  0.000000000E+00  0.000000000E+00 -8.925395373E+01  8.925395373E+01  0.000000000E+00  0.00000E+00  9.000E+00
      21     1     1     2   513   517 -7.435089124E+00  7.488612959E+00  3.103422148E+01  3.277930410E+01  8.259061849E-07  0.00000E+00  9.000E+00
      21     1     1     2   516   514  1.439322398E+01 -6.063310954E+00 -8.757535465E+01  8.895713225E+01  1.907348633E-06  0.00000E+00  9.000E+00
      21     1     1     2   514   511 -6.958134854E+00 -1.425302005E+00  1.093915985E+02  1.096219365E+02  1.348699152E-06  0.00000E+00  9.000E+00
</event>
<event>
      5  10001  3.52971E+09  3.52442E+00 -1.00000E+00  2.77125E-01
      21    -1     0     0   512   511  0.000000000E+00  0.000000000E+00  2.343688430E+02  2.343688430E+02  0.000000000E+00  0.00000E+00  9.000E+00
       2    -1     0     0   514     0  0.000000000E+00  0.000000000E+00 -1.044879200E+00  1.044879200E+00  0.000000000E+00  0.00000E+00  9.000E+00
      21     1     1     2   513   511  3.515959092E+00 -2.386411232E+00  1.147103128E+02  1.147889924E+02  1.907348633E-06  0.00000E+00  9.000E+00
       2     1     1     2   512     0 -6.973108294E+00  7.461921022E+00  2.805228549E+01  2.985538689E+01  3.300000131E-01  0.00000E+00  9.000E+00
      21     1     1     2   514   513  3.457149202E+00 -5.075509790E+00  9.056136548E+01  9.076934283E+01  1.348699152E-06  0.00000E+00  9.000E+00
</event>
<event>
      5  10001  3.52971E+09  4.60404E+00 -1.00000E+00  2.49855E-01
      21    -1     0     0   515   514  0.000000000E+00  0.000000000E+00  5.070714501E+01  5.070714501E+01  0.000000000E+00  0.00000E+00  9.000E+00
      21    -1     0     0   511   513  0.000000000E+00  0.000000000E+00 -6.731359747E+00  6.731359747E+00  0.000000000E+00  0.00000E+00  9.000E+00
      21     1     1     2   515   513  8.767554911E+00 -9.404675936E+00  3.873282760E+01  4.081114900E+01  0.000000000E+00  0.00000E+00  9.000E+00
      21     1     1     2   512   514 -6.136054389E+00  1.107368509E+01  4.333276655E+00  1.338114164E+01  4.655271575E-07  0.00000E+00  9.000E+00
      21     1     1     2   511   512 -2.631500522E+00 -1.669009156E+00  9.096810035E-01  3.246214117E+00  7.450580597E-08  0.00000E+00  9.000E+00
</event>
<event>
      5  10001  3.52971E+09  4.72460E+00 -1.00000E+00  2.47513E-01
      21    -1     0     0   516   514  0.000000000E+00  0.000000000E+00  8.941709643E+01  8.941709643E+01  0.000000000E+00  0.00000E+00  9.000E+00
      21    -1     0     0   511   516  0.000000000E+00  0.000000000E+00 -1.361908005E+01  1.361908005E+01  0.000000000E+00  0.00000E+00  9.000E+00
      21     1     1     2   512   514 -9.417811971E+00 -1.473605369E+01  8.101100526E+01  8.287719490E+01  1.348699152E-06  0.00000E+00  9.000E+00
      21     1     1     2   513   512  6.926505697E+00  8.424886589E+00 -7.224053511E+00  1.308213073E+01  5.264139692E-07  0.00000E+00  9.000E+00
      21     1     1     2   511   513  2.491306273E+00  6.311167100E+00  2.011064633E+00  7.076850858E+00  1.812804499E-07  0.00000E+00  9.000E+00
</event>
<event>
      5  10001  3.52971E+09  1.15780E+00 -1.00000E+00  5.56622E-01
       4    -1     0     0   511     0  0.000000000E+00  0.000000000E+00  1.213852884E+00  1.213852884E+00  0.000000000E+00  0.00000E+00  9.000E+00
      21    -1     0     0   515   513  0.000000000E+00  0.000000000E+00 -1.299206527E+02  1.299206527E+02  0.000000000E+00  0.00000E+00  9.000E+00
      21     1     1     2   511   512 -5.461339983E+00 -1.555804214E+00 -4.877472184E+01  4.910417754E+01  9.536743164E-07  0.00000E+00  9.000E+00
       4     1     1     2   515     0  1.051597878E+01  4.051763447E+00 -3.638335975E+01  3.811825630E+01  1.500000000E+00  0.00000E+00  9.000E+00
      21     1     1     2   512   513 -5.054638795E+00 -2.495959233E+00 -4.354871824E+01  4.391207176E+01  6.743495762E-07  0.00000E+00  9.000E+00
</event>
<event>
      5  10001  3.52971E+09  4.59555E+00 -1.00000E+00  2.50024E-01
      -2    -1     0     0     0   514  0.000000000E+00  0.000000000E+00  3.779422780E+02  3.779422780E+02  0.000000000E+00  0.00000E+00  9.000E+00
      21    -1     0     0   511   513  0.000000000E+00  0.000000000E+00 -1.984095737E+00  1.984095737E+00  0.000000000E+00  0.00000E+00  9.000E+00
      -2     1     1     2     0   513 -3.476698549E+00  1.141521539E+01  3.560225263E+02  3.562226028E+02  3.300000131E-01  0.00000E+00  9.000E+00
      21     1     1     2   515   514  5.280283010E-01 -4.107607684E+00  3.297357644E+00  5.293753130E+00  3.424026159E-07  0.00000E+00  9.000E+00
      21     1     1     2   511   515  2.948670248E+00 -7.307607704E+00  1.663829831E+01  1.841001785E+01  2.384185791E-07  0.00000E+00  9.000E+00
</event>
<event>
      5  10001  3.52971E+09  6.13136E+00 -1.00000E+00  2.24015E-01
       2    -1     0     0   513     0  0.000000000E+00  0.000000000E+00  6.732355742E+02  6.732355742E+02  0.000000000E+00  0.00000E+00  9.000E+00
      21    -1     0     0   514   513  0.000000000E+00  0.000000000E+00 -8.896218485E+00  8.896218485E+00  0.000000000E+00  0.00000E+00  9.000E+00
      21     1     1     2   515   512 -1.366682333E+00 -7.816390876E+00  3.900649631E+01  3.980540844E+01  3.631483605E-06  0.00000E+00  9.000E+00
       2     1     1     2   512     0  2.477747104E+00  1.384620894E+01  6.326350207E+02  6.327914626E+02  3.300000131E-01  0.00000E+00  9.000E+00
      21     1     1     2   514   515 -1.111064771E+00 -6.029818062E+00 -7.302161346E+00  9.534921663E+00  1.042655449E-06  0.00000E+00  9.000E+00
</event>
<event>
      5  10001  3.52971E+09  1.41730E+01 -1.00000E+00  1.79732E-01
      21    -1     0     0   514   515  0.000000000E+00  0.000000000E+00  1.440084382E+02  1.440084382E+02  0.000000000E+00  0.00000E+00  9.000E+00
      -1    -1     0     0     0   511  0.000000000E+00  0.000000000E+00 -8.438702744E-01  8.438702744E-01  0.000000000E+00  0.00000E+00  9.000E+00
      -1     1     1     2     0   515 -5.170180461E+00  4.184375385E+00  5.267566892E+01  5.309495983E+01  3.300000131E-01  0.00000E+00  9.000E+00
      -1     1     1     2     0   511  2.150472776E+00  3.649095809E-01  1.661654574E+00  2.761826949E+00  3.300000131E-01  0.00000E+00  9.000E+00
       1     1     1     2   514     0  3.019707685E+00 -4.549284965E+00  8.882724446E+01  8.899552172E+01  3.300000131E-01  0.00000E+00  9.000E+00
</event>
<event>
      5  10001  3.52971E+09  7.13368E+00 -1.00000E+00  2.14393E-01
      21    -1     0     0   513   515  0.000000000E+00  0.000000000E+00  3.137822326E+00  3.137822326E+00  0.000000000E+00  0.00000E+00  9.000E+00
       1    -1     0     0   515     0  0.000000000E+00  0.000000000E+00 -5.011146413E+01  5.011146413E+01  0.000000000E+00  0.00000E+00  9.000E+00
      21     1     1     2   513   512  6.932759476E+00  7.607124556E+00 -9.445775259E+00  1.396975906E+01  0.000000000E+00  0.00000E+00  9.000E+00
      21     1     1     2   512   511 -3.141531581E-01 -3.148266646E+00 -1.617863111E+01  1.648509568E+01  2.384185791E-07  0.00000E+00  9.000E+00
       1     1     1     2   511     0 -6.618606318E+00 -4.458857909E+00 -2.134923544E+01  2.279443172E+01  3.300000131E-01  0.00000E+00  9.000E+00
</event>
<event>
      5  10001  3.52971E+09  7.95672E+00 -1.00000E+00  2.07974E-01
       1    -1     0     0   513     0  0.000000000E+00  0.000000000E+00  7.781790451E+02  7.781790451E+02  0.000000000E+00  0.00000E+00  9.000E+00
      21    -1     0     0   514   513  0.000000000E+00  0.000000000E+00 -7.693809159E+00  7.693809159E+00  0.000000000E+00  0.00000E+00  9.000E+00
      21     1     1     2   512   511 -6.870359217E+00  6.101797309E+00  7.750433360E+01  7.804713635E+01  2.861022949E-06  0.00000E+00  9.000E+00
       1     1     1     2   511     0  2.062583499E+00 -1.244167689E+01  6.981974750E+02  6.983114438E+02  3.300000131E-01  0.00000E+00  9.000E+00
      21     1     1     2   514   512  4.807775718E+00  6.339879585E+00 -5.216572678E+00  9.514274066E+00  4.172325134E-07  0.00000E+00  9.000E+00
</event>
<event>
      5  10001  3.52971E+09  1.06539E+01 -1.00000E+00  1.92625E-01
      21    -1     0     0   514   515  0.000000000E+00  0.000000000E+00  1.669263326E+02  1.669263326E+02  0.000000000E+00  0.00000E+00  9.000E+00
       3    -1     0     0   511     0  0.000000000E+00  0.000000000E+00 -8.541577822E+01  8.541577822E+01  0.000000000E+00  0.00000E+00  9.000E+00
      21     1     1     2   511   513 -1.098066208E+01 -2.977984402E+00  6.542239410E+01  6.640431447E+01  9.536743164E-07  0.00000E+00  9.000E+00
       3     1     1     2   514     0  2.650127931E+01 -3.168127926E+00 -8.210509458E+01  8.633569016E+01  5.000000000E-01  0.00000E+00  9.000E+00
      21     1     1     2   513   515 -1.552061723E+01  6.146112328E+00  9.819325491E+01  9.960210623E+01  0.000000000E+00  0.00000E+00  9.000E+00
</event>
<event>
      5  10001  3.52971E+09  2.11208E+01 -1.00000E+00  1.64436E-01
      21    -1     0     0   512   513  0.000000000E+00  0.000000000E+00  2.256089401E+02  2.256089401E+02  0.000000000E+00  0.00000E+00  9.000E+00
      21    -1     0     0   515   512  0.000000000E+00  0.000000000E+00 -7.829327693E+00  7.829327693E+00  0.000000000E+00  0.00000E+00  9.000E+00
      21     1     1     2   515   511  6.581726193E+00  5.876049161E+00 -3.936997455E+00  9.661626281E+00  2.795705652E-07  0.00000E+00  9.000E+00
      21     1     1     2   514   513  8.076556241E+00 -2.814277305E+00  1.614894794E+02  1.617158090E+02  1.907348633E-06  0.00000E+00  9.000E+00
      21     1     1     2   511   514 -1.465828243E+01 -3.061771856E+00  6.022713049E+01  6.206083256E+01  6.743495762E-07  0.00000E+00  9.000E+00
</event>
<event>
      5  10001  3.52971E+09  2.48368E+01 -1.00000E+00  1.58961E-01
      21    -1     0     0   516   514  0.000000000E+00  0.000000000E+00  3.530169088E+02  3.530169088E+02  0.000000000E+00  0.00000E+00  9.000E+00
      21    -1     0     0   511   517  0.000000000E+00  0.000000000E+00 -4.648666026E-01  4.648666026E-01  0.000000000E+00  0.00000E+00  9.000E+00
      21     1     1     2   516   517  2.256812582E+00 -6.721156764E+00  5.078129137E+01  5.127384035E+01  9.536743164E-07  0.00000E+00  9.000E+00
      21     1     1     2   512   514  3.075833063E+00 -2.277344071E+00  3.101832845E+01  3.125353972E+01  5.840038640E-07  0.00000E+00  9.000E+00
      21     1     1     2   511   512 -5.332645644E+00  8.998500835E+00  2.707524224E+02  2.709543953E+02  3.814697266E-06  0.00000E+00  9.000E+00
</event>
<event>
      5  10001  3.52971E+09  4.83202E+00 -1.00000E+00  2.45513E-01
      21    -1     0     0   513   512  0.000000000E+00  0.000000000E+00  1.145735174E+00  1.145735174E+00  0.000000000E+00  0.00000E+00  9.000E+00
      21    -1     0     0   511   515  0.000000000E+00  0.000000000E+00 -1.516649425E+02  1.516649425E+02  0.000000000E+00  0.00000E+00  9.000E+00
      21     1     1     2   513   515  3.699931807E-01 -9.750846972E+00 -2.570376366E+01  2.749362431E+01  3.371747881E-07  0.00000E+00  9.000E+00
      21     1     1     2   511   514 -2.483777668E+00  4.620073434E+00 -7.750272514E+01  7.768002726E+01  1.348699152E-06  0.00000E+00  9.000E+00
      21     1     1     2   514   512  2.113784487E+00  5.130773538E+00 -4.731271850E+01  4.763702609E+01  0.000000000E+00  0.00000E+00  9.000E+00
</event>
<event>
      5  10001  3.52971E+09  4.62216E+00 -1.00000E+00  2.49496E-01
      21    -1     0     0   513   511  0.000000000E+00  0.000000000E+00  1.434345108E+01  1.434345108E+01  0.000000000E+00  0.00000E+00  9.000E+00
      21    -1     0     0   512   516  0.000000000E+00  0.000000000E+00 -1.157121920E+02  1.157121920E+02  0.000000000E+00  0.00000E+00  9.000E+00
      21     1     1     2   512   517  1.722217201E+00  2.727428078E+01 -9.704517133E+01  1.008197287E+02  0.000000000E+00  0.00000E+00  9.000E+00
      21     1     1     2   517   511 -4.279399146E+00 -2.342393162E+01 -5.558130585E+00  2.445172070E+01  5.559551151E-07  0.00000E+00  9.000E+00
      21     1     1     2   513   516  2.557181945E+00 -3.850349153E+00  1.234560987E+00  4.784193655E+00  4.712160915E-08  0.00000E+00  9.000E+00
</event>
<event>
      5  10001  3.52971E+09  1.96000E+01 -1.00000E+00  1.67093E-01
      21    -1     0     0   514   516  0.000000000E+00  0.000000000E+00  2.582685794E-01  2.582685794E-01  0.000000000E+00  0.00000E+00  9.000E+00
      21    -1     0     0   512   515  0.000000000E+00  0.000000000E+00 -4.805885013E+02  4.805885013E+02  0.000000000E+00  0.00000E+00  9.000E+00
      21     1     1     2   514   515  2.200722027E+00 -1.985744874E+00 -8.203033726E+01  8.208387534E+01  0.000000000E+00  0.00000E+00  9.000E+00
      21     1     1     2   512   511 -7.965625154E-01  1.897231049E+00 -3.963660853E+02  3.963714263E+02  7.629394531E-06  0.00000E+00  9.000E+00
      21     1     1     2   511   516 -1.404159512E+00  8.851382559E-02 -1.933810112E+00  2.391468206E+00  3.810737089E-07  0.00000E+00  9.000E+00
</event>
<event>
      5  10001  3.52971E+09  9.96064E+00 -1.00000E+00  1.95951E-01
      21    -1     0     0   513   512  0.000000000E+00  0.000000000E+00  4.121907161E+01  4.121907161E+01  0.000000000E+00  0.00000E+00  9.000E+00
      21    -1     0     0   516   513  0.000000000E+00  0.000000000E+00 -1.297046329E+02  1.297046329E+02  0.000000000E+00  0.00000E+00  9.000E+00
      21     1     1     2   516   517  2.135490368E+01  2.361763537E-01 -1.248874626E+02  1.267003000E+02  1.348699152E-06  0.00000E+00  9.000E+00
      21     1     1     2   514   512 -1.603073700E+01 -6.008726289E+00  2.271980400E+01  2.844782618E+01  1.215700987E-06  0.00000E+00  9.000E+00
      21     1     1     2   517   514 -5.324166679E+00  5.772549936E+00  1.368209737E+01  1.577557834E+01  3.371747881E-07  0.00000E+00  9.000E+00
</event>
<event>
      5  10001  3.52971E+09  5.04087E+00 -1.00000E+00  2.37893E-01
      21    -1     0     0   511   514  0.000000000E+00  0.000000000E+00  3.182655801E+00  3.182655801E+00  0.000000000E+00  0.00000E+00  9.000E+00
      21    -1     0     0   512   511  0.000000000E+00  0.000000000E+00 -2.263033453E+02  2.263033453E+02  0.000000000E+00  0.00000E+00  9.000E+00
      21     1     1     2   515   516 -8.381870331E+00  6.491357159E+00 -1.029633110E+02  1.035076658E+02  2.697398305E-06  0.00000E+00  9.000E+00
      21     1     1     2   516   514  4.292693367E+00 -9.439069153E+00 -6.562138336E+00  1.227130402E+01  1.460009660E-07  0.00000E+00  9.000E+00
      21     1     1     2   512   515  4.089176964E+00  2.947711994E+00 -1.135952402E+02  1.137070313E+02  1.907348633E-06  0.00000E+00  9.000E+00
</event>
<event>
      5  10001  3.52971E+09  3.53301E+00 -1.00000E+00  2.76847E-01
      21    -1     0     0   513   516  0.000000000E+00  0.000000000E+00  8.291950552E+01  8.291950552E+01  0.000000000E+00  0.00000E+00  9.000E+00
      21    -1     0     0   512   513  0.000000000E+00  0.000000000E+00 -1.739867652E+00  1.739867652E+00  0.000000000E+00  0.00000E+00  9.000E+00
      21     1     1     2   512   515 -1.128793525E+01  1.578503961E+00  4.166263112E+01  4.319356420E+01  0.000000000E+00  0.00000E+00  9.000E+00
      21     1     1     2   515   511  7.955823272E+00 -3.509587331E+00  2.832855052E+01  2.963307446E+01  0.000000000E+00  0.00000E+00  9.000E+00
      21     1     1     2   511   516  3.332111979E+00  1.931083370E+00  1.118845624E+01  1.183273452E+01  1.192092896E-07  0.00000E+00  9.000E+00
</event>
<event>
      5  10001  3.52971E+09  1.68567E+01 -1.00000E+00  1.72735E-01
      21    -1     0     0   514   512  0.000000000E+00  0.000000000E+00  3.125674543E+01  3.125674543E+01  0.000000000E+00  0.00000E+00  9.000E+00
      21    -1     0     0   516   514  0.000000000E+00  0.000000000E+00 -6.286098870E+01  6.286098870E+01  0.000000000E+00  0.00000E+00  9.000E+00
      21     1     1     2   517   511  1.415099233E+01  1.222685915E+01 -1.289171982E+01  2.271438109E+01  5.840038640E-07  0.00000E+00  9.000E+00
      21     1     1     2   516   517  2.614662667E+00 -1.047757092E+01 -4.159972513E+01  4.297851887E+01  1.066240300E-06  0.00000E+00  9.000E+00
      21     1     1     2   511   512 -1.676565499E+01 -1.749288231E+00  2.288720168E+01  2.842483417E+01  4.768371582E-07  0.00000E+00  9.000E+00
</event>
<event>
      5  10001  3.52971E+09  1.42921E+01 -1.00000E+00  1.79381E-01
      21    -1     0     0   513   511  0.000000000E+00  0.000000000E+00  1.526324582E+01  1.526324582E+01  0.000000000E+00  0.00000E+00  9.000E+00
      21    -1     0     0   512   513  0.000000000E+00  0.000000000E+00 -1.459911864E+02  1.459911864E+02  0.000000000E+00  0.00000E+00  9.000E+00
      21     1     1     2   512   515 -3.412179244E+00 -1.220931722E+01 -1.415148827E+02  1.420815696E+02  1.907348633E-06  0.00000E+00  9.000E+00
      21     1     1     2   514   511  3.977693353E+00  6.697220610E+00  9.028326221E-01  7.841550552E+00  1.928534971E-07  0.00000E+00  9.000E+00
      21     1     1     2   515   514 -5.655141092E-01  5.512096611E+00  9.884109439E+00  1.133131213E+01  4.129530925E-07  0.00000E+00  9.000E+00
</event>
<event>
      5  10001  3.52971E+09  9.95220E+00 -1.00000E+00  1.95993E-01
       1    -1     0     0   514     0  0.000000000E+00  0.000000000E+00  1.606293396E+02  1.606293396E+02  0.000000000E+00  0.00000E+00  9.000E+00
      21    -1     0     0   516   513  0.000000000E+00  0.000000000E+00 -7.003810857E+00  7.003810857E+00  0.000000000E+00  0.00000E+00  9.000E+00
      21     1     1     2   514   513 -1.181487179E+01  1.128034551E+01  5.021371082E+00  1.708951602E+01  8.429369702E-08  0.00000E+00  9.000E+00
       1     1     1     2   511     0  1.138599220E+01 -2.906898490E+00  1.238790130E+02  1.244355642E+02  3.300000131E-01  0.00000E+00  9.000E+00
      21     1     1     2   516   511  4.288795844E-01 -8.373447020E+00  2.472514466E+01  2.610807023E+01  0.000000000E+00  0.00000E+00  9.000E+00
</event>
<event>
      5  10001  3.52971E+09  1.45742E+01 -1.00000E+00  1.78566E-01
      -1    -1     0     0     0   512  0.000000000E+00  0.000000000E+00  7.768127035E+01  7.768127035E+01  0.000000000E+00  0.00000E+00  9.000E+00
      21    -1     0     0   514   511  0.000000000E+00  0.000000000E+00 -1.923130950E+01  1.923130950E+01  0.000000000E+00  0.00000E+00  9.000E+00
      21     1     1     2   513   511 -2.689803756E+00  7.975839653E+00 -1.256412896E+01  1.512304199E+01  7.152557373E-07  0.00000E+00  9.000E+00
      21     1     1     2   514   512 -8.046939610E+00 -5.379341037E+00  7.002874864E+01  7.069452725E+01  1.651812370E-06  0.00000E+00  9.000E+00
      -1     1     1     2     0   513  1.073674337E+01 -2.596498615E+00  9.853411722E-01  1.109501061E+01  3.300000131E-01  0.00000E+00  9.000E+00
</event>
<event>
      5  10001  3.52971E+09  6.46617E+00 -1.00000E+00  2.20535E-01
      21    -1     0     0   515   511  0.000000000E+00  0.000000000E+00  3.525660799E+02  3.525660799E+02  0.000000000E+00  0.00000E+00  9.000E+00
      21    -1     0     0   516   515  0.000000000E+00  0.000000000E+00 -6.040833958E-01  6.040833958E-01  0.000000000E+00  0.00000E+00  9.000E+00
      21     1     1     2   516   513 -5.471002591E+00 -9.288876265E+00  6.020246026E+01  6.116004670E+01  6.743495762E-07  0.00000E+00  9.000E+00
      21     1     1     2   512   511  3.559385229E+00  4.953985283E+00  9.620621306E+01  9.639941195E+01  0.000000000E+00  0.00000E+00  9.000E+00
      21     1     1     2   513   512  1.911617361E+00  4.334890981E+00  1.955533231E+02  1.956107046E+02  0.000000000E+00  0.00000E+00  9.000E+00
</event>
<event>
      5  10001  3.52971E+09  7.91536E+00 -1.00000E+00  2.08271E-01
      21    -1     0     0   514   512  0.000000000E+00  0.000000000E+00  7.291926247E+00  7.291926247E+00  0.000000000E+00  0.00000E+00  9.000E+00
      21    -1     0     0   517   514  0.000000000E+00  0.000000000E+00 -2.731279681E+01  2.731279681E+01  0.000000000E+00  0.00000E+00  9.000E+00
      21     1     1     2   517   516 -3.425419004E+00  1.224387433E+01 -1.010843335E+01  1.624273311E+01  2.064765462E-07  0.00000E+00  9.000E+00
      21     1     1     2   516   511  2.100323169E+00 -6.721232033E+00 -1.211834300E-01  7.042797944E+00  2.003404529E-07  0.00000E+00  9.000E+00
      21     1     1     2   511   512  1.325095835E+00 -5.522642301E+00 -9.791253778E+00  1.131919200E+01  1.685873940E-07  0.00000E+00  9.000E+00
</event>
<event>
      5  10001  3.52971E+09  4.58254E+00 -1.00000E+00  2.50284E-01
       2    -1     0     0   514     0  0.000000000E+00  0.000000000E+00  2.184395001E+02  2.184395001E+02  0.000000000E+00  0.00000E+00  9.000E+00
       2    -1     0     0   511     0  0.000000000E+00  0.000000000E+00 -1.510833571E+01  1.510833571E+01  0.000000000E+00  0.00000E+00  9.000E+00
       2     1     1     2   511     0 -1.108550518E+01  4.132176660E+00  9.176104304E+01  9.252113937E+01  3.300000131E-01  0.00000E+00  9.000E+00
       2     1     1     2   513     0  1.069560628E+01  4.336197881E-01 -1.273365958E+01  1.663847968E+01  3.300000131E-01  0.00000E+00  9.000E+00
      21     1     1     2   514   513  3.898989017E-01 -4.565796448E+00  1.243037810E+02  1.243882168E+02  1.907348633E-06  0.00000E+00  9.000E+00
</event>
<event>
      5  10001  3.52971E+09  5.40356E+00 -1.00000E+00  2.32767E-01
       1    -1     0     0   514     0  0.000000000E+00  0.000000000E+00  3.982421168E+02  3.982421168E+02  0.000000000E+00  0.00000E+00  9.000E+00
      21    -1     0     0   513   514  0.000000000E+00  0.000000000E+00 -1.787829926E+00  1.787829926E+00  0.000000000E+00  0.00000E+00  9.000E+00
      21     1     1     2   511   512 -3.594857144E+00  1.739768041E-01  1.955171281E+00  4.095846744E+00  3.039252468E-07  0.00000E+00  9.000E+00
       1     1     1     2   512     0  1.081614932E+01  6.351512585E-02  3.747268611E+02  3.748830783E+02  3.300000131E-01  0.00000E+00  9.000E+00
      21     1     1     2   513   511 -7.221292174E+00 -2.374919300E-01  1.977225449E+01  2.105102161E+01  2.384185791E-07  0.00000E+00  9.000E+00
</event>
<event>
      5  10001  3.52971E+09  4.65720E+00 -1.00000E+00  2.48809E-01
      21    -1     0     0   513   515  0.000000000E+00  0.000000000E+00  6.176251183E+00  6.176251183E+00  0.000000000E+00  0.00000E+00  9.000E+00
       1    -1     0     0   512     0  0.000000000E+00  0.000000000E+00 -1.125649002E+02  1.125649002E+02  0.000000000E+00  0.00000E+00  9.000E+00
      21     1     1     2   512   515  6.699389428E+00 -1.017265901E+01 -9.187380168E-01  1.221510907E+01  2.318076668E-07  0.00000E+00  9.000E+00
       1     1     1     2   514     0 -4.049287359E+00  5.431701473E+00 -8.726415886E+01  8.752738103E+01  3.300000131E-01  0.00000E+00  9.000E+00
      21     1     1     2   513   514 -2.650102068E+00  4.740957540E+00 -1.820575214E+01  1.899866128E+01  2.384185791E-07  0.00000E+00  9.000E+00
</event>
<event>
      5  10001  3.52971E+09  7.26458E+00 -1.00000E+00  2.13296E-01
      21    -1     0     0   511   512  0.000000000E+00  0.000000000E+00  4.267473418E+01  4.267473418E+01  0.000000000E+00  0.00000E+00  9.000E+00
      21    -1     0     0   516   511  0.000000000E+00  0.000000000E+00 -1.317704278E+01  1.317704278E+01  0.000000000E+00  0.00000E+00  9.000E+00
      21     1     1     2   514   512 -1.079661732E+01 -2.547236437E+00  3.386892703E+01  3.563929822E+01  0.000000000E+00  0.00000E+00  9.000E+00
      -5     1     1     2     0   514  7.380753899E+00  6.716152395E+00 -6.302409166E+00  1.274137333E+01  4.800000191E+00  0.00000E+00  9.000E+00
       5     1     1     2   516     0  3.415863420E+00 -4.168915959E+00  1.931173531E+00  7.471105421E+00  4.800000191E+00  0.00000E+00  9.000E+00
</event>
<event>
      5  10001  3.52971E+09  1.43906E+01 -1.00000E+00  1.79094E-01
      21    -1     0     0   513   516  0.000000000E+00  0.000000000E+00  6.511619192E+00  6.511619192E+00  0.000000000E+00  0.00000E+00  9.000E+00
      21    -1     0     0   512   515  0.000000000E+00  0.000000000E+00 -1.476613861E+02  1.476613861E+02  0.000000000E+00  0.00000E+00  9.000E+00
      21     1     1     2   513   515 -2.475466494E+01 -9.172321964E+00 -4.091452293E+01  4.869212578E+01  8.259061849E-07  0.00000E+00  9.000E+00
      -5     1     1     2     0   516  1.182239877E+01  9.112215342E+00 -7.594785239E+01  7.754945432E+01  4.800000191E+00  0.00000E+00  9.000E+00
       5     1     1     2   512     0  1.293226616E+01  6.010662167E-02 -2.428739154E+01  2.793142515E+01  4.800000191E+00  0.00000E+00  9.000E+00
</event>
<event>
      5  10001  3.52971E+09  5.88065E+00 -1.00000E+00  2.26829E-01
      21    -1     0     0   511   512  0.000000000E+00  0.000000000E+00  1.643716018E+00  1.643716018E+00  0.000000000E+00  0.00000E+00  9.000E+00
      -2    -1     0     0     0   511  0.000000000E+00  0.000000000E+00 -2.532787714E+02  2.532787714E+02  0.000000000E+00  0.00000E+00  9.000E+00
      -2     1     1     2     0   513 -5.711120018E+00  8.249593345E+00 -2.305004330E+02  2.307189442E+02  3.300000131E-01  0.00000E+00  9.000E+00
      21     1     1     2   513   514  5.921064791E+00 -4.584192341E+00 -1.751167940E+01  1.904554392E+01  5.840038640E-07  0.00000E+00  9.000E+00
      21     1     1     2   514   512 -2.099447735E-01 -3.665401004E+00 -3.622942982E+00  5.157999339E+00  1.192092896E-07  0.00000E+00  9.000E+00
</event>
<event>
      5  10001  3.52971E+09  3.38453E+01 -1.00000E+00  1.49486E-01
      21    -1     0     0   515   512  0.000000000E+00  0.000000000E+00  1.357756027E+02  1.357756027E+02  0.000000000E+00  0.00000E+00  9.000E+00
      -3    -1     0     0     0   515  0.000000000E+00  0.000000000E+00 -5.328600875E+00  5.328600875E+00  0.000000000E+00  0.00000E+00  9.000E+00
      -3     1     1     2     0   511 -6.481622640E+00  8.516308865E+00  2.910888353E+00  1.110235199E+01  5.000000000E-01  0.00000E+00  9.000E+00
      21     1     1     2   511   513 -4.923980363E+00 -8.578850861E+00  2.584682888E+01  2.767491333E+01  3.371747881E-07  0.00000E+00  9.000E+00
      21     1     1     2   513   512  1.140560300E+01  6.254199616E-02  1.016892846E+02  1.023269382E+02  1.348699152E-06  0.00000E+00  9.000E+00
</event>
<event>
      5  10001  3.52971E+09  1.27786E+01 -1.00000E+00  1.84199E-01
      21    -1     0     0   514   511  0.000000000E+00  0.000000000E+00  9.920421253E+00  9.920421253E+00  0.000000000E+00  0.00000E+00  9.000E+00
      21    -1     0     0   516   512  0.000000000E+00  0.000000000E+00 -1.024534617E+02  1.024534617E+02  0.000000000E+00  0.00000E+00  9.000E+00
      21     1     1     2   514   512  2.656297326E+01  3.308903981E+00 -6.656832865E+01  7.174874754E+01  9.536743164E-07  0.00000E+00  9.000E+00
      21     1     1     2   515   511 -1.517973969E+01  3.121874793E+00 -5.707092481E+00  1.651488734E+01  3.674277069E-07  0.00000E+00  9.000E+00
      21     1     1     2   516   515 -1.138323357E+01 -6.430778774E+00 -2.025761933E+01  2.411024809E+01  0.000000000E+00  0.00000E+00  9.000E+00
</event>
<event>
      5  10001  3.52971E+09  2.22691E+01 -1.00000E+00  1.62605E-01
      21    -1     0     0   516   511  0.000000000E+00  0.000000000E+00  1.541024270E+00  1.541024270E+00  0.000000000E+00  0.00000E+00  9.000E+00
      -2    -1     0     0     0   513  0.000000000E+00  0.000000000E+00 -2.651823277E+02  2.651823277E+02  0.000000000E+00  0.00000E+00  9.000E+00
      -2     1     1     2     0   511  5.397228254E+00 -1.495931027E+01 -1.512023506E+02  1.520367415E+02  3.300000131E-01  0.00000E+00  9.000E+00
      21     1     1     2   512   513  2.010556822E+00  1.542659515E+00 -2.108085568E+00  3.296386185E+00  1.659323085E-07  0.00000E+00  9.000E+00
      21     1     1     2   516   512 -7.407785076E+00  1.341665076E+01 -1.103308673E+02  1.113902243E+02  1.348699152E-06  0.00000E+00  9.000E+00
</event>
<event>
      5  10001  3.52971E+09  5.05677E+00 -1.00000E+00  2.37656E-01
      21    -1     0     0   514   512  0.000000000E+00  0.000000000E+00  3.346152469E+02  3.346152469E+02  0.000000000E+00  0.00000E+00  9.000E+00
      21    -1     0     0   511   515  0.000000000E+00  0.000000000E+00 -2.372688247E+00  2.372688247E+00  0.000000000E+00  0.00000E+00  9.000E+00
      21     1     1     2   514   515  9.489602524E+00 -7.880344046E+00  1.601668444E+01  2.021599760E+01  4.129530925E-07  0.00000E+00  9.000E+00
      21     1     1     2   513   512 -1.230784754E+01  5.998703572E+00  2.906805644E+02  2.910028489E+02  3.814697266E-06  0.00000E+00  9.000E+00
      21     1     1     2   511   513  2.818245013E+00  1.881640474E+00  2.554530980E+01  2.576908863E+01  4.768371582E-07  0.00000E+00  9.000E+00
</event>
<event>
      5  10001  3.52971E+09  6.16021E+00 -1.00000E+00  2.23703E-01
      21    -1     0     0   512   513  0.000000000E+00  0.000000000E+00  2.195553428E+02  2.195553428E+02  0.000000000E+00  0.00000E+00  9.000E+00
      21    -1     0     0   511   517  0.000000000E+00  0.000000000E+00 -7.973696924E+00  7.973696924E+00  0.000000000E+00  0.00000E+00  9.000E+00
      21     1     1     2   516   517  1.494282295E+01  2.492772095E+00  2.017387020E+00  1.528305339E+01  3.828177625E-07  0.00000E+00  9.000E+00
      21     1     1     2   511   513 -1.005286332E+01 -6.239303001E+00  2.585648101E+01  2.843495337E+01  0.000000000E+00  0.00000E+00  9.000E+00
      21     1     1     2   512   516 -4.889959638E+00  3.746530906E+00  1.837077779E+02  1.838110330E+02  2.697398305E-06  0.00000E+00  9.000E+00
</event>
<event>
      5  10001  3.52971E+09  5.33504E+00 -1.00000E+00  2.33691E-01
      21    -1     0     0   514   513  0.000000000E+00  0.000000000E+00  9.644658485E+01  9.644658485E+01  0.000000000E+00  0.00000E+00  9.000E+00
      21    -1     0     0   515   514  0.000000000E+00  0.000000000E+00 -1.757350526E+02  1.757350526E+02  0.000000000E+00  0.00000E+00  9.000E+00
      21     1     1     2   511   513 -8.509440766E+00 -5.918975506E+00  9.581615912E+01  9.637521051E+01  1.348699152E-06  0.00000E+00  9.000E+00
      21     1     1     2   517   511  3.277244156E+00  2.724093453E+00 -1.460459730E+02  1.461081355E+02  2.697398305E-06  0.00000E+00  9.000E+00
      21     1     1     2   515   517  5.232196610E+00  3.194882053E+00 -2.905865387E+01  2.969829149E+01  0.000000000E+00  0.00000E+00  9.000E+00
</event>
<event>
      5  10001  3.52971E+09  1.19181E+01 -1.00000E+00  1.87337E-01
      21    -1     0     0   512   515  0.000000000E+00  0.000000000E+00  2.088564857E+02  2.088564857E+02  0.000000000E+00  0.00000E+00  9.000E+00
      21    -1     0     0   513   516  0.000000000E+00  0.000000000E+00 -2.840244329E+00  2.840244329E+00  0.000000000E+00  0.00000E+00  9.000E+00
      21     1     1     2   512   516  1.967586982E+01  5.186310149E-01  1.557969103E+02  1.570353021E+02  1.907348633E-06  0.00000E+00  9.000E+00
      21     1     1     2   511   515 -8.296829520E+00  2.797229808E+00  2.971378434E+01  3.097694069E+01  3.371747881E-07  0.00000E+00  9.000E+00
      21     1     1     2   513   511 -1.137904030E+01 -3.315860822E+00  2.050554670E+01  2.368448725E+01  6.743495762E-07  0.00000E+00  9.000E+00
</event>
<event>
      5  10001  3.52971E+09  7.41707E+00 -1.00000E+00  2.12056E-01
      -2    -1     0     0     0   513  0.000000000E+00  0.000000000E+00  1.258391967E+02  1.258391967E+02  0.000000000E+00  0.00000E+00  9.000E+00
       3    -1     0     0   513     0  0.000000000E+00  0.000000000E+00 -3.001793779E+00  3.001793779E+00  0.000000000E+00  0.00000E+00  9.000E+00
      -2     1     1     2     0   514 -1.047855464E+01  1.439480357E+00  8.016779513E+01  8.086319613E+01  3.300000131E-01  0.00000E+00  9.000E+00
       3     1     1     2   512     0  1.438963318E+01  3.585168884E+00  2.363671970E+01  2.790805434E+01  5.000000000E-01  0.00000E+00  9.000E+00
      21     1     1     2   514   512 -3.911078540E+00 -5.024649241E+00  1.903288811E+01  2.006974003E+01  3.371747881E-07  0.00000E+00  9.000E+00
</event>
<event>
      5  10001  3.52971E+09  7.97960E+00 -1.00000E+00  2.07810E-01
      21    -1     0     0   511   516  0.000000000E+00  0.000000000E+00  5.887407988E+00  5.887407988E+00  0.000000000E+00  0.00000E+00  9.000E+00
      21    -1     0     0   513   511  0.000000000E+00  0.000000000E+00 -4.612601871E+01  4.612601871E+01  0.000000000E+00  0.00000E+00  9.000E+00
      21     1     1     2   512   515  5.236706045E+00 -6.753503658E+00 -1.266975670E+01  1.528252717E+01  1.685873940E-07  0.00000E+00  9.000E+00
      21     1     1     2   513   512 -1.308911112E+01  5.334460176E+00 -2.429164330E+01  2.810454108E+01  6.743495762E-07  0.00000E+00  9.000E+00
      21     1     1     2   515   516  7.852405076E+00  1.419043481E+00 -3.277210719E+00  8.626358442E+00  1.264405455E-07  0.00000E+00  9.000E+00
</event>
<event>
      5  10001  3.52971E+09  4.66154E+00 -1.00000E+00  2.48724E-01
      21    -1     0     0   514   511  0.000000000E+00  0.000000000E+00  2.107064541E+01  2.107064541E+01  0.000000000E+00  0.00000E+00  9.000E+00
      21    -1     0     0   515   516  0.000000000E+00  0.000000000E+00 -1.613807103E+01  1.613807103E+01  0.000000000E+00  0.00000E+00  9.000E+00
      21     1     1     2   514   516  9.297660628E+00  9.666800132E+00  5.481262012E-01  1.342363439E+01  3.509690080E-07  0.00000E+00  9.000E+00
      21     1     1     2   515   513 -6.706781347E+00 -5.791586296E+00 -7.123022065E+00  1.136929335E+01  2.230201594E-07  0.00000E+00  9.000E+00
      21     1     1     2   513   511 -2.590879280E+00 -3.875213836E+00  1.150747024E+01  1.241578870E+01  1.685873940E-07  0.00000E+00  9.000E+00
</event>
<event>
      5  10001  3.52971E+09  4.93354E+00 -1.00000E+00  2.43694E-01
      21    -1     0     0   514   515  0.000000000E+00  0.000000000E+00  2.043678438E+02  2.043678438E+02  0.000000000E+00  0.00000E+00  9.000E+00
      21    -1     0     0   511   512  0.000000000E+00  0.000000000E+00 -3.263562119E+01  3.263562119E+01  0.000000000E+00  0.00000E+00  9.000E+00
      21     1     1     2   511   517  9.249222166E+00 -3.254514279E+00 -2.604917046E+01  2.783341976E+01  3.371747881E-07  0.00000E+00  9.000E+00
      21     1     1     2   517   515 -1.364503533E+01  1.014737521E+00  2.601526213E+00  1.392783616E+01  2.190014490E-07  0.00000E+00  9.000E+00
      21     1     1     2   514   512  4.395813166E+00  2.239776758E+00  1.951798668E+02  1.952422090E+02  4.672030912E-06  0.00000E+00  9.000E+00
</event>
<event>
      5  10001  3.52971E+09  7.63106E+00 -1.00000E+00  2.10383E-01
      21    -1     0     0   513   512  0.000000000E+00  0.000000000E+00  6.993021709E+00  6.993021709E+00  0.000000000E+00  0.00000E+00  9.000E+00
      21    -1     0     0   511   516  0.000000000E+00  0.000000000E+00 -5.425532070E+01  5.425532070E+01  0.000000000E+00  0.00000E+00  9.000E+00
      21     1     1     2   513   516  1.037996679E+01 -1.318516980E+01 -1.427901363E+01  2.203367068E+01  4.768371582E-07  0.00000E+00  9.000E+00
      21     1     1     2   511   515 -1.211311377E+01  8.367993075E+00 -2.965485920E+01  3.310832988E+01  3.371747881E-07  0.00000E+00  9.000E+00
      21     1     1     2   515   512  1.733146975E+00  4.817176730E+00 -3.328426165E+00  6.106341853E+00  8.429369702E-08  0.00000E+00  9.000E+00
</event>
<event>
      5  10001 -3.52971E+09  1.02262E+01 -1.00000E+00  1.94636E-01
      21    -1     0     0   514   511  0.000000000E+00  0.000000000E+00  4.542681930E+02  4.542681930E+02  0.000000000E+00  0.00000E+00  9.000E+00
      21    -1     0     0   517   512  0.000000000E+00  0.000000000E+00 -2.741499100E+01  2.741499100E+01  0.000000000E+00  0.00000E+00  9.000E+00
      21     1     1     2   514   512  5.864668813E+00  1.216604157E+01  4.520027166E+02  4.522044479E+02  0.000000000E+00  0.00000E+00  9.000E+00
      21     1     1     2   517   513 -2.072490962E-01 -7.121790673E+00 -7.905156475E+00  1.064210287E+01  7.586432732E-07  0.00000E+00  9.000E+00
      21     1     1     2   513   511 -5.657419717E+00 -5.044250899E+00 -1.724435810E+01  1.883663323E+01  1.599360450E-06  0.00000E+00  9.000E+00
</event>
<event>
      5  10001  3.52971E+09  1.08919E+01 -1.00000E+00  1.91559E-01
      21    -1     0     0   515   513  0.000000000E+00  0.000000000E+00  4.970909000E+02  4.970909000E+02  0.000000000E+00  0.00000E+00  9.000E+00
      21    -1     0     0   512   515  0.000000000E+00  0.000000000E+00 -2.105339292E+01  2.105339292E+01  0.000000000E+00  0.00000E+00  9.000E+00
      21     1     1     2   516   513  1.138067001E+01 -2.103643432E+01  3.187841380E+02  3.196801180E+02  0.000000000E+00  0.00000E+00  9.000E+00
      21     1     1     2   511   516 -6.612121292E+00  1.124388128E+01  1.761612516E+02  1.766435155E+02  2.697398305E-06  0.00000E+00  9.000E+00
      21     1     1     2   512   511 -4.768548717E+00  9.792553037E+00 -1.890788254E+01  2.182065934E+01  1.327458468E-06  0.00000E+00  9.000E+00
</event>
<event>
      5  10001  3.52971E+09  6.86920E+00 -1.00000E+00  2.16712E-01
      21    -1     0     0   514   512  0.000000000E+00  0.000000000E+00  2.240076143E+00  2.240076143E+00  0.000000000E+00  0.00000E+00  9.000E+00
      -3    -1     0     0     0   514  0.000000000E+00  0.000000000E+00 -1.276858673E+02  1.276858673E+02  0.000000000E+00  0.00000E+00  9.000E+00
      -3     1     1     2     0   515  1.987457223E+00 -9.358821911E+00 -1.079814053E+02  1.084055876E+02  5.000000000E-01  0.00000E+00  9.000E+00
      21     1     1     2   513   512  1.062012708E+00  3.209597054E+00 -7.661614095E-01  3.466466147E+00  2.725324207E-07  0.00000E+00  9.000E+00
      21     1     1     2   515   513 -3.049469931E+00  6.149224856E+00 -1.669822444E+01  1.805388968E+01  3.371747881E-07  0.00000E+00  9.000E+00
</event>
<event>
      5  10001  3.52971E+09  1.00954E+01 -1.00000E+00  1.95277E-01
      21    -1     0     0   511   513  0.000000000E+00  0.000000000E+00  6.159415245E+00  6.159415245E+00  0.000000000E+00  0.00000E+00  9.000E+00
      21    -1     0     0   515   516  0.000000000E+00  0.000000000E+00 -8.122154605E+01  8.122154605E+01  0.000000000E+00  0.00000E+00  9.000E+00
      21     1     1     2   511   516 -1.124529225E+01 -4.568800355E+00 -1.106188933E+00  1.218828078E+01  2.923818956E-07  0.00000E+00  9.000E+00
      21     1     1     2   515   512  1.011673580E+00 -2.185291959E-01 -2.191668586E+01  2.194111113E+01  4.129530925E-07  0.00000E+00  9.000E+00
      21     1     1     2   512   513  1.023361867E+01  4.787329551E+00 -5.203925601E+01  5.325156938E+01  6.743495762E-07  0.00000E+00  9.000E+00
</event>
<event>
      5  10001  3.52971E+09  3.03934E+00 -1.00000E+00  2.95151E-01
      21    -1     0     0   514   515  0.000000000E+00  0.000000000E+00  7.383442921E+00  7.383442921E+00  0.000000000E+00  0.00000E+00  9.000E+00
      21    -1     0     0   517   513  0.000000000E+00  0.000000000E+00 -2.781331655E+01  2.781331655E+01  0.000000000E+00  0.00000E+00  9.000E+00
      21     1     1     2   514   513  1.038854809E+01 -8.221666100E-01  8.537038696E-01  1.045594088E+01  1.769414855E-07  0.00000E+00  9.000E+00
      21     1     1     2   517   511 -8.423390917E+00  3.681156069E-01 -2.109203032E+01  2.271481381E+01  2.384185791E-07  0.00000E+00  9.000E+00
      21     1     1     2   511   515 -1.965157176E+00  4.540510030E-01 -1.915471819E-01  2.026004778E+00  5.587935448E-08  0.00000E+00  9.000E+00
</event>
<event>
      5  10001  3.52971E+09  1.03011E+01 -1.00000E+00  1.94275E-01
      21    -1     0     0   511   512  0.000000000E+00  0.000000000E+00  9.330386659E+00  9.330386659E+00  0.000000000E+00  0.00000E+00  9.000E+00
       3    -1     0     0   515     0  0.000000000E+00  0.000000000E+00 -1.690135138E+01  1.690135138E+01  0.000000000E+00  0.00000E+00  9.000E+00
      21     1     1     2   515   512 -3.307334035E-01  8.357534095E+00  1.989332935E+00  8.597395318E+00  1.591008641E-07  0.00000E+00  9.000E+00
       3     1     1     2   513     0 -4.870325186E+00 -4.780054363E+00 -8.987521298E+00  1.129577471E+01  5.000000000E-01  0.00000E+00  9.000E+00
      21     1     1     2   511   513  5.201058590E+00 -3.577479732E+00 -5.727763558E-01  6.338568012E+00  9.599401598E-08  0.00000E+00  9.000E+00
</event>
<event>
      5  10001  3.52971E+09  8.47349E+00 -1.00000E+00  2.04453E-01
       2    -1     0     0   511     0  0.000000000E+00  0.000000000E+00  2.476114847E+02  2.476114847E+02  0.000000000E+00  0.00000E+00  9.000E+00
      -1    -1     0     0     0   511  0.000000000E+00  0.000000000E+00 -1.393115236E+01  1.393115236E+01  0.000000000E+00  0.00000E+00  9.000E+00
      -1     1     1     2     0   514  2.339022127E+00  1.844698759E+01 -6.575290648E+00  1.972576292E+01  3.300000131E-01  0.00000E+00  9.000E+00
       2     1     1     2   512     0  3.348276037E+00 -1.277525985E+01  2.128212184E+02  2.132308564E+02  3.300000131E-01  0.00000E+00  9.000E+00
      21     1     1     2   514   512 -5.687298164E+00 -5.671727733E+00  2.743440456E+01  2.858601773E+01  4.768371582E-07  0.00000E+00  9.000E+00
</event>
<event>
      5  10001  3.52971E+09  3.76859E+00 -1.00000E+00  2.69712E-01
      21    -1     0     0   513   511  0.000000000E+00  0.000000000E+00  1.462862775E+01  1.462862775E+01  0.000000000E+00  0.00000E+00  9.000E+00
      21    -1     0     0   515   513  0.000000000E+00  0.000000000E+00 -7.575171277E+01  7.575171277E+01  0.000000000E+00  0.00000E+00  9.000E+00
      21     1     1     2   515   516  1.245330317E+01 -1.290167828E+01 -6.263379620E+01  6.515006131E+01  1.168007728E-06  0.00000E+00  9.000E+00
      21     1     1     2   516   512 -1.321374164E+01  1.659275404E+01  1.154498555E-01  2.121168978E+01  6.853382553E-07  0.00000E+00  9.000E+00
      21     1     1     2   512   511  7.604384638E-01 -3.691075759E+00  1.395261321E+00  4.018589438E+00  1.219712611E-07  0.00000E+00  9.000E+00
</event>
<event>
      5  10001  3.52971E+09  6.19398E+00 -1.00000E+00  2.23341E-01
      21    -1     0     0   514   516  0.000000000E+00  0.000000000E+00  1.937397326E+02  1.937397326E+02  0.000000000E+00  0.00000E+00  9.000E+00
       2    -1     0     0   515     0  0.000000000E+00  0.000000000E+00 -7.855883183E+00  7.855883183E+00  0.000000000E+00  0.00000E+00  9.000E+00
      21     1     1     2   514   511 -6.622050226E+00  6.887389246E+00  1.679170116E+02  1.681886158E+02  2.697398305E-06  0.00000E+00  9.000E+00
      21     1     1     2   515   516  1.163186588E+01 -3.245222570E+00  2.262763265E+01  2.564842164E+01  4.768371582E-07  0.00000E+00  9.000E+00
       2     1     1     2   511     0 -5.009815657E+00 -3.642166676E+00 -4.660794804E+00  7.758578428E+00  3.300000131E-01  0.00000E+00  9.000E+00
</event>
<event>
      5  10001  3.52971E+09  7.90052E+00 -1.00000E+00  2.08378E-01
      21    -1     0     0   512   515  0.000000000E+00  0.000000000E+00  7.247294860E+00  7.247294860E+00  0.000000000E+00  0.00000E+00  9.000E+00
      21    -1     0     0   511   513  0.000000000E+00  0.000000000E+00 -2.479262888E+01  2.479262888E+01  0.000000000E+00  0.00000E+00  9.000E+00
      21     1     1     2   512   513  8.738376825E+00 -1.927972984E+00 -1.938959586E+00  9.156193185E+00  1.299053116E-07  0.00000E+00  9.000E+00
      21     1     1     2   514   515 -1.110790653E+01  5.117333233E+00 -1.402220802E+01  1.860631626E+01  0.000000000E+00  0.00000E+00  9.000E+00
      21     1     1     2   511   514  2.369529706E+00 -3.189360249E+00 -1.584166410E+00  4.277414294E+00  1.095007245E-07  0.00000E+00  9.000E+00
</event>
<event>
      5  10001  3.52971E+09  2.74107E+00 -1.00000E+00  3.09282E-01
      21    -1     0     0   512   513  0.000000000E+00  0.000000000E+00  2.685545432E+02  2.685545432E+02  0.000000000E+00  0.00000E+00  9.000E+00
      21    -1     0     0   511   516  0.000000000E+00  0.000000000E+00 -1.404139333E+00  1.404139333E+00  0.000000000E+00  0.00000E+00  9.000E+00
      21     1     1     2   511   517  4.889084915E+00  1.108906146E+01  3.229336016E+01  3.449248535E+01  4.768371582E-07  0.00000E+00  9.000E+00
      21     1     1     2   517   513 -4.930000164E+00 -8.348297148E+00  8.006421900E+01  8.064910496E+01  2.132480600E-06  0.00000E+00  9.000E+00
      21     1     1     2   512   516  4.091524887E-02 -2.740764308E+00  1.547928247E+02  1.548170923E+02  0.000000000E+00  0.00000E+00  9.000E+00
</event>
<event>
      5  10001  3.52971E+09  4.15043E+00 -1.00000E+00  2.59741E-01
      21    -1     0     0   513   511  0.000000000E+00  0.000000000E+00  4.231800223E+00  4.231800223E+00  0.000000000E+00  0.00000E+00  9.000E+00
      21    -1     0     0   515   514  0.000000000E+00  0.000000000E+00 -5.939594707E+01  5.939594707E+01  0.000000000E+00  0.00000E+00  9.000E+00
      21     1     1     2   516   511  9.391897928E-01 -1.158705900E+01 -4.069145181E+01  4.231945491E+01  6.743495762E-07  0.00000E+00  9.000E+00
      21     1     1     2   515   516  2.003107911E+00  8.659787404E+00 -1.467059098E+01  1.715315128E+01  2.920019320E-07  0.00000E+00  9.000E+00
      21     1     1     2   513   514 -2.942297704E+00  2.927271599E+00  1.978959360E-01  4.155141104E+00  1.157240910E-07  0.00000E+00  9.000E+00
</event>
<event>
      5  10001  3.52971E+09  8.51244E+00 -1.00000E+00  2.04201E-01
      21    -1     0     0   512   511  0.000000000E+00  0.000000000E+00  1.191657502E+02  1.191657502E+02  0.000000000E+00  0.00000E+00  9.000E+00
      21    -1     0     0   517   515  0.000000000E+00  0.000000000E+00 -5.230467357E+00  5.230467357E+00  0.000000000E+00  0.00000E+00  9.000E+00
      21     1     1     2   517   514  9.202576910E+00  4.355564589E+00  2.522008106E+01  2.719762588E+01  4.768371582E-07  0.00000E+00  9.000E+00
      21     1     1     2   514   511 -1.457552962E+01  2.246942241E+00  8.733930492E+01  8.857566820E+01  1.348699152E-06  0.00000E+00  9.000E+00
      21     1     1     2   512   515  5.372952711E+00 -6.602506829E+00  1.375896869E+00  8.622923487E+00  6.495265579E-08  0.00000E+00  9.000E+00
</event>
<event>
      5  10001  3.52971E+09  8.67055E+00 -1.00000E+00  2.03198E-01
      21    -1     0     0   513   514  0.000000000E+00  0.000000000E+00  6.174313269E+00  6.174313269E+00  0.000000000E+00  0.00000E+00  9.000E+00
      21    -1     0     0   517   516  0.000000000E+00  0.000000000E+00 -6.828888683E+01  6.828888683E+01  0.000000000E+00  0.00000E+00  9.000E+00
      21     1     1     2   513   516 -4.861848655E+00 -8.635168678E+00  1.349830639E+00  1.000128758E+01  4.134904422E-07  0.00000E+00  9.000E+00
      21     1     1     2   517   511  3.451584020E+00  2.897001083E+00 -1.571578813E+01  1.634906860E+01  1.685873940E-07  0.00000E+00  9.000E+00
      21     1     1     2   511   514  1.410264635E+00  5.738167595E+00 -4.774861607E+01  4.811284393E+01  6.743495762E-07  0.00000E+00  9.000E+00
</event>
<event>
      5  10001  3.52971E+09  1.58298E+01 -1.00000E+00  1.75205E-01
      21    -1     0     0   512   516  0.000000000E+00  0.000000000E+00  3.466768402E+01  3.466768402E+01  0.000000000E+00  0.00000E+00  9.000E+00
      21    -1     0     0   515   514  0.000000000E+00  0.000000000E+00 -3.285586657E+01  3.285586657E+01  0.000000000E+00  0.00000E+00  9.000E+00
      21     1     1     2   512   514  1.876655922E+01 -3.527125144E-01  2.658795322E+01  3.254577403E+01  4.768371582E-07  0.00000E+00  9.000E+00
      21     1     1     2   515   513 -1.482017590E+01 -4.516904112E+00 -8.804337335E+00  1.782011202E+01  3.153981341E-07  0.00000E+00  9.000E+00
      21     1     1     2   513   516 -3.946383327E+00  4.869616626E+00 -1.597179843E+01  1.715766454E+01  4.768371582E-07  0.00000E+00  9.000E+00
</event>
<event>
      5  10001  3.52971E+09  1.83266E+01 -1.00000E+00  1.69559E-01
       1    -1     0     0   514     0  0.000000000E+00  0.000000000E+00  4.175835199E+02  4.175835199E+02  0.000000000E+00  0.00000E+00  9.000E+00
      -1    -1     0     0     0   511  0.000000000E+00  0.000000000E+00 -8.834350970E-01  8.834350970E-01  0.000000000E+00  0.00000E+00  9.000E+00
      21     1     1     2   514   513  2.217031337E+00  9.937832966E+00  2.163786048E+02  2.166180426E+02  2.697398305E-06  0.00000E+00  9.000E+00
      -1     1     1     2     0   511  4.280734214E-01 -3.776007818E+00  4.444699746E+00  5.857110016E+00  3.300000131E-01  0.00000E+00  9.000E+00
       1     1     1     2   513     0 -2.645104758E+00 -6.161825148E+00  1.958767802E+02  1.959918024E+02  3.300000131E-01  0.00000E+00  9.000E+00
</event>
<event>
      5  10001  3.52971E+09  7.04615E+00 -1.00000E+00  2.15145E-01
      21    -1     0     0   511   513  0.000000000E+00  0.000000000E+00  1.443603571E+02  1.443603571E+02  0.000000000E+00  0.00000E+00  9.000E+00
      21    -1     0     0   515   512  0.000000000E+00  0.000000000E+00 -1.196939084E+01  1.196939084E+01  0.000000000E+00  0.00000E+00  9.000E+00
      21     1     1     2   515   516 -1.537739134E+01 -1.055125291E+00 -4.710769034E+00  1.611734466E+01  3.153981341E-07  0.00000E+00  9.000E+00
      21     1     1     2   516   513  9.569914189E+00  5.045294992E+00  1.872038299E+01  2.162154015E+01  3.371747881E-07  0.00000E+00  9.000E+00
      21     1     1     2   511   512  5.807477153E+00 -3.990169701E+00  1.183813523E+02  1.185908631E+02  0.000000000E+00  0.00000E+00  9.000E+00
</event>
<event>
      5  10001  3.52971E+09  1.12835E+01 -1.00000E+00  1.89879E-01
      21    -1     0     0   514   512  0.000000000E+00  0.000000000E+00  2.474428276E+01  2.474428276E+01  0.000000000E+00  0.00000E+00  9.000E+00
      21    -1     0     0   515   517  0.000000000E+00  0.000000000E+00 -5.115070380E+02  5.115070380E+02  0.000000000E+00  0.00000E+00  9.000E+00
      21     1     1     2   514   517 -4.983848469E+00 -9.107068861E+00 -5.098617173E+02  5.099673992E+02  7.629394531E-06  0.00000E+00  9.000E+00
      21     1     1     2   513   512  3.200606733E+00 -4.248179863E-02  6.546147772E+00  7.286819526E+00  4.298152060E-07  0.00000E+00  9.000E+00
      21     1     1     2   515   513  1.783241736E+00  9.149550660E+00  1.655281426E+01  1.899710210E+01  0.000000000E+00  0.00000E+00  9.000E+00
</event>
<event>
      5  10001  3.52971E+09  4.01885E+00 -1.00000E+00  2.62982E-01
      21    -1     0     0   511   512  0.000000000E+00  0.000000000E+00  1.503022429E+02  1.503022429E+02  0.000000000E+00  0.00000E+00  9.000E+00
      21    -1     0     0   515   511  0.000000000E+00  0.000000000E+00 -1.654064814E+00  1.654064814E+00  0.000000000E+00  0.00000E+00  9.000E+00
      21     1     1     2   513   512 -9.550890936E+00 -7.427913247E-01  1.241000422E+02  1.244692401E+02  1.348699152E-06  0.00000E+00  9.000E+00
      21     1     1     2   514   513  6.352463199E+00  2.149184896E+00  7.400136403E+00  9.986731357E+00  0.000000000E+00  0.00000E+00  9.000E+00
      21     1     1     2   515   514  3.198427737E+00 -1.406393571E+00  1.714799946E+01  1.750033624E+01  0.000000000E+00  0.00000E+00  9.000E+00
</event>
<event>
      5  10001  3.52971E+09  3.19764E+00 -1.00000E+00  2.88696E-01
      21    -1     0     0   513   514  0.000000000E+00  0.000000000E+00  3.069600388E+00  3.069600388E+00  0.000000000E+00  0.00000E+00  9.000E+00
      21    -1     0     0   514   511  0.000000000E+00  0.000000000E+00 -1.717306476E+02  1.717306476E+02  0.000000000E+00  0.00000E+00  9.000E+00
      21     1     1     2   512   511 -7.774153652E-01  7.110167977E+00 -1.333845364E+02  1.335761709E+02  0.000000000E+00  0.00000E+00  9.000E+00
       2     1     1     2   513     0  2.218873995E+00 -1.104905942E+01 -8.501537934E+00  1.412055817E+01  3.300000131E-01  0.00000E+00  9.000E+00
      -2     1     1     2     0   512 -1.441458629E+00  3.938891440E+00 -2.677497279E+01  2.710351890E+01  3.300000131E-01  0.00000E+00  9.000E+00
</event>
<event>
      5  10001  3.52971E+09  1.56934E+01 -1.00000E+00  1.75551E-01
      21    -1     0     0   515   511  0.000000000E+00  0.000000000E+00  1.260982898E+01  1.260982898E+01  0.000000000E+00  0.00000E+00  9.000E+00
      21    -1     0     0   514   515  0.000000000E+00  0.000000000E+00 -4.916309865E+01  4.916309865E+01  0.000000000E+00  0.00000E+00  9.000E+00
      21     1     1     2   514   512  7.103487512E+00  1.417549581E+01 -2.383373002E+01  2.862605287E+01  4.768371582E-07  0.00000E+00  9.000E+00
      21     1     1     2   513   511 -1.016656537E+01 -1.329789214E+01  3.087982774E+00  1.702141664E+01  7.312204925E-07  0.00000E+00  9.000E+00
      21     1     1     2   512   513  3.063077861E+00 -8.776036664E-01 -1.580752242E+01  1.612545811E+01  1.685873940E-07  0.00000E+00  9.000E+00
</event>
<event>
      5  10001  3.52971E+09  1.17788E+01 -1.00000E+00  1.87877E-01
      21    -1     0     0   516   513  0.000000000E+00  0.000000000E+00  3.436199580E+00  3.436199580E+00  0.000000000E+00  0.00000E+00  9.000E+00
      21    -1     0     0   512   517  0.000000000E+00  0.000000000E+00 -3.804806301E+01  3.804806301E+01  0.000000000E+00  0.00000E+00  9.000E+00
      21     1     1     2   516   517 -7.506925718E+00 -5.434396171E+00 -1.913664631E+01  2.126259221E+01  2.384185791E-07  0.00000E+00  9.000E+00
      21     1     1     2   512   511  4.618737776E+00 -1.257893222E+00 -1.006148620E+01  1.114219631E+01  1.192092896E-07  0.00000E+00  9.000E+00
      21     1     1     2   511   513  2.888187941E+00  6.692289392E+00 -5.413730909E+00  9.079474063E+00  1.192092896E-07  0.00000E+00  9.000E+00
</event>
<event>
      5  10001  3.52971E+09  5.28882E+00 -1.00000E+00  2.34326E-01
      21    -1     0     0   514   512  0.000000000E+00  0.000000000E+00  4.885651408E+01  4.885651408E+01  0.000000000E+00  0.00000E+00  9.000E+00
      21    -1     0     0   515   516  0.000000000E+00  0.000000000E+00 -1.148067767E+02  1.148067767E+02  0.000000000E+00  0.00000E+00  9.000E+00
      21     1     1     2   514   513 -4.124332291E+00  1.129331578E+01 -9.522593683E+01  9.598191571E+01  1.348699152E-06  0.00000E+00  9.000E+00
      21     1     1     2   515   512 -7.286402548E-01 -9.190873659E+00  4.766403981E+01  4.854754130E+01  1.651812370E-06  0.00000E+00  9.000E+00
      21     1     1     2   513   516  4.852972545E+00 -2.102442117E+00 -1.838836562E+01  1.913383379E+01  3.371747881E-07  0.00000E+00  9.000E+00
</event>
<event>
      5  10001  3.52971E+09  7.21235E+00 -1.00000E+00  2.13730E-01
      21    -1     0     0   511   512  0.000000000E+00  0.000000000E+00  5.022097842E+00  5.022097842E+00  0.000000000E+00  0.00000E+00  9.000E+00
      21    -1     0     0   517   511  0.000000000E+00  0.000000000E+00 -4.145008583E+01  4.145008583E+01  0.000000000E+00  0.00000E+00  9.000E+00
      21     1     1     2   515   512 -2.289253781E-01 -1.050989659E+01 -3.148462270E+00  1.097374812E+01  4.214684851E-08  0.00000E+00  9.000E+00
      21     1     1     2   514   515 -1.768492654E+00  6.284374426E+00 -1.150758601E+01  1.323047482E+01  0.000000000E+00  0.00000E+00  9.000E+00
      21     1     1     2   517   514  1.997418032E+00  4.225522165E+00 -2.177193971E+01  2.226796073E+01  2.384185791E-07  0.00000E+00  9.000E+00
</event>
<event>
      5  10001  3.52971E+09  4.51989E+00 -1.00000E+00  2.51554E-01
       1    -1     0     0   511     0  0.000000000E+00  0.000000000E+00  2.758443479E+00  2.758443479E+00  0.000000000E+00  0.00000E+00  9.000E+00
      21    -1     0     0   514   511  0.000000000E+00  0.000000000E+00 -4.152387168E+02  4.152387168E+02  0.000000000E+00  0.00000E+00  9.000E+00
      21     1     1     2   512   513 -7.117674195E+00 -9.979851899E+00 -3.346421612E+02  3.348665925E+02  7.629394531E-06  0.00000E+00  9.000E+00
       1     1     1     2   513     0  1.095562974E+01  1.399465163E+01 -2.926324120E+01  3.423919221E+01  3.300000131E-01  0.00000E+00  9.000E+00
      21     1     1     2   514   512 -3.837955540E+00 -4.014799727E+00 -4.857487091E+01  4.889137555E+01  6.743495762E-07  0.00000E+00  9.000E+00
</event>
<event>
      5  10001  3.52971E+09  5.10192E+01 -1.00000E+00  1.38575E-01
      21    -1     0     0   515   513  0.000000000E+00  0.000000000E+00  4.134696772E+02  4.134696772E+02  0.000000000E+00  0.00000E+00  9.000E+00
      21    -1     0     0   514   515  0.000000000E+00  0.000000000E+00 -7.193569787E+01  7.193569787E+01  0.000000000E+00  0.00000E+00  9.000E+00
      21     1     1     2   514   512 -1.700618036E+01  1.112328047E+01 -6.947869819E+01  7.238941249E+01  2.336015456E-06  0.00000E+00  9.000E+00
      21     1     1     2   512   511 -1.093736700E+01 -4.432895643E+00  1.328765283E+02  1.333995815E+02  2.697398305E-06  0.00000E+00  9.000E+00
      21     1     1     2   511   513  2.794354736E+01 -6.690384831E+00  2.781361492E+02  2.796163811E+02  3.814697266E-06  0.00000E+00  9.000E+00
</event>
<event>
      5  10001  3.52971E+09  5.14081E+00 -1.00000E+00  2.36421E-01
      21    -1     0     0   512   513  0.000000000E+00  0.000000000E+00  9.894447200E+01  9.894447200E+01  0.000000000E+00  0.00000E+00  9.000E+00
      21    -1     0     0   511   515  0.000000000E+00  0.000000000E+00 -5.585566255E+00  5.585566255E+00  0.000000000E+00  0.00000E+00  9.000E+00
      -5     1     1     2     0   515 -1.095008430E+01  5.276976655E+00  2.400493937E+01  2.733181196E+01  4.800000191E+00  0.00000E+00  9.000E+00
      21     1     1     2   511   513  8.368245141E+00 -1.035325632E+00  9.941800323E-01  8.490454631E+00  6.664001875E-08  0.00000E+00  9.000E+00
       5     1     1     2   512     0  2.581839160E+00 -4.241651023E+00  6.835978634E+01  6.870777167E+01  4.800000191E+00  0.00000E+00  9.000E+00
</event>
<event>
      5  10001  3.52971E+09  5.33654E+00 -1.00000E+00  2.33671E-01
       1    -1     0     0   514     0  0.000000000E+00  0.000000000E+00  7.155940692E+01  7.155940692E+01  0.000000000E+00  0.00000E+00  9.000E+00
      21    -1     0     0   517   516  0.000000000E+00  0.000000000E+00 -1.539346236E+02  1.539346236E+02  0.000000000E+00  0.00000E+00  9.000E+00
      21     1     1     2   514   516  7.558743417E+00 -1.284304934E+01 -1.298957699E+02  1.307478090E+02  3.303624740E-06  0.00000E+00  9.000E+00
      21     1     1     2   517   511 -2.494464410E+00  1.452577547E+01 -2.119901817E+01  2.581896352E+01  1.011524364E-06  0.00000E+00  9.000E+00
       1     1     1     2   511     0 -5.064279007E+00 -1.682726125E+00  6.871957145E+01  6.892725795E+01  3.300000131E-01  0.00000E+00  9.000E+00
</event>
<event>
      5  10001  3.52971E+09  2.90839E+00 -1.00000E+00  3.01005E-01
      21    -1     0     0   512   516  0.000000000E+00  0.000000000E+00  4.816979278E+00  4.816979278E+00  0.000000000E+00  0.00000E+00  9.000E+00
      21    -1     0     0   515   513  0.000000000E+00  0.000000000E+00 -2.525163257E+02  2.525163257E+02  0.000000000E+00  0.00000E+00  9.000E+00
      21     1     1     2   512   513  2.429294399E+00 -2.856517812E+01 -1.966259759E+02  1.987049201E+02  2.697398305E-06  0.00000E+00  9.000E+00
      21     1     1     2   515   514 -1.344733012E+00  1.210721145E+01 -1.915538308E+01  2.270069551E+01  4.768371582E-07  0.00000E+00  9.000E+00
      21     1     1     2   514   516 -1.084561388E+00  1.645796667E+01 -3.191798739E+01  3.592768931E+01  8.259061849E-07  0.00000E+00  9.000E+00
</event>
<event>
      5  10001  3.52971E+09  5.88504E+00 -1.00000E+00  2.26778E-01
      21    -1     0     0   511   514  0.000000000E+00  0.000000000E+00  6.747671243E+00  6.747671243E+00  0.000000000E+00  0.00000E+00  9.000E+00
       1    -1     0     0   515     0  0.000000000E+00  0.000000000E+00 -9.040852327E+02  9.040852327E+02  0.000000000E+00  0.00000E+00  9.000E+00
      21     1     1     2   515   512  4.253638061E-01  6.078945088E+00  4.634959953E+00  7.656197588E+00  1.816719848E-06  0.00000E+00  9.000E+00
       1     1     1     2   511     0 -2.350488814E+00 -1.165727111E+01 -8.870494236E+02  8.871291933E+02  3.300000131E-01  0.00000E+00  9.000E+00
      21     1     1     2   512   514  1.925125008E+00  5.578326020E+00 -1.492309780E+01  1.604751306E+01  4.460403188E-07  0.00000E+00  9.000E+00
</event>
<event>
      5  10001  3.52971E+09  9.61259E+00 -1.00000E+00  1.97757E-01
      21    -1     0     0   515   511  0.000000000E+00  0.000000000E+00  2.328932338E+02  2.328932338E+02  0.000000000E+00  0.00000E+00  9.000E+00
      -2    -1     0     0     0   513  0.000000000E+00  0.000000000E+00 -1.019122467E+01  1.019122467E+01  0.000000000E+00  0.00000E+00  9.000E+00
      -2     1     1     2     0   514 -1.223841954E+01 -7.391090239E+00 -2.995168988E+00  1.461119656E+01  3.300000131E-01  0.00000E+00  9.000E+00
      21     1     1     2   515   513  9.743141873E+00  1.667403801E+01  2.017006589E+02  2.026230692E+02  2.697398305E-06  0.00000E+00  9.000E+00
      21     1     1     2   514   511  2.495277663E+00 -9.282947772E+00  2.399651921E+01  2.585019273E+01  3.371747881E-07  0.00000E+00  9.000E+00
</event>
<event>
      5  10001  3.52971E+09  2.74758E+01 -1.00000E+00  1.55736E-01
      21    -1     0     0   512   516  0.000000000E+00  0.000000000E+00  9.110460946E+00  9.110460946E+00  0.000000000E+00  0.00000E+00  9.000E+00
      21    -1     0     0   514   511  0.000000000E+00  0.000000000E+00 -1.495717658E+03  1.495717658E+03  0.000000000E+00  0.00000E+00  9.000E+00
      21     1     1     2   512   511  1.697048372E+01 -1.058538108E+01 -3.038175000E+00  2.023062326E+01  1.257361359E-06  0.00000E+00  9.000E+00
      21     1     1     2   514   513 -8.745976221E+00 -1.050974985E+01 -1.214662048E+03  1.214739000E+03  0.000000000E+00  0.00000E+00  9.000E+00
      21     1     1     2   513   516 -8.224507496E+00  2.109513093E+01 -2.689069744E+02  2.698584962E+02  0.000000000E+00  0.00000E+00  9.000E+00
</event>
<event>
      5  10001  3.52971E+09  5.40418E+00 -1.00000E+00  2.32759E-01
       1    -1     0     0   511     0  0.000000000E+00  0.000000000E+00  8.517811095E+01  8.517811095E+01  0.000000000E+00  0.00000E+00  9.000E+00
      21    -1     0     0   513   515  0.000000000E+00  0.000000000E+00 -1.554786153E+00  1.554786153E+00  0.000000000E+00  0.00000E+00  9.000E+00
      21     1     1     2   511   512 -4.357430120E+00  3.216166837E+00  1.405784317E+01  1.506498858E+01  0.000000000E+00  0.00000E+00  9.000E+00
       1     1     1     2   513     0  4.828679796E+00 -9.558491442E+00  4.817458345E+01  4.935159874E+01  3.300000131E-01  0.00000E+00  9.000E+00
      21     1     1     2   512   515 -4.712496757E-01  6.342324604E+00  2.139089818E+01  2.231630979E+01  4.129530925E-07  0.00000E+00  9.000E+00
</event>
<event>
      5  10001  3.52971E+09  5.14742E+00 -1.00000E+00  2.36325E-01
      21    -1     0     0   514   513  0.000000000E+00  0.000000000E+00  1.003603029E-01  1.003603029E-01  0.000000000E+00  0.00000E+00  9.000E+00
       2    -1     0     0   512     0  0.000000000E+00  0.000000000E+00 -1.362698755E+03  1.362698755E+03  0.000000000E+00  0.00000E+00  9.000E+00
      21     1     1     2   511   513 -1.312531827E+00  8.346214792E+00 -7.236858480E+02  7.237351647E+02  1.078959322E-05  0.00000E+00  9.000E+00
       2     1     1     2   514     0  5.202652143E+00 -8.148044570E+00 -3.848381563E+02  3.849597039E+02  3.300000131E-01  0.00000E+00  9.000E+00
      21     1     1     2   512   511 -3.890120316E+00 -1.981702218E-01 -2.540743905E+02  2.541042468E+02  3.814697266E-06  0.00000E+00  9.000E+00
</event>
<event>
      5  10001  3.52971E+09  2.99609E+00 -1.00000E+00  2.97029E-01
      -4    -1     0     0     0   511  0.000000000E+00  0.000000000E+00  1.057024543E+00  1.057024543E+00  0.000000000E+00  0.00000E+00  9.000E+00
      21    -1     0     0   515   514  0.000000000E+00  0.000000000E+00 -3.295501556E+02  3.295501556E+02  0.000000000E+00  0.00000E+00  9.000E+00
      -4     1     1     2     0   514 -6.917170902E+00 -6.981583613E+00 -2.532921546E+01  2.721045606E+01  1.500000000E+00  0.00000E+00  9.000E+00
      21     1     1     2   515   513  4.009966588E+00  5.843272689E+00 -2.682209084E+02  2.683145158E+02  3.814697266E-06  0.00000E+00  9.000E+00
      21     1     1     2   513   511  2.907204314E+00  1.138310924E+00 -3.494300721E+01  3.508220833E+01  4.768371582E-07  0.00000E+00  9.000E+00
</event>
<event>
      5  10001  3.52971E+09  2.17731E+01 -1.00000E+00  1.63379E-01
      21    -1     0     0   512   513  0.000000000E+00  0.000000000E+00  1.305496285E+01  1.305496285E+01  0.000000000E+00  0.00000E+00  9.000E+00
      21    -1     0     0   511   512  0.000000000E+00  0.000000000E+00 -1.050947484E+01  1.050947484E+01  0.000000000E+00  0.00000E+00  9.000E+00
      21     1     1     2   515   513  1.628869442E+00 -1.281323347E+00  3.289337516E-01  2.098380945E+00  1.869709803E-07  0.00000E+00  9.000E+00
      -4     1     1     2     0   515 -5.428755454E-01 -2.618276758E+00  1.113947587E+01  1.155370112E+01  1.500000000E+00  0.00000E+00  9.000E+00
       4     1     1     2   511     0 -1.085993897E+00  3.899600106E+00 -8.922921612E+00  9.912355614E+00  1.500000000E+00  0.00000E+00  9.000E+00
</event>
<event>
      5  10001  3.52971E+09  2.42742E+01 -1.00000E+00  1.59712E-01
      -2    -1     0     0     0   514  0.000000000E+00  0.000000000E+00  3.000642514E+02  3.000642514E+02  0.000000000E+00  0.00000E+00  9.000E+00
      21    -1     0     0   514   512  0.000000000E+00  0.000000000E+00 -4.846882477E+00  4.846882477E+00  0.000000000E+00  0.00000E+00  9.000E+00
      -2     1     1     2     0   511 -9.188195274E+00  1.427734165E+01  2.791906543E+02  2.797066244E+02  3.300000131E-01  0.00000E+00  9.000E+00
      21     1     1     2   511   513 -1.825306960E+00 -2.797558901E+00  4.279210831E+00  5.428602642E+00  8.429369702E-08  0.00000E+00  9.000E+00
      21     1     1     2   513   512  1.101350223E+01 -1.147978275E+01  1.174750379E+01  1.977590677E+01  5.057621821E-07  0.00000E+00  9.000E+00
</event>
<event>
      5  10001  3.52971E+09  2.99365E+01 -1.00000E+00  1.53101E-01
      21    -1     0     0   515   513  0.000000000E+00  0.000000000E+00  2.840386169E+01  2.840386169E+01  0.000000000E+00  0.00000E+00  9.000E+00
      21    -1     0     0   514   515  0.000000000E+00  0.000000000E+00 -1.775358891E+01  1.775358891E+01  0.000000000E+00  0.00000E+00  9.000E+00
      21     1     1     2   512   513 -1.353181805E+01  4.226272309E+00  1.888848074E+01  2.361665052E+01  3.371747881E-07  0.00000E+00  9.000E+00
      -1     1     1     2     0   512  4.075435794E+00 -7.763976541E-01  4.613234777E+00  6.213115591E+00  3.300000131E-01  0.00000E+00  9.000E+00
       1     1     1     2   514     0  9.456382255E+00 -3.449874655E+00 -1.285144273E+01  1.632768448E+01  3.300000131E-01  0.00000E+00  9.000E+00
</event>
<event>
      5  10001  3.52971E+09  8.34307E+00 -1.00000E+00  2.05309E-01
       2    -1     0     0   511     0  0.000000000E+00  0.000000000E+00  5.461227272E+00  5.461227272E+00  0.000000000E+00  0.00000E+00  9.000E+00
      -1    -1     0     0     0   511  0.000000000E+00  0.000000000E+00 -1.095818595E+02  1.095818595E+02  0.000000000E+00  0.00000E+00  9.000E+00
      -1     1     1     2     0   512 -6.082180996E+00  1.345291403E+01 -9.188345628E+01  9.306262548E+01  3.300000131E-01  0.00000E+00  9.000E+00
       2     1     1     2   513     0  8.462087075E+00 -9.774219441E+00 -1.191932485E+01  1.758753787E+01  3.300000131E-01  0.00000E+00  9.000E+00
      21     1     1     2   512   513 -2.379906079E+00 -3.678694593E+00 -3.178510817E-01  4.392923419E+00  1.670575688E-07  0.00000E+00  9.000E+00
</event>
<event>
      5  10001  3.52971E+09  1.46215E+01 -1.00000E+00  1.78432E-01
      -4    -1     0     0     0   514  0.000000000E+00  0.000000000E+00  2.797837073E+01  2.797837073E+01  0.000000000E+00  0.00000E+00  9.000E+00
      21    -1     0     0   516   511  0.000000000E+00  0.000000000E+00 -6.803805136E+02  6.803805136E+02  0.000000000E+00  0.00000E+00  9.000E+00
      -4     1     1     2     0   515 -1.638390059E+01  5.669582978E+00  2.435538380E+01  2.993344433E+01  1.500000000E+00  0.00000E+00  9.000E+00
      21     1     1     2   515   511  6.899971640E+00 -1.679750255E+01 -1.107352184E+02  1.122143230E+02  0.000000000E+00  0.00000E+00  9.000E+00
      21     1     1     2   516   514  9.483928945E+00  1.112791958E+01 -5.660223083E+02  5.662111170E+02  1.078959322E-05  0.00000E+00  9.000E+00
</event>
<event>
      5  10001  3.52971E+09  3.23659E+00 -1.00000E+00  2.87200E-01
       4    -1     0     0   511     0  0.000000000E+00  0.000000000E+00  1.441789046E+02  1.441789046E+02  0.000000000E+00  0.00000E+00  9.000E+00
      21    -1     0     0   513   511  0.000000000E+00  0.000000000E+00 -2.427657299E+00  2.427657299E+00  0.000000000E+00  0.00000E+00  9.000E+00
      21     1     1     2   515   512 -3.197944157E+00  4.380089876E+00  2.632459780E+00  6.028422567E+00  7.884953353E-08  0.00000E+00  9.000E+00
       4     1     1     2   512     0  5.478887297E+00 -8.344017501E+00  1.298572874E+02  1.302490150E+02  1.500000000E+00  0.00000E+00  9.000E+00
      21     1     1     2   513   515 -2.280943139E+00  3.963927625E+00  9.261500192E+00  1.032912434E+01  1.192092896E-07  0.00000E+00  9.000E+00
</event>
<event>
      5  10001  3.52971E+09  5.28987E+00 -1.00000E+00  2.34311E-01
      21    -1     0     0   511   514  0.000000000E+00  0.000000000E+00  4.919070897E+02  4.919070897E+02  0.000000000E+00  0.00000E+00  9.000E+00
       1    -1     0     0   512     0  0.000000000E+00  0.000000000E+00 -4.922270948E+00  4.922270948E+00  0.000000000E+00  0.00000E+00  9.000E+00
      21     1     1     2   512   514 -8.144316689E+00 -1.330329779E+01  4.277780985E+02  4.280623893E+02  1.078959322E-05  0.00000E+00  9.000E+00
       1     1     1     2   513     0  2.904596753E+00  1.402954800E+01  6.398400460E+00  1.569437249E+01  3.300000131E-01  0.00000E+00  9.000E+00
      21     1     1     2   511   513  5.239719937E+00 -7.262502061E-01  5.280831981E+01  5.307259882E+01  0.000000000E+00  0.00000E+00  9.000E+00
</event>
<event>
      5  10001  3.52971E+09  6.06469E+00 -1.00000E+00  2.24745E-01
      21    -1     0     0   515   513  0.000000000E+00  0.000000000E+00  5.856058479E+00  5.856058479E+00  0.000000000E+00  0.00000E+00  9.000E+00
      21    -1     0     0   512   514  0.000000000E+00  0.000000000E+00 -4.186267841E+02  4.186267841E+02  0.000000000E+00  0.00000E+00  9.000E+00
      21     1     1     2   515   516 -1.112063129E+00 -8.529915328E+00  2.171033094E+00  8.871838851E+00  3.500980176E-07  0.00000E+00  9.000E+00
      21     1     1     2   512   513  1.346027496E+00  1.459008970E+01 -3.662568676E+02  3.665498269E+02  5.394796609E-06  0.00000E+00  9.000E+00
      21     1     1     2   516   514 -2.339643666E-01 -6.060174368E+00 -4.868489110E+01  4.906117685E+01  6.743495762E-07  0.00000E+00  9.000E+00
</event>
<event>
      5  10001  3.52971E+09  1.82687E+01 -1.00000E+00  1.69677E-01
      21    -1     0     0   511   512  0.000000000E+00  0.000000000E+00  4.961247362E+00  4.961247362E+00  0.000000000E+00  0.00000E+00  9.000E+00
      21    -1     0     0   516   517  0.000000000E+00  0.000000000E+00 -1.545644237E+02  1.545644237E+02  0.000000000E+00  0.00000E+00  9.000E+00
      21     1     1     2   511   517 -1.622753796E+00 -9.157522579E+00 -1.343676006E+02  1.346890702E+02  1.907348633E-06  0.00000E+00  9.000E+00
      21     1     1     2   516   513  7.053516164E+00 -1.394444612E+00 -2.998870358E+00  7.790365169E+00  3.318646170E-07  0.00000E+00  9.000E+00
      21     1     1     2   513   512 -5.430762368E+00  1.055196719E+01 -1.223670537E+01  1.704623565E+01  5.331201500E-07  0.00000E+00  9.000E+00
</event>
<event>
      5  10001  3.52971E+09  1.99139E+01 -1.00000E+00  1.66521E-01
      -3    -1     0     0     0   512  0.000000000E+00  0.000000000E+00  1.543095744E+01  1.543095744E+01  0.000000000E+00  0.00000E+00  9.000E+00
      21    -1     0     0   511   513  0.000000000E+00  0.000000000E+00 -1.539881378E+01  1.539881378E+01  0.000000000E+00  0.00000E+00  9.000E+00
      -3     1     1     2     0   514 -4.159843635E+00  7.899953287E+00  4.627105180E+00  1.006844891E+01  5.000000000E-01  0.00000E+00  9.000E+00
      21     1     1     2   511   512  3.231632348E-01 -7.622217547E+00  5.860814756E+00  9.620383798E+00  2.064765462E-07  0.00000E+00  9.000E+00
      21     1     1     2   514   513  3.836680400E+00 -2.777357400E-01 -1.045577627E+01  1.114093852E+01  1.192092896E-07  0.00000E+00  9.000E+00
</event>
<event>
      5  10001  3.52971E+09  7.78119E+00 -1.00000E+00  2.09253E-01
       1    -1     0     0   515     0  0.000000000E+00  0.000000000E+00  1.718767883E+02  1.718767883E+02  0.000000000E+00  0.00000E+00  9.000E+00
      21    -1     0     0   514   516  0.000000000E+00  0.000000000E+00 -6.069805949E+00  6.069805949E+00  0.000000000E+00  0.00000E+00  9.000E+00
      21     1     1     2   515   516 -8.975673358E+00 -1.721447477E+01  1.494452837E+01  2.449979147E+01  6.307962682E-07  0.00000E+00  9.000E+00
      21     1     1     2   514   511  4.401368029E+00  1.092016352E+01  2.849252867E+01  3.082930751E+01  3.371747881E-07  0.00000E+00  9.000E+00
       1     1     1     2   511     0  4.574305329E+00  6.294311250E+00  1.223699253E+02  1.226174953E+02  3.300000131E-01  0.00000E+00  9.000E+00
</event>
<event>
      5  10001  3.52971E+09  4.50700E+00 -1.00000E+00  2.51820E-01
      21    -1     0     0   512   514  0.000000000E+00  0.000000000E+00  1.971907953E+01  1.971907953E+01  0.000000000E+00  0.00000E+00  9.000E+00
      21    -1     0     0   517   513  0.000000000E+00  0.000000000E+00 -6.903817998E+00  6.903817998E+00  0.000000000E+00  0.00000E+00  9.000E+00
      21     1     1     2   512   513  2.249235341E+00  8.883544885E+00 -3.344587951E-01  9.169966850E+00  9.919350561E-08  0.00000E+00  9.000E+00
      21     1     1     2   517   515  5.944266465E-01 -8.370981675E+00  8.271836656E+00  1.178346124E+01  1.685873940E-07  0.00000E+00  9.000E+00
      21     1     1     2   515   514 -2.843661988E+00 -5.125632102E-01  4.877883672E+00  5.669469434E+00  1.032382731E-07  0.00000E+00  9.000E+00
</event>
<event>
      5  10001  3.52971E+09  6.55866E+00 -1.00000E+00  2.19624E-01
      21    -1     0     0   511   513  0.000000000E+00  0.000000000E+00  4.049359826E+01  4.049359826E+01  0.000000000E+00  0.00000E+00  9.000E+00
      21    -1     0     0   516   514  0.000000000E+00  0.000000000E+00 -2.776842919E+01  2.776842919E+01  0.000000000E+00  0.00000E+00  9.000E+00
      21     1     1     2   511   514 -9.503130444E+00 -1.774220328E+00 -2.441385506E+01  2.625821138E+01  3.371747881E-07  0.00000E+00  9.000E+00
      21     1     1     2   512   513  5.002118775E+00  2.192429488E+00  3.708305080E+01  3.748307079E+01  4.768371582E-07  0.00000E+00  9.000E+00
      21     1     1     2   516   512  4.501011669E+00 -4.182091593E-01  5.597332681E-02  4.520745288E+00  7.388329377E-08  0.00000E+00  9.000E+00
</event>
<event>
      5  10001  3.52971E+09  1.13545E+01 -1.00000E+00  1.89584E-01
      21    -1     0     0   515   512  0.000000000E+00  0.000000000E+00  2.557510353E+00  2.557510353E+00  0.000000000E+00  0.00000E+00  9.000E+00
      21    -1     0     0   516   517  0.000000000E+00  0.000000000E+00 -1.279548788E+02  1.279548788E+02  0.000000000E+00  0.00000E+00  9.000E+00
      21     1     1     2   515   517  9.807482879E+00 -3.575990146E+00 -1.123943798E+01  1.533947170E+01  2.665600750E-07  0.00000E+00  9.000E+00
      21     1     1     2   511   512 -3.517077639E+00  7.126787130E+00 -5.367500319E+01  5.426017782E+01  9.536743164E-07  0.00000E+00  9.000E+00
      21     1     1     2   516   511 -6.290405240E+00 -3.550796984E+00 -6.048292723E+01  6.091273958E+01  6.743495762E-07  0.00000E+00  9.000E+00
</event>
<event>
      5  10001  3.52971E+09  7.17191E+00 -1.00000E+00  2.14070E-01
       2    -1     0     0   514     0  0.000000000E+00  0.000000000E+00  4.878549552E+01  4.878549552E+01  0.000000000E+00  0.00000E+00  9.000E+00
      -2    -1     0     0     0   513  0.000000000E+00  0.000000000E+00 -7.610007709E+00  7.610007709E+00  0.000000000E+00  0.00000E+00  9.000E+00
      -2     1     1     2     0   511 -1.420806373E+01 -3.680666237E+00  5.826337672E+00  1.579466650E+01  3.300000131E-01  0.00000E+00  9.000E+00
      21     1     1     2   514   513  8.800358548E+00 -1.028145335E+00  6.815911397E+00  1.117855275E+01  1.192092896E-07  0.00000E+00  9.000E+00
       2     1     1     2   511     0  5.407705186E+00  4.708811572E+00  2.853323874E+01  2.942228398E+01  3.300000131E-01  0.00000E+00  9.000E+00
</event>
<event>
      5  10001  3.52971E+09  7.45324E+00 -1.00000E+00  2.11768E-01
      21    -1     0     0   511   515  0.000000000E+00  0.000000000E+00  2.109940396E+00  2.109940396E+00  0.000000000E+00  0.00000E+00  9.000E+00
       1    -1     0     0   515     0  0.000000000E+00  0.000000000E+00 -6.597511543E+01  6.597511543E+01  0.000000000E+00  0.00000E+00  9.000E+00
      21     1     1     2   511   512 -9.015656249E+00  2.995846543E+00 -1.832386366E+01  2.064027939E+01  2.384185791E-07  0.00000E+00  9.000E+00
       1     1     1     2   513     0  6.204069969E+00  7.942217950E-01 -3.825099686E+01  3.876040419E+01  3.300000131E-01  0.00000E+00  9.000E+00
      21     1     1     2   512   513  2.811586280E+00 -3.790068338E+00 -7.290314514E+00  8.684372236E+00  1.685873940E-07  0.00000E+00  9.000E+00
</event>
<event>
      5  10001  3.52971E+09  4.29786E+00 -1.00000E+00  2.56323E-01
      21    -1     0     0   514   513  0.000000000E+00  0.000000000E+00  1.845904840E+01  1.845904840E+01  0.000000000E+00  0.00000E+00  9.000E+00
      21    -1     0     0   512   511  0.000000000E+00  0.000000000E+00 -3.474048513E+01  3.474048513E+01  0.000000000E+00  0.00000E+00  9.000E+00
      21     1     1     2   514   516 -2.551822055E+00 -1.158223860E+01  1.351601076E+01  1.798172944E+01  3.371747881E-07  0.00000E+00  9.000E+00
      21     1     1     2   512   513 -8.521758921E-01  1.420605371E+01 -2.028411695E+01  2.477869178E+01  5.331201500E-07  0.00000E+00  9.000E+00
      21     1     1     2   516   511  3.403997947E+00 -2.623815106E+00 -9.513330542E+00  1.043911231E+01  0.000000000E+00  0.00000E+00  9.000E+00
</event>
<event>
      5  10001  3.52971E+09  5.69855E+00 -1.00000E+00  2.28999E-01
      21    -1     0     0   515   512  0.000000000E+00  0.000000000E+00  1.180062963E+01  1.180062963E+01  0.000000000E+00  0.00000E+00  9.000E+00
       2    -1     0     0   517     0  0.000000000E+00  0.000000000E+00 -1.514977443E+03  1.514977443E+03  0.000000000E+00  0.00000E+00  9.000E+00
      21     1     1     2   511   512 -8.317393170E+00  1.469339109E+01  6.207280112E-02  1.688427150E+01  4.983289447E-07  0.00000E+00  9.000E+00
      21     1     1     2   517   511  1.381023163E+01 -1.621065158E+01 -3.080795871E+01  3.745180960E+01  0.000000000E+00  0.00000E+00  9.000E+00
       2     1     1     2   515     0 -5.492838463E+00  1.517260489E+00 -1.472430927E+03  1.472441991E+03  3.300000131E-01  0.00000E+00  9.000E+00
</event>
<event>
      5  10001  3.52971E+09  5.60089E+00 -1.00000E+00  2.30211E-01
      21    -1     0     0   512   511  0.000000000E+00  0.000000000E+00  1.496881332E+02  1.496881332E+02  0.000000000E+00  0.00000E+00  9.000E+00
       2    -1     0     0   511     0  0.000000000E+00  0.000000000E+00 -1.209434558E+02  1.209434558E+02  0.000000000E+00  0.00000E+00  9.000E+00
      21     1     1     2   514   513 -8.304279943E+00 -1.000535102E+01  1.847206634E+01  2.258949644E+01  9.233911863E-07  0.00000E+00  9.000E+00
       2     1     1     2   513     0  6.664936942E+00  4.649757708E+00 -1.186847775E+02  1.189631327E+02  3.300000131E-01  0.00000E+00  9.000E+00
      21     1     1     2   512   514  1.639343001E+00  5.355593314E+00  1.289573886E+02  1.290789599E+02  1.907348633E-06  0.00000E+00  9.000E+00
</event>
<event>
      5  10001  3.52971E+09  3.14199E+01 -1.00000E+00  1.51655E-01
      21    -1     0     0   515   513  0.000000000E+00  0.000000000E+00  4.709416488E+00  4.709416488E+00  0.000000000E+00  0.00000E+00  9.000E+00
      21    -1     0     0   511   514  0.000000000E+00  0.000000000E+00 -8.721334826E+01  8.721334826E+01  0.000000000E+00  0.00000E+00  9.000E+00
      21     1     1     2   515   514  4.704336758E+00  2.302661752E+00 -5.855136531E+00  7.855931471E+00  2.665600750E-07  0.00000E+00  9.000E+00
      21     1     1     2   511   516 -2.942397140E+00 -1.280547427E+00 -8.004355349E+01  8.010785203E+01  0.000000000E+00  0.00000E+00  9.000E+00
      21     1     1     2   516   513 -1.761939618E+00 -1.022114324E+00  3.394758248E+00  3.958981241E+00  3.039252468E-07  0.00000E+00  9.000E+00
</event>
<event>
      5  10001  3.52971E+09  4.18183E+00 -1.00000E+00  2.58994E-01
       1    -1     0     0   511     0  0.000000000E+00  0.000000000E+00  1.201819522E+01  1.201819522E+01  0.000000000E+00  0.00000E+00  9.000E+00
      21    -1     0     0   512   516  0.000000000E+00  0.000000000E+00 -2.040685781E+01  2.040685781E+01  0.000000000E+00  0.00000E+00  9.000E+00
      21     1     1     2   511   516 -9.237934659E+00 -6.120824693E+00 -1.439156137E+01  1.816372677E+01  0.000000000E+00  0.00000E+00  9.000E+00
       1     1     1     2   514     0  5.360576116E+00  3.611452180E+00  7.003070591E+00  9.535735989E+00  3.300000131E-01  0.00000E+00  9.000E+00
      21     1     1     2   512   514  3.877358543E+00  2.509372513E+00 -1.000171812E+00  4.725590263E+00  8.296615426E-08  0.00000E+00  9.000E+00
</event>
<event>
      5  10001  3.52971E+09  1.99771E+01 -1.00000E+00  1.66407E-01
      21    -1     0     0   513   514  0.000000000E+00  0.000000000E+00  2.348693595E+01  2.348693595E+01  0.000000000E+00  0.00000E+00  9.000E+00
      21    -1     0     0   512   513  0.000000000E+00  0.000000000E+00 -4.087655829E+02  4.087655829E+02  0.000000000E+00  0.00000E+00  9.000E+00
      21     1     1     2   512   515  1.170766427E+01  2.112347639E+00 -4.052595912E+02  4.054341718E+02  9.344061824E-06  0.00000E+00  9.000E+00
      21     1     1     2   511   514 -3.955247283E+00 -6.793630243E+00  5.011551654E+00  9.322716499E+00  3.264680848E-07  0.00000E+00  9.000E+00
      21     1     1     2   515   511 -7.752416989E+00  4.681282604E+00  1.496939255E+01  1.749563058E+01  7.152557373E-07  0.00000E+00  9.000E+00
</event>
<event>
      5  10001  3.52971E+09  8.11847E+00 -1.00000E+00  2.06834E-01
       2    -1     0     0   512     0  0.000000000E+00  0.000000000E+00  9.635137895E+02  9.635137895E+02  0.000000000E+00  0.00000E+00  9.000E+00
       4    -1     0     0   515     0  0.000000000E+00  0.000000000E+00 -1.445874438E-01  1.445874438E-01  0.000000000E+00  0.00000E+00  9.000E+00
       2     1     1     2   515     0  2.131993825E+00  9.409081708E+00  5.666392351E+02  5.667214553E+02  3.300000131E-01  0.00000E+00  9.000E+00
       4     1     1     2   513     0  1.037855379E+00 -3.999708757E+00  6.536967046E+01  6.551731550E+01  1.500000000E+00  0.00000E+00  9.000E+00
      21     1     1     2   512   513 -3.169849204E+00 -5.409372952E+00  3.313602965E+02  3.314196061E+02  7.629394531E-06  0.00000E+00  9.000E+00
</event>
<event>
      5  10001  3.52971E+09  5.67988E+00 -1.00000E+00  2.29228E-01
      21    -1     0     0   511   516  0.000000000E+00  0.000000000E+00  8.396428755E+02  8.396428755E+02  0.000000000E+00  0.00000E+00  9.000E+00
      21    -1     0     0   515   514  0.000000000E+00  0.000000000E+00 -2.601876873E+01  2.601876873E+01  0.000000000E+00  0.00000E+00  9.000E+00
      21     1     1     2   511   514  1.874312238E+01  2.121986392E+00 -2.233305924E+01  2.923308054E+01  1.599360450E-06  0.00000E+00  9.000E+00
      21     1     1     2   515   513 -1.306937229E+01 -1.858261355E+00  7.914947667E+02  7.916048429E+02  2.412626389E-05  0.00000E+00  9.000E+00
      21     1     1     2   513   516 -5.673750092E+00 -2.637250368E-01  4.446239929E+01  4.482372075E+01  9.536743164E-07  0.00000E+00  9.000E+00
</event>
<event>
      5  10001  3.52971E+09  8.04509E+00 -1.00000E+00  2.07347E-01
      21    -1     0     0   511   514  0.000000000E+00  0.000000000E+00  2.084142116E+01  2.084142116E+01  0.000000000E+00  0.00000E+00  9.000E+00
      21    -1     0     0   517   516  0.000000000E+00  0.000000000E+00 -1.425169000E+02  1.425169000E+02  0.000000000E+00  0.00000E+00  9.000E+00
      21     1     1     2   512   516 -9.913044728E+00 -9.948793554E-01  1.646326047E+01  1.924310749E+01  6.743495762E-07  0.00000E+00  9.000E+00
      21     1     1     2   517   514  1.284422216E+01  8.486988062E+00 -1.343384833E+02  1.352177174E+02  0.000000000E+00  0.00000E+00  9.000E+00
      21     1     1     2   511   512 -2.931177428E+00 -7.492108707E+00 -3.800256044E+00  8.897496277E+00  1.115100797E-07  0.00000E+00  9.000E+00
</event>
<event>
      5  10001  3.52971E+09  3.15410E+01 -1.00000E+00  1.51541E-01
      21    -1     0     0   513   512  0.000000000E+00  0.000000000E+00  1.037627908E+02  1.037627908E+02  0.000000000E+00  0.00000E+00  9.000E+00
      21    -1     0     0   515   513  0.000000000E+00  0.000000000E+00 -3.891282594E+00  3.891282594E+00  0.000000000E+00  0.00000E+00  9.000E+00
      21     1     1     2   517   512  1.084223819E+01 -5.567114865E+00  3.998070749E+01  4.179717537E+01  6.743495762E-07  0.00000E+00  9.000E+00
      21     1     1     2   514   517 -4.298986985E+00 -7.879829448E+00  3.986773624E+01  4.086574842E+01  6.743495762E-07  0.00000E+00  9.000E+00
      21     1     1     2   515   514 -6.543251206E+00  1.344694431E+01  2.002306447E+01  2.499114960E+01  5.840038640E-07  0.00000E+00  9.000E+00
</event>
<event>
      5  10001  3.52971E+09  7.22381E+00 -1.00000E+00  2.13634E-01
      21    -1     0     0   511   514  0.000000000E+00  0.000000000E+00  7.440205316E+01  7.440205316E+01  0.000000000E+00  0.00000E+00  9.000E+00
      21    -1     0     0   512   516  0.000000000E+00  0.000000000E+00 -8.778210898E+01  8.778210898E+01  0.000000000E+00  0.00000E+00  9.000E+00
      21     1     1     2   511   516 -1.114850219E+01 -5.159824440E-01  7.259642854E+01  7.344928030E+01  1.348699152E-06  0.00000E+00  9.000E+00
      21     1     1     2   513   514  1.200874668E+01 -5.256313860E+00 -7.642866834E+01  7.754469793E+01  1.651812370E-06  0.00000E+00  9.000E+00
      21     1     1     2   512   513 -8.602444865E-01  5.772296304E+00 -9.547816023E+00  1.119018391E+01  2.064765462E-07  0.00000E+00  9.000E+00
</event>
<event>
      5  10001  3.52971E+09  7.45236E+00 -1.00000E+00  2.11775E-01
      21    -1     0     0   515   514  0.000000000E+00  0.000000000E+00  2.449280901E+00  2.449280901E+00  0.000000000E+00  0.00000E+00  9.000E+00
      21    -1     0     0   512   515  0.000000000E+00  0.000000000E+00 -9.361325381E+01  9.361325381E+01  0.000000000E+00  0.00000E+00  9.000E+00
      21     1     1     2   513   514  1.372004379E-01  1.316019419E+01 -3.214706094E+01  3.473676816E+01  4.768371582E-07  0.00000E+00  9.000E+00
      21     1     1     2   511   513 -1.632052439E+00 -1.061901704E+01 -2.538569934E+01  2.756557363E+01  3.371747881E-07  0.00000E+00  9.000E+00
      21     1     1     2   512   511  1.494852001E+00 -2.541177147E+00 -3.363121262E+01  3.376019292E+01  8.259061849E-07  0.00000E+00  9.000E+00
</event>
<event>
      5  10001  3.52971E+09  6.74686E+00 -1.00000E+00  2.17834E-01
      21    -1     0     0   516   511  0.000000000E+00  0.000000000E+00  2.628816411E+02  2.628816411E+02  0.000000000E+00  0.00000E+00  9.000E+00
      21    -1     0     0   512   516  0.000000000E+00  0.000000000E+00 -3.390607765E+00  3.390607765E+00  0.000000000E+00  0.00000E+00  9.000E+00
      21     1     1     2   512   517  5.600986155E+00 -8.943263307E+00  5.355620658E+00  1.183366710E+01  5.654593098E-07  0.00000E+00  9.000E+00
      21     1     1     2   517   513 -5.863869479E+00  4.730885639E+00  1.196669864E+02  1.199039360E+02  0.000000000E+00  0.00000E+00  9.000E+00
      21     1     1     2   513   511  2.628833247E-01  4.212377668E+00  1.344684263E+02  1.345346458E+02  0.000000000E+00  0.00000E+00  9.000E+00
</event>
<event>
      5  10001  3.52971E+09  9.46808E+00 -1.00000E+00  1.98537E-01
      21    -1     0     0   514   515  0.000000000E+00  0.000000000E+00  8.591355098E+02  8.591355098E+02  0.000000000E+00  0.00000E+00  9.000E+00
      21    -1     0     0   516   511  0.000000000E+00  0.000000000E+00 -5.511639475E+00  5.511639475E+00  0.000000000E+00  0.00000E+00  9.000E+00
      21     1     1     2   514   511  3.464053663E+01  1.323468857E+01  5.661723318E+02  5.673854360E+02  1.078959322E-05  0.00000E+00  9.000E+00
      21     1     1     2   512   515 -3.064418070E+01 -2.181802707E+01  2.850128119E+02  2.874845997E+02  3.814697266E-06  0.00000E+00  9.000E+00
      21     1     1     2   516   512 -3.996355934E+00  8.583338506E+00  2.438726592E+00  9.777113483E+00  3.068336886E-07  0.00000E+00  9.000E+00
</event>
<event>
      5  10001  3.52971E+09  5.98061E+00 -1.00000E+00  2.25684E-01
      21    -1     0     0   512   515  0.000000000E+00  0.000000000E+00  9.496247596E+00  9.496247596E+00  0.000000000E+00  0.00000E+00  9.000E+00
      21    -1     0     0   513   512  0.000000000E+00  0.000000000E+00 -3.530208976E+01  3.530208976E+01  0.000000000E+00  0.00000E+00  9.000E+00
      -4     1     1     2     0   511 -4.098933287E+00 -1.019218007E+01 -2.499962800E-01  1.109027894E+01  1.500000000E+00  0.00000E+00  9.000E+00
       4     1     1     2   513     0  7.646882054E+00  9.248076746E+00 -2.713769277E+01  2.971037020E+01  1.500000000E+00  0.00000E+00  9.000E+00
      21     1     1     2   511   515 -3.547948767E+00  9.441033273E-01  1.581846883E+00  3.997688220E+00  4.214684851E-08  0.00000E+00  9.000E+00
</event>
<event>
      5  10001  3.52971E+09  2.41370E+01 -1.00000E+00  1.59899E-01
      21    -1     0     0   514   516  0.000000000E+00  0.000000000E+00  1.117892211E+02  1.117892211E+02  0.000000000E+00  0.00000E+00  9.000E+00
      21    -1     0     0   515   514  0.000000000E+00  0.000000000E+00 -1.267608805E+01  1.267608805E+01  0.000000000E+00  0.00000E+00  9.000E+00
      21     1     1     2   513   516 -6.815676865E+00 -1.198722735E+01  8.742445428E+01  8.850526695E+01  1.651812370E-06  0.00000E+00  9.000E+00
      -3     1     1     2     0   513  1.928501237E+01  7.264251146E+00  6.137097817E+00  2.150802214E+01  5.000000000E-01  0.00000E+00  9.000E+00
       3     1     1     2   515     0 -1.246933551E+01  4.722976205E+00  5.551580929E+00  1.445202003E+01  5.000000000E-01  0.00000E+00  9.000E+00
</event>
<event>
      5  10001  3.52971E+09  1.15992E+01 -1.00000E+00  1.88588E-01
       2    -1     0     0   514     0  0.000000000E+00  0.000000000E+00  7.512038060E+01  7.512038060E+01  0.000000000E+00  0.00000E+00  9.000E+00
      21    -1     0     0   511   512  0.000000000E+00  0.000000000E+00 -1.019105390E+01  1.019105390E+01  0.000000000E+00  0.00000E+00  9.000E+00
      21     1     1     2   513   512  9.225047438E+00 -1.861549103E+00 -7.218155562E-02  9.411273850E+00  4.001501981E-07  0.00000E+00  9.000E+00
       2     1     1     2   511     0 -1.053105238E+01 -4.786845447E+00  6.764462828E+01  6.862741135E+01  3.300000131E-01  0.00000E+00  9.000E+00
      21     1     1     2   514   513  1.306004940E+00  6.648394550E+00 -2.643120016E+00  7.272749302E+00  3.674277069E-07  0.00000E+00  9.000E+00
</event>
<event>
      5  10001  3.52971E+09  1.43113E+01 -1.00000E+00  1.79325E-01
      21    -1     0     0   515   511  0.000000000E+00  0.000000000E+00  3.342107096E+02  3.342107096E+02  0.000000000E+00  0.00000E+00  9.000E+00
      21    -1     0     0   516   513  0.000000000E+00  0.000000000E+00 -7.816800374E-01  7.816800374E-01  0.000000000E+00  0.00000E+00  9.000E+00
      21     1     1     2   515   513  1.067138108E+01  1.005969437E+00  7.555500711E+01  7.631152893E+01  9.536743164E-07  0.00000E+00  9.000E+00
      21     1     1     2   512   511 -9.574918185E+00  7.273829856E+00  1.599025969E+02  1.603540712E+02  0.000000000E+00  0.00000E+00  9.000E+00
      21     1     1     2   516   512 -1.096462890E+00 -8.279799292E+00  9.797142559E+01  9.832678953E+01  0.000000000E+00  0.00000E+00  9.000E+00
</event>
<event>
      5  10001  3.52971E+09  5.06238E+00 -1.00000E+00  2.37572E-01
      21    -1     0     0   513   511  0.000000000E+00  0.000000000E+00  2.290102679E+01  2.290102679E+01  0.000000000E+00  0.00000E+00  9.000E+00
       2    -1     0     0   511     0  0.000000000E+00  0.000000000E+00 -1.145841011E+03  1.145841011E+03  0.000000000E+00  0.00000E+00  9.000E+00
      21     1     1     2   512   514 -1.515264445E+01  7.342095692E-01 -1.345136827E+01  2.027513270E+01  1.092571186E-06  0.00000E+00  9.000E+00
       2     1     1     2   514     0  1.009317427E+01 -5.627655825E-01 -1.128625976E+03  1.128671295E+03  3.300000131E-01  0.00000E+00  9.000E+00
      21     1     1     2   513   512  5.059470186E+00 -1.714439868E-01  1.913736018E+01  1.979561028E+01  1.735713456E-06  0.00000E+00  9.000E+00
</event>
<event>
      5  10001  3.52971E+09  9.10813E+00 -1.00000E+00  2.00562E-01
      21    -1     0     0   515   514  0.000000000E+00  0.000000000E+00  7.488115467E+00  7.488115467E+00  0.000000000E+00  0.00000E+00  9.000E+00
      21    -1     0     0   511   512  0.000000000E+00  0.000000000E+00 -3.479415316E+02  3.479415316E+02  0.000000000E+00  0.00000E+00  9.000E+00
      21     1     1     2   515   512 -2.605869873E+00 -1.240834569E+01  1.338802967E+00  1.274950956E+01  4.150983178E-07  0.00000E+00  9.000E+00
      21     1     1     2   511   516 -9.757840127E-01  5.352057444E+00 -3.049113016E+02  3.049598310E+02  7.629394531E-06  0.00000E+00  9.000E+00
      21     1     1     2   516   514  3.581653886E+00  7.056288247E+00 -3.688091751E+01  3.772030653E+01  4.768371582E-07  0.00000E+00  9.000E+00
</event>
<event>
      5  10001  3.52971E+09  1.34979E+01 -1.00000E+00  1.81808E-01
       4    -1     0     0   512     0  0.000000000E+00  0.000000000E+00  2.917763840E+00  2.917763840E+00  0.000000000E+00  0.00000E+00  9.000E+00
      21    -1     0     0   516   512  0.000000000E+00  0.000000000E+00 -1.841327000E+02  1.841327000E+02  0.000000000E+00  0.00000E+00  9.000E+00
      21     1     1     2   516   513  3.524841747E+00  1.006598625E+01 -1.177585969E+02  1.182405841E+02  1.348699152E-06  0.00000E+00  9.000E+00
       4     1     1     2   511     0 -6.940315614E+00 -1.008973242E+01 -1.190317693E+01  1.714369570E+01  1.500000000E+00  0.00000E+00  9.000E+00
      21     1     1     2   513   511  3.415473867E+00  2.374616811E-02 -5.155316237E+01  5.166618407E+01  6.743495762E-07  0.00000E+00  9.000E+00
</event>
<event>
      5  10001  3.52971E+09  2.77099E+00 -1.00000E+00  3.07729E-01
      21    -1     0     0   511   515  0.000000000E+00  0.000000000E+00  1.596973999E+00  1.596973999E+00  0.000000000E+00  0.00000E+00  9.000E+00
      21    -1     0     0   512   511  0.000000000E+00  0.000000000E+00 -2.342221311E+02  2.342221311E+02  0.000000000E+00  0.00000E+00  9.000E+00
      -2     1     1     2     0   515  4.426518002E+00  1.196300383E+01 -2.984949859E+01  3.246242425E+01  3.300000131E-01  0.00000E+00  9.000E+00
       2     1     1     2   514     0 -6.815237608E+00 -1.055946261E+01 -1.698631265E+02  1.703277440E+02  3.300000131E-01  0.00000E+00  9.000E+00
      21     1     1     2   512   514  2.388719606E+00 -1.403541222E+00 -3.291253194E+01  3.302893683E+01  4.768371582E-07  0.00000E+00  9.000E+00
</event>
<event>
      5  10001  3.52971E+09  3.92052E+00 -1.00000E+00  2.65532E-01
      21    -1     0     0   513   514  0.000000000E+00  0.000000000E+00  7.066437328E+01  7.066437328E+01  0.000000000E+00  0.00000E+00  9.000E+00
      21    -1     0     0   512   516  0.000000000E+00  0.000000000E+00 -3.867516639E+00  3.867516639E+00  0.000000000E+00  0.00000E+00  9.000E+00
      21     1     1     2   513   516  3.845105146E+00  8.787291381E+00  3.586497885E+00  1.024032668E+01  2.149076030E-07  0.00000E+00  9.000E+00
      21     1     1     2   511   514 -4.853585240E+00 -8.495189437E+00  4.501765096E+01  4.606858399E+01  6.743495762E-07  0.00000E+00  9.000E+00
      21     1     1     2   512   511  1.008480094E+00 -2.921019441E-01  1.819270780E+01  1.822297925E+01  2.384185791E-07  0.00000E+00  9.000E+00
</event>
<event>
      5  10001  3.52971E+09  6.02295E+00 -1.00000E+00  2.25208E-01
      21    -1     0     0   515   514  0.000000000E+00  0.000000000E+00  7.891078851E+01  7.891078851E+01  0.000000000E+00  0.00000E+00  9.000E+00
      21    -1     0     0   513   515  0.000000000E+00  0.000000000E+00 -7.569260925E+00  7.569260925E+00  0.000000000E+00  0.00000E+00  9.000E+00
      21     1     1     2   511   514 -9.203633123E+00  6.842987333E+00  6.512228840E+01  6.612447191E+01  1.348699152E-06  0.00000E+00  9.000E+00
      21     1     1     2   512   511  5.974285721E+00 -1.192700744E+01  3.858040173E+00  1.388632674E+01  3.449868233E-07  0.00000E+00  9.000E+00
      21     1     1     2   513   512  3.229347402E+00  5.084020104E+00  2.361199012E+00  6.469250794E+00  1.429269172E-07  0.00000E+00  9.000E+00
</event>
<event>
      5  10001  3.52971E+09  1.65360E+01 -1.00000E+00  1.73482E-01
      21    -1     0     0   511   512  0.000000000E+00  0.000000000E+00  2.872431531E+02  2.872431531E+02  0.000000000E+00  0.00000E+00  9.000E+00
      21    -1     0     0   512   515  0.000000000E+00  0.000000000E+00 -6.092907023E-01  6.092907023E-01  0.000000000E+00  0.00000E+00  9.000E+00
      -3     1     1     2     0   515  4.672203160E+00  5.721729433E+00  4.826472069E+01  4.882930404E+01  5.000000000E-01  0.00000E+00  9.000E+00
       3     1     1     2   514     0 -8.608897752E+00  7.629654783E-01  7.887023481E+01  7.934392967E+01  5.000000000E-01  0.00000E+00  9.000E+00
      21     1     1     2   511   514  3.936694593E+00 -6.484694912E+00  1.594989069E+02  1.596792101E+02  1.907348633E-06  0.00000E+00  9.000E+00
</event>
<event>
      5  10001  3.52971E+09  1.41209E+01 -1.00000E+00  1.79887E-01
      21    -1     0     0   513   514  0.000000000E+00  0.000000000E+00  2.563715403E+01  2.563715403E+01  0.000000000E+00  0.00000E+00  9.000E+00
      21    -1     0     0   512   516  0.000000000E+00  0.000000000E+00 -4.551045146E+01  4.551045146E+01  0.000000000E+00  0.00000E+00  9.000E+00
      21     1     1     2   513   516 -5.826703051E+00  1.013428005E+01 -3.969183151E+01  4.137747683E+01  0.000000000E+00  0.00000E+00  9.000E+00
      21     1     1     2   512   515  5.420743201E+00 -1.525054152E+01  1.100871458E+01  1.957435236E+01  3.153981341E-07  0.00000E+00  9.000E+00
      21     1     1     2   515   514  4.059598498E-01  5.116261475E+00  8.809819495E+00  1.019577630E+01  1.192092896E-07  0.00000E+00  9.000E+00
</event>
<event>
      5  10001  3.52971E+09  8.35997E+00 -1.00000E+00  2.05197E-01
      21    -1     0     0   515   512  0.000000000E+00  0.000000000E+00  8.453410771E+00  8.453410771E+00  0.000000000E+00  0.00000E+00  9.000E+00
      -3    -1     0     0     0   511  0.000000000E+00  0.000000000E+00 -8.520501352E+01  8.520501352E+01  0.000000000E+00  0.00000E+00  9.000E+00
      -3     1     1     2     0   512  9.582973612E+00 -9.394458828E+00 -7.381048133E+01  7.502217268E+01  5.000000000E-01  0.00000E+00  9.000E+00
      21     1     1     2   515   513 -2.116521526E+00  6.173135674E+00  4.244351382E+00  7.784714900E+00  5.430241572E-07  0.00000E+00  9.000E+00
      21     1     1     2   513   511 -7.466452087E+00  3.221323154E+00 -7.185472809E+00  1.085153672E+01  2.230201594E-07  0.00000E+00  9.000E+00
</event>
<event>
      5  10001  3.52971E+09  7.60089E+00 -1.00000E+00  2.10614E-01
      21    -1     0     0   514   513  0.000000000E+00  0.000000000E+00  5.560517183E+02  5.560517183E+02  0.000000000E+00  0.00000E+00  9.000E+00
      21    -1     0     0   516   514  0.000000000E+00  0.000000000E+00 -2.384806189E-01  2.384806189E-01  0.000000000E+00  0.00000E+00  9.000E+00
      21     1     1     2   511   513 -3.264696863E-01  1.055977036E+01  3.242191314E+02  3.243912152E+02  3.814697266E-06  0.00000E+00  9.000E+00
      -4     1     1     2     0   511  1.566023030E+00 -2.341046284E+00  8.691738237E+01  8.697594083E+01  1.500000000E+00  0.00000E+00  9.000E+00
       4     1     1     2   516     0 -1.239553344E+00 -8.218724071E+00  1.446767239E+02  1.449230429E+02  1.500000000E+00  0.00000E+00  9.000E+00
</event>
<event>
      5  10001  3.52971E+09  7.41638E+00 -1.00000E+00  2.12062E-01
      -1    -1     0     0     0   513  0.000000000E+00  0.000000000E+00  3.120614225E+02  3.120614225E+02  0.000000000E+00  0.00000E+00  9.000E+00
      21    -1     0     0   511   514  0.000000000E+00  0.000000000E+00 -1.968676045E+01  1.968676045E+01  0.000000000E+00  0.00000E+00  9.000E+00
      -1     1     1     2     0   514  6.454099253E+00 -7.456473193E+00  2.631264643E+02  2.633114116E+02  3.300000131E-01  0.00000E+00  9.000E+00
      21     1     1     2   511   512 -3.854346267E+00  1.440221994E+01 -1.641511614E+01  2.217512034E+01  9.233911863E-07  0.00000E+00  9.000E+00
      21     1     1     2   512   513 -2.599752986E+00 -6.945746743E+00  4.566331394E+01  4.626165100E+01  1.168007728E-06  0.00000E+00  9.000E+00
</event>
<event>
      5  10001  3.52971E+09  2.29933E+01 -1.00000E+00  1.61519E-01
      21    -1     0     0   515   511  0.000000000E+00  0.000000000E+00  9.025543166E+00  9.025543166E+00  0.000000000E+00  0.00000E+00  9.000E+00
      21    -1     0     0   513   515  0.000000000E+00  0.000000000E+00 -1.989270519E+01  1.989270519E+01  0.000000000E+00  0.00000E+00  9.000E+00
      21     1     1     2   513   516  5.291245003E-01  3.004815266E+00 -4.565564614E+00  5.491199119E+00  1.685873940E-07  0.00000E+00  9.000E+00
      21     1     1     2   516   514 -4.075379638E+00  7.061573703E+00  3.559264534E+00  8.896229897E+00  1.788139343E-07  0.00000E+00  9.000E+00
      21     1     1     2   514   511  3.546255137E+00 -1.006638897E+01 -9.860861940E+00  1.453081934E+01  1.685873940E-07  0.00000E+00  9.000E+00
</event>
<event>
      5  10001  3.52971E+09  1.14776E+01 -1.00000E+00  1.89079E-01
      21    -1     0     0   512   516  0.000000000E+00  0.000000000E+00  3.210410240E+02  3.210410240E+02  0.000000000E+00  0.00000E+00  9.000E+00
       2    -1     0     0   513     0  0.000000000E+00  0.000000000E+00 -8.833005913E+01  8.833005913E+01  0.000000000E+00  0.00000E+00  9.000E+00
      21     1     1     2   512   511 -1.112383214E+01  1.050108406E+01  7.301750605E+01  7.460273854E+01  1.348699152E-06  0.00000E+00  9.000E+00
      21     1     1     2   513   516  9.577734099E+00  8.718599054E-01  2.467602928E+02  2.469476366E+02  4.672030912E-06  0.00000E+00  9.000E+00
       2     1     1     2   511     0  1.546098046E+00 -1.137294396E+01 -8.706683396E+01  8.782070798E+01  3.300000131E-01  0.00000E+00  9.000E+00
</event>
<event>
      5  10001  3.52971E+09  5.14175E+00 -1.00000E+00  2.36407E-01
      21    -1     0     0   512   513  0.000000000E+00  0.000000000E+00  4.925872910E+00  4.925872910E+00  0.000000000E+00  0.00000E+00  9.000E+00
       2    -1     0     0   511     0  0.000000000E+00  0.000000000E+00 -6.459860979E+02  6.459860979E+02  0.000000000E+00  0.00000E+00  9.000E+00
      21     1     1     2   511   513  1.364838335E+01  2.699746267E+00 -7.682022084E+00  1.589278016E+01  1.258773332E-06  0.00000E+00  9.000E+00
       2     1     1     2   514     0 -8.951269506E+00 -6.082712233E-01 -6.257822077E+02  6.258466071E+02  3.300000131E-01  0.00000E+00  9.000E+00
      21     1     1     2   512   514 -4.697113840E+00 -2.091475044E+00 -7.595995223E+00  9.172583590E+00  1.884864366E-07  0.00000E+00  9.000E+00
</event>
<event>
      5  10001  3.52971E+09  1.23852E+01 -1.00000E+00  1.85593E-01
      21    -1     0     0   515   511  0.000000000E+00  0.000000000E+00  3.001139035E-01  3.001139035E-01  0.000000000E+00  0.00000E+00  9.000E+00
      -2    -1     0     0     0   515  0.000000000E+00  0.000000000E+00 -8.665688497E+02  8.665688497E+02  0.000000000E+00  0.00000E+00  9.000E+00
      -2     1     1     2     0   513  1.474341777E+00 -4.825576736E+00 -7.226928097E+02  7.227104994E+02  3.300000131E-01  0.00000E+00  9.000E+00
      21     1     1     2   512   511 -5.968468476E+00  5.795137908E+00 -9.708153010E+01  9.743731178E+01  0.000000000E+00  0.00000E+00  9.000E+00
      21     1     1     2   513   512  4.494126699E+00 -9.695611718E-01 -4.649439595E+01  4.672115237E+01  1.168007728E-06  0.00000E+00  9.000E+00
</event>
<event>
      5  10001  3.52971E+09  7.00773E+00 -1.00000E+00  2.15480E-01
      21    -1     0     0   513   511  0.000000000E+00  0.000000000E+00  4.520892614E+01  4.520892614E+01  0.000000000E+00  0.00000E+00  9.000E+00
      21    -1     0     0   514   512  0.000000000E+00  0.000000000E+00 -1.091983295E+01  1.091983295E+01  0.000000000E+00  0.00000E+00  9.000E+00
      21     1     1     2   513   512  1.492963138E+01  9.538937709E+00  2.416542531E+01  2.996419540E+01  4.768371582E-07  0.00000E+00  9.000E+00
       5     1     1     2   514     0 -1.033561050E+01 -4.700651904E+00 -9.615675138E-01  1.236469112E+01  4.800000191E+00  0.00000E+00  9.000E+00
      -5     1     1     2     0   511 -4.594020880E+00 -4.838285805E+00  1.108523539E+01  1.379987257E+01  4.800000191E+00  0.00000E+00  9.000E+00
</event>
<event>
      5  10001  3.52971E+09  3.66488E+00 -1.00000E+00  2.72749E-01
      21    -1     0     0   515   511  0.000000000E+00  0.000000000E+00  3.979214559E+01  3.979214559E+01  0.000000000E+00  0.00000E+00  9.000E+00
       1    -1     0     0   514     0  0.000000000E+00  0.000000000E+00 -2.622663913E+00  2.622663913E+00  0.000000000E+00  0.00000E+00  9.000E+00
      21     1     1     2   514   511 -4.909822607E-01  9.703948748E+00  1.839885684E+01  2.080686468E+01  2.384185791E-07  0.00000E+00  9.000E+00
       1     1     1     2   512     0 -1.319663261E+00 -6.139338820E+00  1.423307959E+01  1.556028428E+01  3.300000131E-01  0.00000E+00  9.000E+00
      21     1     1     2   515   512  1.810645522E+00 -3.564609929E+00  4.537545252E+00  6.047660545E+00  1.032382731E-07  0.00000E+00  9.000E+00
</event>
<event>
      5  10001  3.52971E+09  5.92799E+00 -1.00000E+00  2.26283E-01
      21    -1     0     0   513   512  0.000000000E+00  0.000000000E+00  6.430993289E+01  6.430993289E+01  0.000000000E+00  0.00000E+00  9.000E+00
      21    -1     0     0   511   516  0.000000000E+00  0.000000000E+00 -2.514800748E+00  2.514800748E+00  0.000000000E+00  0.00000E+00  9.000E+00
      21     1     1     2   513   516  8.091025027E+00  6.033420690E+00  2.644762258E+01  2.830801284E+01  3.371747881E-07  0.00000E+00  9.000E+00
      21     1     1     2   511   514 -9.702560703E+00 -6.974147754E+00  3.441564533E+01  3.643096299E+01  6.743495762E-07  0.00000E+00  9.000E+00
      21     1     1     2   514   512  1.611535676E+00  9.407270643E-01  9.318642321E-01  2.085757798E+00  3.494632065E-08  0.00000E+00  9.000E+00
</event>
<event>
      5  10001  3.52971E+09  5.23999E+00 -1.00000E+00  2.35006E-01
       2    -1     0     0   511     0  0.000000000E+00  0.000000000E+00  6.971751173E+01  6.971751173E+01  0.000000000E+00  0.00000E+00  9.000E+00
       2    -1     0     0   512     0  0.000000000E+00  0.000000000E+00 -2.784706236E+02  2.784706236E+02  0.000000000E+00  0.00000E+00  9.000E+00
      21     1     1     2   511   514  9.183574519E+00  8.218330959E+00 -4.305761773E+00  1.305444710E+01  4.730972012E-07  0.00000E+00  9.000E+00
       2     1     1     2   514     0 -1.283055101E+01 -1.198089693E+01 -2.693988161E+02  2.699703613E+02  3.300000131E-01  0.00000E+00  9.000E+00
       2     1     1     2   512     0  3.646976488E+00  3.762565973E+00  6.495146604E+01  6.516332696E+01  3.300000131E-01  0.00000E+00  9.000E+00
</event>
<event>
      5  10001  3.52971E+09  2.07605E+00 -1.00000E+00  3.55659E-01
      21    -1     0     0   512   515  0.000000000E+00  0.000000000E+00  9.423790906E+01  9.423790906E+01  0.000000000E+00  0.00000E+00  9.000E+00
      21    -1     0     0   511   513  0.000000000E+00  0.000000000E+00 -1.611893296E+01  1.611893296E+01  0.000000000E+00  0.00000E+00  9.000E+00
      -2     1     1     2     0   515 -5.272520382E+00 -1.920584612E+01  2.743334716E+01  3.390223345E+01  3.300000131E-01  0.00000E+00  9.000E+00
      21     1     1     2   512   513  4.060456108E+00  1.752051058E+01  6.220103289E+01  6.474893117E+01  6.743495762E-07  0.00000E+00  9.000E+00
       2     1     1     2   511     0  1.212064273E+00  1.685335544E+00 -1.151540394E+01  1.170567741E+01  3.300000131E-01  0.00000E+00  9.000E+00
</event>
<event>
      5  10001  3.52971E+09  7.73889E+00 -1.00000E+00  2.09567E-01
      21    -1     0     0   514   513  0.000000000E+00  0.000000000E+00  8.463171541E+00  8.463171541E+00  0.000000000E+00  0.00000E+00  9.000E+00
      21    -1     0     0   512   514  0.000000000E+00  0.000000000E+00 -1.833555998E+02  1.833555998E+02  0.000000000E+00  0.00000E+00  9.000E+00
      21     1     1     2   516   513 -5.912128920E+00  5.228208276E+00 -2.619269968E+00  8.315527964E+00  8.940696716E-08  0.00000E+00  9.000E+00
      21     1     1     2   511   516  1.356292773E+01 -6.392551772E+00 -4.645561851E+00  1.569710074E+01  3.953724850E-07  0.00000E+00  9.000E+00
      21     1     1     2   512   511 -7.650798809E+00  1.164343496E+00 -1.676275965E+02  1.678061427E+02  2.697398305E-06  0.00000E+00  9.000E+00
</event>
<event>
      5  10001  3.52971E+09  5.30967E+00 -1.00000E+00  2.34038E-01
      21    -1     0     0   515   516  0.000000000E+00  0.000000000E+00  2.722646204E+01  2.722646204E+01  0.000000000E+00  0.00000E+00  9.000E+00
      21    -1     0     0   513   515  0.000000000E+00  0.000000000E+00 -7.637193283E+01  7.637193283E+01  0.000000000E+00  0.00000E+00  9.000E+00
      21     1     1     2   511   516  8.880258595E+00 -1.158837062E+01  2.319590893E+01  2.740801922E+01  0.000000000E+00  0.00000E+00  9.000E+00
      21     1     1     2   512   511 -5.694228208E+00  7.340800850E+00 -1.010039642E+01  1.372332321E+01  4.129530925E-07  0.00000E+00  9.000E+00
      21     1     1     2   513   512 -3.186030386E+00  4.247569771E+00 -6.224098330E+01  6.246705244E+01  6.743495762E-07  0.00000E+00  9.000E+00
</event>
<event>
      5  10001  3.52971E+09  4.29055E+00 -1.00000E+00  2.56487E-01
       1    -1     0     0   513     0  0.000000000E+00  0.000000000E+00  1.911617249E+01  1.911617249E+01  0.000000000E+00  0.00000E+00  9.000E+00
      -2    -1     0     0     0   512  0.000000000E+00  0.000000000E+00 -8.369379656E+01  8.369379656E+01  0.000000000E+00  0.00000E+00  9.000E+00
      21     1     1     2   513   512 -8.023476048E+00 -1.913006474E+00 -7.259408466E+00  1.098793761E+01  1.192092896E-07  0.00000E+00  9.000E+00
       1     1     1     2   514     0  1.203428983E+01  3.436432379E+00  1.490803762E+01  1.946770878E+01  3.300000131E-01  0.00000E+00  9.000E+00
      -2     1     1     2     0   514 -4.010813786E+00 -1.523425905E+00 -7.222625322E+01  7.235432267E+01  3.300000131E-01  0.00000E+00  9.000E+00
</event>
<event>
      5  10001  3.52971E+09  4.90244E+00 -1.00000E+00  2.44245E-01
      21    -1     0     0   511   513  0.000000000E+00  0.000000000E+00  3.840938687E+00  3.840938687E+00  0.000000000E+00  0.00000E+00  9.000E+00
      21    -1     0     0   516   515  0.000000000E+00  0.000000000E+00 -2.737763382E+02  2.737763382E+02  0.000000000E+00  0.00000E+00  9.000E+00
      21     1     1     2   511   515 -1.691920357E+00 -1.257513717E+01 -2.447840629E+02  2.451126968E+02  2.697398305E-06  0.00000E+00  9.000E+00
      21     1     1     2   516   512  6.284391563E+00  1.429069173E+01 -2.028631489E+01  2.559789091E+01  7.152557373E-07  0.00000E+00  9.000E+00
      21     1     1     2   512   513 -4.592471206E+00 -1.715554557E+00 -4.865021700E+00  6.906689175E+00  2.384185791E-07  0.00000E+00  9.000E+00
</event>
<event>
      5  10001  3.52971E+09  6.55598E+00 -1.00000E+00  2.19650E-01
      21    -1     0     0   512   513  0.000000000E+00  0.000000000E+00  2.360239917E+01  2.360239917E+01  0.000000000E+00  0.00000E+00  9.000E+00
      -1    -1     0     0     0   514  0.000000000E+00  0.000000000E+00 -1.174204871E+01  1.174204871E+01  0.000000000E+00  0.00000E+00  9.000E+00
      -1     1     1     2     0   513 -1.420671900E+01 -2.113894155E+00  1.358559657E+00  1.443100819E+01  3.300000131E-01  0.00000E+00  9.000E+00
      21     1     1     2   512   511  1.147568247E+01  6.097975687E+00  9.163705187E+00  1.590126059E+01  2.920019320E-07  0.00000E+00  9.000E+00
      21     1     1     2   511   514  2.731036523E+00 -3.984081532E+00  1.338085618E+00  5.012179093E+00  7.598131170E-08  0.00000E+00  9.000E+00
</event>
<event>
      5  10001  3.52971E+09  6.84113E+00 -1.00000E+00  2.16967E-01
       1    -1     0     0   514     0  0.000000000E+00  0.000000000E+00  3.859697633E+01  3.859697633E+01  0.000000000E+00  0.00000E+00  9.000E+00
      21    -1     0     0   513   512  0.000000000E+00  0.000000000E+00 -1.435533694E+02  1.435533694E+02  0.000000000E+00  0.00000E+00  9.000E+00
      21     1     1     2   514   512 -7.664990636E+00  8.364244900E+00  6.475360592E+00  1.306303828E+01  4.986882368E-07  0.00000E+00  9.000E+00
       1     1     1     2   511     0  1.272623422E+01 -3.761614967E+00  2.721077768E+01  3.027609794E+01  3.300000131E-01  0.00000E+00  9.000E+00
      21     1     1     2   513   511 -5.061243586E+00 -4.602629933E+00 -1.386425313E+02  1.388112095E+02  0.000000000E+00  0.00000E+00  9.000E+00
</event>
<event>
      5  10001  3.52971E+09  1.68201E+01 -1.00000E+00  1.72819E-01
      21    -1     0     0   515   511  0.000000000E+00  0.000000000E+00  3.938116192E+01  3.938116192E+01  0.000000000E+00  0.00000E+00  9.000E+00
      21    -1     0     0   513   515  0.000000000E+00  0.000000000E+00 -1.620282540E+02  1.620282540E+02  0.000000000E+00  0.00000E+00  9.000E+00
      21     1     1     2   513   516  2.308153829E+01 -2.249106484E+01 -1.453983143E+02  1.489270802E+02  0.000000000E+00  0.00000E+00  9.000E+00
      21     1     1     2   516   512 -3.218979550E+01  1.971702059E+01  1.884354107E+01  4.219031731E+01  9.536743164E-07  0.00000E+00  9.000E+00
      21     1     1     2   512   511  9.108257205E+00  2.774044253E+00  3.907681167E+00  1.029201841E+01  2.920019320E-07  0.00000E+00  9.000E+00
</event>
<event>
      5  10001  3.52971E+09  1.33508E+01 -1.00000E+00  1.82281E-01
      21    -1     0     0   514   516  0.000000000E+00  0.000000000E+00  2.552646525E+00  2.552646525E+00  0.000000000E+00  0.00000E+00  9.000E+00
      21    -1     0     0   513   511  0.000000000E+00  0.000000000E+00 -6.593222278E+01  6.593222278E+01  0.000000000E+00  0.00000E+00  9.000E+00
      21     1     1     2   514   511 -2.935967262E+00 -7.004339711E+00 -1.043920586E+01  1.290959711E+01  1.685873940E-07  0.00000E+00  9.000E+00
      21     1     1     2   515   516  7.486579186E+00  1.282510568E+00 -3.997995543E+01  4.069509230E+01  0.000000000E+00  0.00000E+00  9.000E+00
      21     1     1     2   513   515 -4.550611924E+00  5.721829143E+00 -1.296041497E+01  1.488017990E+01  2.920019320E-07  0.00000E+00  9.000E+00
</event>
<event>
      5  10001  3.52971E+09  8.62387E+00 -1.00000E+00  2.03491E-01
      21    -1     0     0   512   513  0.000000000E+00  0.000000000E+00  8.979206343E+01  8.979206343E+01  0.000000000E+00  0.00000E+00  9.000E+00
      -3    -1     0     0     0   511  0.000000000E+00  0.000000000E+00 -1.277082918E+02  1.277082918E+02  0.000000000E+00  0.00000E+00  9.000E+00
      -3     1     1     2     0   514  1.014078359E+01 -1.252412965E+01 -1.194935081E+02  1.205762738E+02  5.000000000E-01  0.00000E+00  9.000E+00
      21     1     1     2   514   513 -2.069293380E+00  9.487469991E+00  8.646694733E+01  8.701049961E+01  9.536743164E-07  0.00000E+00  9.000E+00
      21     1     1     2   512   511 -8.071490209E+00  3.036659658E+00 -4.889667580E+00  9.913581852E+00  1.576990671E-07  0.00000E+00  9.000E+00
</event>
<event>
      5  10001  3.52971E+09  3.44708E+00 -1.00000E+00  2.79676E-01
      21    -1     0     0   515   511  0.000000000E+00  0.000000000E+00  3.744816326E+01  3.744816326E+01  0.000000000E+00  0.00000E+00  9.000E+00
      21    -1     0     0   513   516  0.000000000E+00  0.000000000E+00 -1.609429635E+02  1.609429635E+02  0.000000000E+00  0.00000E+00  9.000E+00
      21     1     1     2   515   516 -3.790263703E+00  9.144696447E+00  3.044439984E+01  3.201332619E+01  4.768371582E-07  0.00000E+00  9.000E+00
      21     1     1     2   517   511  6.841615893E-01 -1.063951898E+01  1.616993738E+00  1.078341828E+01  5.575503985E-08  0.00000E+00  9.000E+00
      21     1     1     2   513   517  3.106102114E+00  1.494822530E+00 -1.555561938E+02  1.555943823E+02  1.907348633E-06  0.00000E+00  9.000E+00
</event>
<event>
      5  10001  3.52971E+09  1.36088E+01 -1.00000E+00  1.81457E-01
      21    -1     0     0   512   516  0.000000000E+00  0.000000000E+00  4.096243563E+02  4.096243563E+02  0.000000000E+00  0.00000E+00  9.000E+00
      21    -1     0     0   513   514  0.000000000E+00  0.000000000E+00 -2.815531274E+00  2.815531274E+00  0.000000000E+00  0.00000E+00  9.000E+00
      21     1     1     2   512   514 -2.195111819E+01 -2.344521439E+01  2.299837143E+02  2.322155002E+02  0.000000000E+00  0.00000E+00  9.000E+00
       5     1     1     2   513     0  8.396089503E+00  3.922883953E+00  4.572492862E+01  4.690087885E+01  4.800000191E+00  0.00000E+00  9.000E+00
      -5     1     1     2     0   516  1.355502869E+01  1.952233044E+01  1.311001821E+02  1.333235085E+02  4.800000191E+00  0.00000E+00  9.000E+00
</event>
<event>
      5  10001  3.52971E+09  4.86902E+00 -1.00000E+00  2.44843E-01
       3    -1     0     0   513     0  0.000000000E+00  0.000000000E+00  6.469429638E+01  6.469429638E+01  0.000000000E+00  0.00000E+00  9.000E+00
      21    -1     0     0   511   515  0.000000000E+00  0.000000000E+00 -2.154800021E+02  2.154800021E+02  0.000000000E+00  0.00000E+00  9.000E+00
      21     1     1     2   512   515  7.478046027E+00  3.185233667E+00 -1.954819154E+02  1.956508271E+02  0.000000000E+00  0.00000E+00  9.000E+00
       3     1     1     2   511     0 -9.220995431E+00 -8.122299125E+00  6.366675109E+01  6.484368662E+01  5.000000000E-01  0.00000E+00  9.000E+00
      21     1     1     2   513   512  1.742949404E+00  4.937065458E+00 -1.897054137E+01  1.967978475E+01  2.384185791E-07  0.00000E+00  9.000E+00
</event>
<event>
      5  10001  3.52971E+09  3.81607E+00 -1.00000E+00  2.68373E-01
      21    -1     0     0   514   511  0.000000000E+00  0.000000000E+00  1.614903918E+01  1.614903918E+01  0.000000000E+00  0.00000E+00  9.000E+00
      21    -1     0     0   516   512  0.000000000E+00  0.000000000E+00 -2.003062926E+01  2.003062926E+01  0.000000000E+00  0.00000E+00  9.000E+00
      21     1     1     2   514   512  8.528731203E+00 -6.527235306E+00  1.237901688E+01  1.638853610E+01  2.384185791E-07  0.00000E+00  9.000E+00
      21     1     1     2   515   511 -2.592000460E+00  2.309860169E+00 -8.328347021E+00  9.023041864E+00  0.000000000E+00  0.00000E+00  9.000E+00
      21     1     1     2   516   515 -5.936730743E+00  4.217375137E+00 -7.932259938E+00  1.076809048E+01  2.230201594E-07  0.00000E+00  9.000E+00
</event>
<event>
      5  10001  3.52971E+09  1.64309E+01 -1.00000E+00  1.73732E-01
      21    -1     0     0   515   511  0.000000000E+00  0.000000000E+00  3.129481749E+01  3.129481749E+01  0.000000000E+00  0.00000E+00  9.000E+00
      21    -1     0     0   511   512  0.000000000E+00  0.000000000E+00 -7.639984245E+01  7.639984245E+01  0.000000000E+00  0.00000E+00  9.000E+00
      21     1     1     2   515   513  1.579382208E+01 -2.370535841E+01  1.576819060E+01  3.255802002E+01  1.685873940E-07  0.00000E+00  9.000E+00
       5     1     1     2   513     0 -1.547343334E+01  7.440990283E+00 -7.873508160E+00  1.948916643E+01  4.800000191E+00  0.00000E+00  9.000E+00
      -5     1     1     2     0   512 -3.203887371E-01  1.626436813E+01 -5.299970739E+01  5.564747349E+01  4.800000191E+00  0.00000E+00  9.000E+00
</event>
<event>
      5  10001  3.52971E+09  2.31307E+01 -1.00000E+00  1.61318E-01
      21    -1     0     0   512   511  0.000000000E+00  0.000000000E+00  3.219416420E+00  3.219416420E+00  0.000000000E+00  0.00000E+00  9.000E+00
      -1    -1     0     0     0   512  0.000000000E+00  0.000000000E+00 -6.945506626E+02  6.945506626E+02  0.000000000E+00  0.00000E+00  9.000E+00
      -1     1     1     2     0   514 -1.400755576E+01  2.408359976E+01 -5.582813936E+02  5.589762560E+02  3.300000131E-01  0.00000E+00  9.000E+00
      21     1     1     2   513   511 -3.408126518E+00 -1.443540262E+01 -2.621942796E+01  3.012398675E+01  1.118282261E-06  0.00000E+00  9.000E+00
      21     1     1     2   514   513  1.741568228E+01 -9.648197141E+00 -1.068304246E+02  1.086698363E+02  0.000000000E+00  0.00000E+00  9.000E+00
</event>
<event>
      5  10001  3.52971E+09  1.26305E+01 -1.00000E+00  1.84716E-01
      21    -1     0     0   515   513  0.000000000E+00  0.000000000E+00  9.056019970E+00  9.056019970E+00  0.000000000E+00  0.00000E+00  9.000E+00
      21    -1     0     0   516   515  0.000000000E+00  0.000000000E+00 -6.868952672E+01  6.868952672E+01  0.000000000E+00  0.00000E+00  9.000E+00
      21     1     1     2   516   517 -1.246785916E+01 -1.027406479E+01 -4.668382544E+01  4.940023762E+01  6.743495762E-07  0.00000E+00  9.000E+00
      21     1     1     2   511   513  5.326836572E+00  7.832178190E+00  3.618190767E+00  1.013950233E+01  3.068336886E-07  0.00000E+00  9.000E+00
      21     1     1     2   517   511  7.141022589E+00  2.441886603E+00 -1.656787208E+01  1.820580674E+01  3.371747881E-07  0.00000E+00  9.000E+00
</event>
<event>
      5  10001  3.52971E+09  3.21600E+00 -1.00000E+00  2.87986E-01
      21    -1     0     0   512   511  0.000000000E+00  0.000000000E+00  8.380159739E+01  8.380159739E+01  0.000000000E+00  0.00000E+00  9.000E+00
      21    -1     0     0   516   514  0.000000000E+00  0.000000000E+00 -1.307095227E+01  1.307095227E+01  0.000000000E+00  0.00000E+00  9.000E+00
      21     1     1     2   512   514 -1.717132160E+01  2.062880913E-01  7.641963362E+01  7.832532951E+01  9.536743164E-07  0.00000E+00  9.000E+00
      21     1     1     2   513   511  1.203635982E+01 -1.256952169E+00 -2.336193104E+00  1.232524583E+01  9.884312124E-08  0.00000E+00  9.000E+00
      21     1     1     2   516   513  5.134961780E+00  1.050664077E+00 -3.352795395E+00  6.221974320E+00  2.384185791E-07  0.00000E+00  9.000E+00
</event>
<event>
      5  10001  3.52971E+09  4.28274E+00 -1.00000E+00  2.56663E-01
      21    -1     0     0   515   513  0.000000000E+00  0.000000000E+00  9.830433799E-01  9.830433799E-01  0.000000000E+00  0.00000E+00  9.000E+00
      21    -1     0     0   516   517  0.000000000E+00  0.000000000E+00 -1.978063345E+02  1.978063345E+02  0.000000000E+00  0.00000E+00  9.000E+00
      21     1     1     2   515   517 -8.102298450E+00 -5.976027986E+00 -3.060606035E+01  3.221942087E+01  0.000000000E+00  0.00000E+00  9.000E+00
      21     1     1     2   511   513  2.987528993E+00  4.548945096E+00 -7.389140406E+01  7.409155029E+01  1.651812370E-06  0.00000E+00  9.000E+00
      21     1     1     2   516   511  5.114769457E+00  1.427082890E+00 -9.232582672E+01  9.247840673E+01  1.348699152E-06  0.00000E+00  9.000E+00
</event>
<event>
      5  10001  3.52971E+09  4.32647E+00 -1.00000E+00  2.55684E-01
      21    -1     0     0   515   514  0.000000000E+00  0.000000000E+00  2.242152446E+01  2.242152446E+01  0.000000000E+00  0.00000E+00  9.000E+00
      -1    -1     0     0     0   512  0.000000000E+00  0.000000000E+00 -6.878677030E+01  6.878677030E+01  0.000000000E+00  0.00000E+00  9.000E+00
      -1     1     1     2     0   513 -9.638557564E+00  6.312578034E+00 -6.055063867E+01  6.163796863E+01  3.300000131E-01  0.00000E+00  9.000E+00
      21     1     1     2   513   514  1.072216399E+01 -2.124090017E+00 -3.410594067E+00  1.145027122E+01  3.816559456E-07  0.00000E+00  9.000E+00
      21     1     1     2   515   512 -1.083606428E+00 -4.188488017E+00  1.759598690E+01  1.812005491E+01  2.384185791E-07  0.00000E+00  9.000E+00
</event>
<event>
      5  10001  3.52971E+09  5.88696E+00 -1.00000E+00  2.26756E-01
      21    -1     0     0   512   514  0.000000000E+00  0.000000000E+00  1.628100191E+01  1.628100191E+01  0.000000000E+00  0.00000E+00  9.000E+00
      -1    -1     0     0     0   511  0.000000000E+00  0.000000000E+00 -6.741761083E+01  6.741761083E+01  0.000000000E+00  0.00000E+00  9.000E+00
      -1     1     1     2     0   514  1.102772688E+01 -3.878723302E+00 -6.111513868E+01  6.222398517E+01  3.300000131E-01  0.00000E+00  9.000E+00
      21     1     1     2   513   511 -9.629596989E+00 -5.170176665E-01  1.283121273E+01  1.605105808E+01  1.685873940E-07  0.00000E+00  9.000E+00
      21     1     1     2   512   513 -1.398129887E+00  4.395740968E+00 -2.852682981E+00  5.423569492E+00  1.192092896E-07  0.00000E+00  9.000E+00
</event>
<event>
      5  10001  3.52971E+09  9.77748E+00 -1.00000E+00  1.96889E-01
      21    -1     0     0   515   513  0.000000000E+00  0.000000000E+00  1.815174408E-01  1.815174408E-01  0.000000000E+00  0.00000E+00  9.000E+00
       2    -1     0     0   512     0  0.000000000E+00  0.000000000E+00 -5.817436462E+02  5.817436462E+02  0.000000000E+00  0.00000E+00  9.000E+00
      21     1     1     2   512   513 -1.478180037E+00 -6.920078931E+00 -1.617411989E+02  1.618959169E+02  3.814697266E-06  0.00000E+00  9.000E+00
       2     1     1     2   511     0  1.657623347E+00  3.733466973E+00 -3.926672029E+02  3.926885886E+02  3.300000131E-01  0.00000E+00  9.000E+00
      21     1     1     2   515   511 -1.794433107E-01  3.186611958E+00 -2.715372696E+01  2.734065806E+01  9.536743164E-07  0.00000E+00  9.000E+00
</event>
<event>
      5  10001  3.52971E+09  8.98075E+00 -1.00000E+00  2.01309E-01
       1    -1     0     0   512     0  0.000000000E+00  0.000000000E+00  3.763669048E+01  3.763669048E+01  0.000000000E+00  0.00000E+00  9.000E+00
       2    -1     0     0   514     0  0.000000000E+00  0.000000000E+00 -1.712501214E+01  1.712501214E+01  0.000000000E+00  0.00000E+00  9.000E+00
       1     1     1     2   514     0 -1.432750823E+01 -5.179420385E+00  3.069764112E+01  3.427182455E+01  3.300000131E-01  0.00000E+00  9.000E+00
       2     1     1     2   513     0  4.151217996E+00  9.271452486E-01 -8.256201204E+00  9.293329193E+00  3.300000131E-01  0.00000E+00  9.000E+00
      21     1     1     2   512   513  1.017629024E+01  4.252275136E+00 -1.929761582E+00  1.119654887E+01  2.298839185E-07  0.00000E+00  9.000E+00
</event>
<event>
      5  10001  3.52971E+09  1.01160E+01 -1.00000E+00  1.95175E-01
      21    -1     0     0   516   514  0.000000000E+00  0.000000000E+00  5.308785771E+01  5.308785771E+01  0.000000000E+00  0.00000E+00  9.000E+00
      21    -1     0     0   515   511  0.000000000E+00  0.000000000E+00 -1.175783811E+02  1.175783811E+02  0.000000000E+00  0.00000E+00  9.000E+00
      21     1     1     2   513   514  4.428886285E+00 -1.241543687E+01 -9.202058784E+00  1.607594452E+01  3.576278687E-07  0.00000E+00  9.000E+00
      21     1     1     2   515   513 -8.479631552E+00  3.145829651E+00 -1.042262300E+02  1.046179115E+02  0.000000000E+00  0.00000E+00  9.000E+00
      21     1     1     2   516   511  4.050745267E+00  9.269607222E+00  4.893776539E+01  4.997238274E+01  1.168007728E-06  0.00000E+00  9.000E+00
</event>
<event>
      5  10001  3.52971E+09  3.71139E+00 -1.00000E+00  2.71368E-01
      21    -1     0     0   512   514  0.000000000E+00  0.000000000E+00  2.362169049E+02  2.362169049E+02  0.000000000E+00  0.00000E+00  9.000E+00
      21    -1     0     0   513   512  0.000000000E+00  0.000000000E+00 -2.929560450E+00  2.929560450E+00  0.000000000E+00  0.00000E+00  9.000E+00
      21     1     1     2   517   511 -1.327393378E+01  4.658647433E+00  3.270806702E+01  3.560502721E+01  1.261592536E-06  0.00000E+00  9.000E+00
      21     1     1     2   511   514  1.015416484E+01 -2.648315615E+00  1.993584074E+02  1.996344040E+02  3.814697266E-06  0.00000E+00  9.000E+00
      21     1     1     2   513   517  3.119768939E+00 -2.010331819E+00  1.220869968E+00  3.907034135E+00  2.215216867E-07  0.00000E+00  9.000E+00
</event>
<event>
      5  10001  3.52971E+09  2.04261E+01 -1.00000E+00  1.65614E-01
      21    -1     0     0   513   514  0.000000000E+00  0.000000000E+00  1.022520102E+00  1.022520102E+00  0.000000000E+00  0.00000E+00  9.000E+00
       1    -1     0     0   511     0  0.000000000E+00  0.000000000E+00 -1.199999742E+02  1.199999742E+02  0.000000000E+00  0.00000E+00  9.000E+00
      21     1     1     2   511   514 -2.294288529E+00  1.051156778E+00 -1.353759098E+01  1.377080462E+01  2.384185791E-07  0.00000E+00  9.000E+00
      21     1     1     2   513   512 -2.578241634E+00  1.230265497E-01 -1.124529226E+00  2.815498435E+00  1.021572143E-07  0.00000E+00  9.000E+00
       1     1     1     2   512     0  4.872530163E+00 -1.174183328E+00 -1.043153339E+02  1.044361913E+02  3.300000131E-01  0.00000E+00  9.000E+00
</event>
<event>
      5  10001  3.52971E+09  5.99244E+00 -1.00000E+00  2.25551E-01
      21    -1     0     0   511   512  0.000000000E+00  0.000000000E+00  5.393358319E+00  5.393358319E+00  0.000000000E+00  0.00000E+00  9.000E+00
      -1    -1     0     0     0   515  0.000000000E+00  0.000000000E+00 -6.515619475E+01  6.515619475E+01  0.000000000E+00  0.00000E+00  9.000E+00
      -1     1     1     2     0   512  4.969169380E+00  9.241492504E+00 -5.346340233E+01  5.448432909E+01  3.300000131E-01  0.00000E+00  9.000E+00
      21     1     1     2   511   513 -2.071613632E+00 -5.149975269E+00  2.381654277E+00  6.040372953E+00  1.365713982E-07  0.00000E+00  9.000E+00
      21     1     1     2   513   515 -2.897555748E+00 -4.091517235E+00 -8.681088379E+00  1.002485102E+01  0.000000000E+00  0.00000E+00  9.000E+00
</event>
<event>
      5  10001  3.52971E+09  1.12178E+01 -1.00000E+00  1.90155E-01
      21    -1     0     0   514   515  0.000000000E+00  0.000000000E+00  5.333990025E+00  5.333990025E+00  0.000000000E+00  0.00000E+00  9.000E+00
      21    -1     0     0   512   516  0.000000000E+00  0.000000000E+00 -1.865165750E+02  1.865165750E+02  0.000000000E+00  0.00000E+00  9.000E+00
      21     1     1     2   514   516 -1.267432345E+01 -4.959465385E+00 -1.649596091E+02  1.655201118E+02  0.000000000E+00  0.00000E+00  9.000E+00
      21     1     1     2   512   511  3.751300255E+00  8.367274620E+00 -2.313261570E+00  9.456993035E+00  4.031583446E-07  0.00000E+00  9.000E+00
      21     1     1     2   511   515  8.923023196E+00 -3.407809235E+00 -1.390971424E+01  1.687346014E+01  2.920019320E-07  0.00000E+00  9.000E+00
</event>
<event>
      5  10001  3.52971E+09  6.42180E+00 -1.00000E+00  2.20979E-01
      21    -1     0     0   513   512  0.000000000E+00  0.000000000E+00  3.620806304E+00  3.620806304E+00  0.000000000E+00  0.00000E+00  9.000E+00
      21    -1     0     0   517   515  0.000000000E+00  0.000000000E+00 -1.153859205E+02  1.153859205E+02  0.000000000E+00  0.00000E+00  9.000E+00
      21     1     1     2   513   515  1.347710871E+01 -4.403818115E+00 -8.866094089E+01  8.978746300E+01  9.536743164E-07  0.00000E+00  9.000E+00
      21     1     1     2   517   514 -1.016396209E+01 -1.564189754E-01 -7.512431897E+00  1.263990607E+01  2.665600750E-07  0.00000E+00  9.000E+00
      21     1     1     2   514   512 -3.313146613E+00  4.560237090E+00 -1.559174145E+01  1.657935778E+01  1.685873940E-07  0.00000E+00  9.000E+00
</event>
<event>
      5  10001  3.52971E+09  4.37721E+00 -1.00000E+00  2.54569E-01
      21    -1     0     0   513   515  0.000000000E+00  0.000000000E+00  2.324999322E+00  2.324999322E+00  0.000000000E+00  0.00000E+00  9.000E+00
      21    -1     0     0   516   512  0.000000000E+00  0.000000000E+00 -2.457104749E+02  2.457104749E+02  0.000000000E+00  0.00000E+00  9.000E+00
      21     1     1     2   511   512  4.452560272E+00 -8.415016064E+00 -2.073065872E+02  2.075250802E+02  3.814697266E-06  0.00000E+00  9.000E+00
      21     1     1     2   516   515 -1.614581105E+00  1.174755501E+01 -3.324354815E+01  3.529511885E+01  1.168007728E-06  0.00000E+00  9.000E+00
      21     1     1     2   513   511 -2.837979166E+00 -3.332538943E+00 -2.835340214E+00  5.215275226E+00  1.976862425E-07  0.00000E+00  9.000E+00
</event>
<event>
      5  10001  3.52971E+09  5.62280E+00 -1.00000E+00  2.29936E-01
      21    -1     0     0   512   515  0.000000000E+00  0.000000000E+00  2.940962552E+02  2.940962552E+02  0.000000000E+00  0.00000E+00  9.000E+00
       3    -1     0     0   513     0  0.000000000E+00  0.000000000E+00 -1.280833231E+00  1.280833231E+00  0.000000000E+00  0.00000E+00  9.000E+00
      21     1     1     2   513   515  7.071392317E+00 -1.263032676E+01  1.459430547E+02  1.466591455E+02  1.907348633E-06  0.00000E+00  9.000E+00
       3     1     1     2   514     0 -2.643124576E+00  9.167309087E+00  2.575043241E+01  2.746562274E+01  5.000000000E-01  0.00000E+00  9.000E+00
      21     1     1     2   512   514 -4.428267741E+00  3.463017674E+00  1.211219348E+02  1.212523201E+02  1.907348633E-06  0.00000E+00  9.000E+00
</event>
<event>
      5  10001  3.52971E+09  7.02278E+00 -1.00000E+00  2.15349E-01
      21    -1     0     0   511   514  0.000000000E+00  0.000000000E+00  4.110012919E+00  4.110012919E+00  0.000000000E+00  0.00000E+00  9.000E+00
      21    -1     0     0   516   511  0.000000000E+00  0.000000000E+00 -1.315242403E+03  1.315242403E+03  0.000000000E+00  0.00000E+00  9.000E+00
      21     1     1     2   516   513  1.274960829E+01 -3.499703434E+00 -1.286633443E+03  1.286701370E+03  1.525878906E-05  0.00000E+00  9.000E+00
      21     1     1     2   513   515 -6.203150961E+00  1.500578880E-01  8.446068398E-01  6.262184917E+00  1.513770234E-06  0.00000E+00  9.000E+00
      21     1     1     2   515   514 -6.546457327E+00  3.349645546E+00 -2.534355409E+01  2.638886058E+01  4.768371582E-07  0.00000E+00  9.000E+00
</event>
<event>
      5  10001  3.52971E+09  6.93205E+00 -1.00000E+00  2.16148E-01
      21    -1     0     0   512   514  0.000000000E+00  0.000000000E+00  2.387930455E+01  2.387930455E+01  0.000000000E+00  0.00000E+00  9.000E+00
      21    -1     0     0   514   511  0.000000000E+00  0.000000000E+00 -9.316312880E+00  9.316312880E+00  0.000000000E+00  0.00000E+00  9.000E+00
      21     1     1     2   513   511 -6.185280698E+00  7.428355367E-03 -5.034009359E+00  7.974898289E+00  1.788139343E-07  0.00000E+00  9.000E+00
       2     1     1     2   512     0  8.915575191E+00  4.450859267E+00  1.604939391E+01  1.889416772E+01  3.300000131E-01  0.00000E+00  9.000E+00
      -2     1     1     2     0   513 -2.730294493E+00 -4.458287622E+00  3.547607124E+00  6.326551419E+00  3.300000131E-01  0.00000E+00  9.000E+00
</event>
<event>
      5  10001  3.52971E+09  7.17746E+00 -1.00000E+00  2.14023E-01
      21    -1     0     0   515   511  0.000000000E+00  0.000000000E+00  2.919677425E+01  2.919677425E+01  0.000000000E+00  0.00000E+00  9.000E+00
      21    -1     0     0   514   513  0.000000000E+00  0.000000000E+00 -1.192362430E+01  1.192362430E+01  0.000000000E+00  0.00000E+00  9.000E+00
      21     1     1     2   515   513 -1.124477659E+01 -3.756702041E+00 -6.737165467E+00  1.363624616E+01  1.192092896E-07  0.00000E+00  9.000E+00
      21     1     1     2   512   511  6.840892783E+00 -2.102201926E-01  8.719355269E+00  1.108463635E+01  1.192092896E-07  0.00000E+00  9.000E+00
      21     1     1     2   514   512  4.403883805E+00  3.966922233E+00  1.529096014E+01  1.639951605E+01  1.685873940E-07  0.00000E+00  9.000E+00
</event>
<event>
      5  10001  3.52971E+09  1.07459E+01 -1.00000E+00  1.92209E-01
      21    -1     0     0   516   514  0.000000000E+00  0.000000000E+00  3.142115965E+01  3.142115965E+01  0.000000000E+00  0.00000E+00  9.000E+00
      -1    -1     0     0     0   516  0.000000000E+00  0.000000000E+00 -1.512783879E+01  1.512783879E+01  0.000000000E+00  0.00000E+00  9.000E+00
      -1     1     1     2     0   511 -7.479584313E+00  6.392924132E+00 -1.230698990E+01  1.576022084E+01  3.300000131E-01  0.00000E+00  9.000E+00
      21     1     1     2   513   514 -6.385906194E-01 -2.039199242E+00  6.614129734E+00  6.950744109E+00  0.000000000E+00  0.00000E+00  9.000E+00
      21     1     1     2   511   513  8.118174933E+00 -4.353724889E+00  2.198618103E+01  2.383803349E+01  0.000000000E+00  0.00000E+00  9.000E+00
</event>
<event>
      5  10001  3.52971E+09  2.85587E+00 -1.00000E+00  3.03500E-01
      21    -1     0     0   514   513  0.000000000E+00  0.000000000E+00  6.714348713E+00  6.714348713E+00  0.000000000E+00  0.00000E+00  9.000E+00
      21    -1     0     0   511   515  0.000000000E+00  0.000000000E+00 -5.208713190E+01  5.208713190E+01  0.000000000E+00  0.00000E+00  9.000E+00
      21     1     1     2   512   515  3.718119478E+00  1.226677833E+01 -1.364447383E+01  1.872084211E+01  1.685873940E-07  0.00000E+00  9.000E+00
      21     1     1     2   511   513 -3.729989523E+00 -1.512262702E+01 -3.334174045E+01  3.680052073E+01  4.768371582E-07  0.00000E+00  9.000E+00
      21     1     1     2   514   512  1.187004453E-02  2.855848693E+00  1.613431102E+00  3.280117769E+00  8.429369702E-08  0.00000E+00  9.000E+00
</event>
<event>
      5  10001  3.52971E+09  8.77894E+00 -1.00000E+00  2.02526E-01
      21    -1     0     0   516   511  0.000000000E+00  0.000000000E+00  4.471045425E+01  4.471045425E+01  0.000000000E+00  0.00000E+00  9.000E+00
      21    -1     0     0   517   512  0.000000000E+00  0.000000000E+00 -9.442935226E+01  9.442935226E+01  0.000000000E+00  0.00000E+00  9.000E+00
      21     1     1     2   516   512 -6.115948549E+00  1.083574945E+01 -9.217406793E+01  9.301009135E+01  1.348699152E-06  0.00000E+00  9.000E+00
      21     1     1     2   517   513  3.081674228E+00 -1.339310363E+01  2.882360952E+01  3.193230976E+01  0.000000000E+00  0.00000E+00  9.000E+00
      21     1     1     2   513   511  3.034274321E+00  2.557354186E+00  1.363156040E+01  1.419740540E+01  3.769728732E-07  0.00000E+00  9.000E+00
</event>
<event>
      5  10001  3.52971E+09  4.96552E+00 -1.00000E+00  2.43135E-01
      21    -1     0     0   514   512  0.000000000E+00  0.000000000E+00  1.549046956E+01  1.549046956E+01  0.000000000E+00  0.00000E+00  9.000E+00
      21    -1     0     0   511   514  0.000000000E+00  0.000000000E+00 -6.403242324E+01  6.403242324E+01  0.000000000E+00  0.00000E+00  9.000E+00
      21     1     1     2   511   515  1.071241483E+01 -1.838438731E+01 -5.263565525E+01  5.677370634E+01  6.743495762E-07  0.00000E+00  9.000E+00
      21     1     1     2   515   516 -9.353495405E+00  1.000601329E+01  3.968746013E+00  1.426040403E+01  5.075152625E-07  0.00000E+00  9.000E+00
      21     1     1     2   516   512 -1.358919423E+00  8.378374018E+00  1.249555597E-01  8.488782426E+00  2.211768569E-08  0.00000E+00  9.000E+00
</event>
<event>
      5  10001  3.52971E+09  1.00104E+01 -1.00000E+00  1.95700E-01
      21    -1     0     0   513   511  0.000000000E+00  0.000000000E+00  2.063891232E+01  2.063891232E+01  0.000000000E+00  0.00000E+00  9.000E+00
      -2    -1     0     0     0   513  0.000000000E+00  0.000000000E+00 -4.037974646E+01  4.037974646E+01  0.000000000E+00  0.00000E+00  9.000E+00
      -2     1     1     2     0   514 -3.880463607E+00 -5.236212395E+00 -3.680564773E+01  3.737968061E+01  3.300000131E-01  0.00000E+00  9.000E+00
      21     1     1     2   512   511  3.892794566E+00  9.918181201E+00  1.528071144E+01  1.862858852E+01  4.129530925E-07  0.00000E+00  9.000E+00
      21     1     1     2   514   512 -1.233095898E-02 -4.681968807E+00  1.784102150E+00  5.010389650E+00  1.475139698E-07  0.00000E+00  9.000E+00
</event>
<event>
      5  10001  3.52971E+09  9.70640E+00 -1.00000E+00  1.97260E-01
      21    -1     0     0   512   511  0.000000000E+00  0.000000000E+00  3.528615829E+00  3.528615829E+00  0.000000000E+00  0.00000E+00  9.000E+00
      21    -1     0     0   515   513  0.000000000E+00  0.000000000E+00 -2.166126083E+02  2.166126083E+02  0.000000000E+00  0.00000E+00  9.000E+00
      -4     1     1     2     0   511  1.806964291E+01  1.961969879E+00 -2.761683333E+01  3.309532903E+01  1.500000000E+00  0.00000E+00  9.000E+00
       4     1     1     2   515     0 -9.684120360E+00 -6.802631199E+00 -5.814557696E+01  5.935668537E+01  1.500000000E+00  0.00000E+00  9.000E+00
      21     1     1     2   512   513 -8.385522550E+00  4.840661320E+00 -1.273215822E+02  1.276892097E+02  1.907348633E-06  0.00000E+00  9.000E+00
</event>
<event>
      5  10001  3.52971E+09  1.13053E+01 -1.00000E+00  1.89788E-01
      21    -1     0     0   514   513  0.000000000E+00  0.000000000E+00  4.785488402E+02  4.785488402E+02  0.000000000E+00  0.00000E+00  9.000E+00
      21    -1     0     0   511   516  0.000000000E+00  0.000000000E+00 -2.693971586E+01  2.693971586E+01  0.000000000E+00  0.00000E+00  9.000E+00
      21     1     1     2   514   516 -1.141792466E+01  1.816132057E+00  4.766838747E+02  4.768240595E+02  0.000000000E+00  0.00000E+00  9.000E+00
      -3     1     1     2     0   513  5.644588275E+00 -3.402654981E+00 -7.046320422E+00  9.661266438E+00  5.000000000E-01  0.00000E+00  9.000E+00
       3     1     1     2   511     0  5.773336385E+00  1.586522924E+00 -1.802842994E+01  1.900323010E+01  5.000000000E-01  0.00000E+00  9.000E+00
</event>
<event>
      5  10001  3.52971E+09  8.31951E+00 -1.00000E+00  2.05466E-01
      21    -1     0     0   512   513  0.000000000E+00  0.000000000E+00  9.335459780E+00  9.335459780E+00  0.000000000E+00  0.00000E+00  9.000E+00
      21    -1     0     0   511   512  0.000000000E+00  0.000000000E+00 -2.588252291E+01  2.588252291E+01  0.000000000E+00  0.00000E+00  9.000E+00
      21     1     1     2   515   513 -4.650636299E+00 -7.591883495E+00  3.885492211E+00  9.714018875E+00  4.214684851E-08  0.00000E+00  9.000E+00
      21     1     1     2   511   514  6.541633070E-01  4.272306160E+00 -1.980470730E+01  2.027084016E+01  3.371747881E-07  0.00000E+00  9.000E+00
      21     1     1     2   514   515  3.996472992E+00  3.319577335E+00 -6.278480460E-01  5.233123659E+00  9.657056180E-08  0.00000E+00  9.000E+00
</event>
<event>
      5  10001  3.52971E+09  7.08465E+00 -1.00000E+00  2.14813E-01
       2    -1     0     0   514     0  0.000000000E+00  0.000000000E+00  1.683516148E+03  1.683516148E+03  0.000000000E+00  0.00000E+00  9.000E+00
       2    -1     0     0   513     0  0.000000000E+00  0.000000000E+00 -1.583868166E+01  1.583868166E+01  0.000000000E+00  0.00000E+00  9.000E+00
       2     1     1     2   514     0 -7.235017138E+00 -1.045186677E+01 -1.305705517E+01  1.822587670E+01  3.300000131E-01  0.00000E+00  9.000E+00
       2     1     1     2   511     0  5.530945304E+00  4.525182814E+00  1.630718655E+03  1.630734346E+03  3.300000131E-01  0.00000E+00  9.000E+00
      21     1     1     2   513   511  1.704071833E+00  5.926683957E+00  5.001586701E+01  5.039460681E+01  6.743495762E-07  0.00000E+00  9.000E+00
</event>
<event>
      5  10001  3.52971E+09  8.93290E+00 -1.00000E+00  2.01593E-01
      21    -1     0     0   513   511  0.000000000E+00  0.000000000E+00  1.599345829E+01  1.599345829E+01  0.000000000E+00  0.00000E+00  9.000E+00
      -4    -1     0     0     0   512  0.000000000E+00  0.000000000E+00 -8.680338403E+01  8.680338403E+01  0.000000000E+00  0.00000E+00  9.000E+00
      21     1     1     2   514   511 -8.191972254E+00 -2.440287590E+00 -4.872842996E+01  4.947244990E+01  9.536743164E-07  0.00000E+00  9.000E+00
      21     1     1     2   513   512  1.313467210E+01 -4.558485788E+00  1.186708658E+01  1.827914516E+01  6.078504936E-07  0.00000E+00  9.000E+00
      -4     1     1     2     0   514 -4.942699845E+00  6.998773378E+00 -3.394858237E+01  3.504524726E+01  1.500000000E+00  0.00000E+00  9.000E+00
</event>
<event>
      5  10001  3.52971E+09  5.82864E+00 -1.00000E+00  2.27438E-01
       2    -1     0     0   512     0  0.000000000E+00  0.000000000E+00  1.440993602E+02  1.440993602E+02  0.000000000E+00  0.00000E+00  9.000E+00
      21    -1     0     0   513   512  0.000000000E+00  0.000000000E+00 -1.815600376E+01  1.815600376E+01  0.000000000E+00  0.00000E+00  9.000E+00
      21     1     1     2   513   515  6.960209349E+00 -8.791819777E+00 -1.569820282E+01  1.929181642E+01  8.760057960E-07  0.00000E+00  9.000E+00
       2     1     1     2   511     0 -1.831456617E+00  9.381476356E+00  1.283307807E+02  1.286866912E+02  3.300000131E-01  0.00000E+00  9.000E+00
      21     1     1     2   515   511 -5.128752732E+00 -5.896565794E-01  1.331077858E+01  1.427685630E+01  0.000000000E+00  0.00000E+00  9.000E+00
</event>
<event>
      5  10001  3.52971E+09  6.63204E+00 -1.00000E+00  2.18916E-01
       1    -1     0     0   512     0  0.000000000E+00  0.000000000E+00  9.709166754E+00  9.709166754E+00  0.000000000E+00  0.00000E+00  9.000E+00
      21    -1     0     0   513   511  0.000000000E+00  0.000000000E+00 -7.499841447E+01  7.499841447E+01  0.000000000E+00  0.00000E+00  9.000E+00
      21     1     1     2   512   511 -1.226955379E+01 -1.061157971E+01 -6.014698512E+01  6.229612663E+01  6.743495762E-07  0.00000E+00  9.000E+00
       1     1     1     2   514     0  8.016554986E+00  5.523165829E+00  4.483031150E+00  1.072273206E+01  3.300000131E-01  0.00000E+00  9.000E+00
      21     1     1     2   513   514  4.252998801E+00  5.088413886E+00 -9.625293745E+00  1.168872253E+01  1.192092896E-07  0.00000E+00  9.000E+00
</event>
<event>
      5  10001  3.52971E+09  8.73184E+00 -1.00000E+00  2.02816E-01
      21    -1     0     0   515   511  0.000000000E+00  0.000000000E+00  3.640421273E+01  3.640421273E+01  0.000000000E+00  0.00000E+00  9.000E+00
      21    -1     0     0   513   512  0.000000000E+00  0.000000000E+00 -1.342823793E+01  1.342823793E+01  0.000000000E+00  0.00000E+00  9.000E+00
      21     1     1     2   515   516 -8.345191344E+00  6.050678158E+00  2.485798635E+01  2.691045169E+01  0.000000000E+00  0.00000E+00  9.000E+00
      21     1     1     2   513   511  1.309935493E+01  1.273452195E+00  2.095557468E+00  1.332689541E+01  2.308477966E-07  0.00000E+00  9.000E+00
      21     1     1     2   516   512 -4.754163590E+00 -7.324130353E+00 -3.977569023E+00  9.595103554E+00  1.264405455E-07  0.00000E+00  9.000E+00
</event>
<event>
      5  10001  3.52971E+09  1.03588E+01 -1.00000E+00  1.93999E-01
      21    -1     0     0   515   511  0.000000000E+00  0.000000000E+00  2.872748119E+01  2.872748119E+01  0.000000000E+00  0.00000E+00  9.000E+00
       2    -1     0     0   511     0  0.000000000E+00  0.000000000E+00 -6.236084536E+02  6.236084536E+02  0.000000000E+00  0.00000E+00  9.000E+00
      21     1     1     2   513   514  1.780273494E+01 -5.654037840E+00 -1.618775717E+02  1.629516915E+02  2.697398305E-06  0.00000E+00  9.000E+00
       2     1     1     2   514     0 -7.495830716E+00  6.689588861E+00 -4.601854719E+02  4.602952482E+02  3.300000131E-01  0.00000E+00  9.000E+00
      21     1     1     2   515   513 -1.030690422E+01 -1.035551021E+00  2.718207124E+01  2.908899512E+01  6.743495762E-07  0.00000E+00  9.000E+00
</event>
<event>
      5  10001  3.52971E+09  6.50395E+00 -1.00000E+00  2.20160E-01
      21    -1     0     0   512   514  0.000000000E+00  0.000000000E+00  1.121880142E+02  1.121880142E+02  0.000000000E+00  0.00000E+00  9.000E+00
      21    -1     0     0   511   513  0.000000000E+00  0.000000000E+00 -3.846596816E+00  3.846596816E+00  0.000000000E+00  0.00000E+00  9.000E+00
      21     1     1     2   512   513 -1.138734215E+01  2.438880935E+00  9.198560148E+01  9.271984998E+01  1.348699152E-06  0.00000E+00  9.000E+00
      21     1     1     2   511   516  9.232851860E+00  2.240985268E+00  4.761449632E+00  1.062727486E+01  3.526258339E-07  0.00000E+00  9.000E+00
      21     1     1     2   516   514  2.154490293E+00 -4.679866202E+00  1.159436631E+01  1.268748621E+01  1.685873940E-07  0.00000E+00  9.000E+00
</event>
<event>
      5  10001  3.52971E+09  6.16308E+00 -1.00000E+00  2.23672E-01
       1    -1     0     0   512     0  0.000000000E+00  0.000000000E+00  1.568302111E+03  1.568302111E+03  0.000000000E+00  0.00000E+00  9.000E+00
      21    -1     0     0   516   512  0.000000000E+00  0.000000000E+00 -1.038848355E-01  1.038848355E-01  0.000000000E+00  0.00000E+00  9.000E+00
      21     1     1     2   516   515  1.060463931E+01  2.980596472E+00  4.214980295E+02  4.216419466E+02  5.394796609E-06  0.00000E+00  9.000E+00
      21     1     1     2   515   511 -4.824777776E+00 -2.070630184E+00  3.198885054E+02  3.199315894E+02  3.814697266E-06  0.00000E+00  9.000E+00
       1     1     1     2   511     0 -5.779861533E+00 -9.099662876E-01  8.268116916E+02  8.268324601E+02  3.300000131E-01  0.00000E+00  9.000E+00
</event>
<event>
      5  10001  3.52971E+09  5.24069E+00 -1.00000E+00  2.34996E-01
      21    -1     0     0   513   511  0.000000000E+00  0.000000000E+00  1.346647788E+02  1.346647788E+02  0.000000000E+00  0.00000E+00  9.000E+00
      21    -1     0     0   514   512  0.000000000E+00  0.000000000E+00 -1.136759701E+01  1.136759701E+01  0.000000000E+00  0.00000E+00  9.000E+00
      21     1     1     2   517   511 -1.296256536E+01  1.160905128E+01  1.162138354E+02  1.175093771E+02  1.907348633E-06  0.00000E+00  9.000E+00
      21     1     1     2   514   517  7.992796243E+00 -9.945845122E+00  1.458089473E+01  1.937542562E+01  7.348554138E-07  0.00000E+00  9.000E+00
      21     1     1     2   513   512  4.969769117E+00 -1.663206154E+00 -7.497548405E+00  9.147573004E+00  1.192092896E-07  0.00000E+00  9.000E+00
</event>
<event>
      5  10001  3.52971E+09  5.99061E+00 -1.00000E+00  2.25571E-01
      21    -1     0     0   515   514  0.000000000E+00  0.000000000E+00  9.290856621E+00  9.290856621E+00  0.000000000E+00  0.00000E+00  9.000E+00
      21    -1     0     0   511   516  0.000000000E+00  0.000000000E+00 -1.109562356E+02  1.109562356E+02  0.000000000E+00  0.00000E+00  9.000E+00
      21     1     1     2   515   516  1.154520444E+01  1.059652294E+00 -3.826853528E+01  3.998619013E+01  4.768371582E-07  0.00000E+00  9.000E+00
      21     1     1     2   511   512 -1.248815420E+01  4.856275046E+00 -7.004313895E+01  7.131324363E+01  1.348699152E-06  0.00000E+00  9.000E+00
      21     1     1     2   512   514  9.429497535E-01 -5.915927340E+00  6.646295281E+00  8.947658436E+00  1.460009660E-07  0.00000E+00  9.000E+00
</event>
<event>
      5  10001  3.52971E+09  6.28076E+00 -1.00000E+00  2.22425E-01
      21    -1     0     0   513   512  0.000000000E+00  0.000000000E+00  4.211999571E+00  4.211999571E+00  0.000000000E+00  0.00000E+00  9.000E+00
      21    -1     0     0   514   513  0.000000000E+00  0.000000000E+00 -2.110944288E+02  2.110944288E+02  0.000000000E+00  0.00000E+00  9.000E+00
      21     1     1     2   511   512 -7.573897386E+00 -1.204604868E+01 -9.762041307E+00  1.725597465E+01  1.685873940E-07  0.00000E+00  9.000E+00
      21     1     1     2   514   515  4.255990571E+00  7.094045971E+00 -1.732385561E+02  1.734359716E+02  1.907348633E-06  0.00000E+00  9.000E+00
      21     1     1     2   515   511  3.317906815E+00  4.952002712E+00 -2.388183183E+01  2.461448208E+01  4.768371582E-07  0.00000E+00  9.000E+00
</event>
<event>
      5  10001  3.52971E+09  6.90715E+00 -1.00000E+00  2.16371E-01
      21    -1     0     0   516   512  0.000000000E+00  0.000000000E+00  5.786255407E+01  5.786255407E+01  0.000000000E+00  0.00000E+00  9.000E+00
      21    -1     0     0   513   516  0.000000000E+00  0.000000000E+00 -2.452413143E+01  2.452413143E+01  0.000000000E+00  0.00000E+00  9.000E+00
      21     1     1     2   517   511 -2.958176095E+00  1.446411905E+01 -4.450355208E+00  1.541970191E+01  5.092623082E-07  0.00000E+00  9.000E+00
      21     1     1     2   511   512 -1.793973150E+00 -9.451561780E+00  5.108540939E+01  5.198335707E+01  9.536743164E-07  0.00000E+00  9.000E+00
      21     1     1     2   513   517  4.752149245E+00 -5.012557267E+00 -1.329663155E+01  1.498362651E+01  1.685873940E-07  0.00000E+00  9.000E+00
</event>
<event>
      5  10001  3.52971E+09  5.60523E+00 -1.00000E+00  2.30156E-01
      -1    -1     0     0     0   512  0.000000000E+00  0.000000000E+00  3.494323586E+00  3.494323586E+00  0.000000000E+00  0.00000E+00  9.000E+00
       3    -1     0     0   512     0  0.000000000E+00  0.000000000E+00 -3.329032366E+01  3.329032366E+01  0.000000000E+00  0.00000E+00  9.000E+00
      -1     1     1     2     0   513 -6.544561288E+00  5.811327758E+00 -7.540022728E+00  1.155697432E+01  3.300000131E-01  0.00000E+00  9.000E+00
       3     1     1     2   511     0  5.169125668E+00 -3.016475265E+00 -2.104569482E+01  2.188584596E+01  5.000000000E-01  0.00000E+00  9.000E+00
      21     1     1     2   513   511  1.375435620E+00 -2.794852493E+00 -1.210282524E+00  3.341826954E+00  5.771194914E-08  0.00000E+00  9.000E+00
</event>
<event>
      5  10001  3.52971E+09  1.59320E+01 -1.00000E+00  1.74949E-01
      21    -1     0     0   515   511  0.000000000E+00  0.000000000E+00  2.545679639E+01  2.545679639E+01  0.000000000E+00  0.00000E+00  9.000E+00
       2    -1     0     0   512     0  0.000000000E+00  0.000000000E+00 -2.058646150E+03  2.058646150E+03  0.000000000E+00  0.00000E+00  9.000E+00
      21     1     1     2   512   511  2.526091580E+01  1.031173421E+01 -2.230055842E+00  2.737551604E+01  7.574716227E-07  0.00000E+00  9.000E+00
       2     1     1     2   514     0 -9.331747278E+00 -1.001421461E+01 -2.038886364E+03  2.038932339E+03  3.300000131E-01  0.00000E+00  9.000E+00
      21     1     1     2   515   514 -1.592916852E+01 -2.975195973E-01  7.927066123E+00  1.779509216E+01  1.121454699E-06  0.00000E+00  9.000E+00
</event>
<event>
      5  10001  3.52971E+09  6.46943E+00 -1.00000E+00  2.20502E-01
      21    -1     0     0   513   512  0.000000000E+00  0.000000000E+00  1.644558334E+03  1.644558334E+03  0.000000000E+00  0.00000E+00  9.000E+00
      21    -1     0     0   517   516  0.000000000E+00  0.000000000E+00 -3.329445430E+00  3.329445430E+00  0.000000000E+00  0.00000E+00  9.000E+00
      21     1     1     2   513   516 -7.196433359E+00 -2.134524673E+00  2.438726704E+01  2.551634069E+01  4.498472754E-06  0.00000E+00  9.000E+00
      21     1     1     2   511   512  1.364831433E+01  2.610692825E+00  1.615750968E+03  1.615810720E+03  0.000000000E+00  0.00000E+00  9.000E+00
      21     1     1     2   517   511 -6.451880972E+00 -4.761681526E-01  1.090653407E+00  6.560718637E+00  7.757195881E-07  0.00000E+00  9.000E+00
</event>
<event>
      5  10001  3.52971E+09  1.38393E+01 -1.00000E+00  1.80739E-01
       1    -1     0     0   513     0  0.000000000E+00  0.000000000E+00  2.413928189E+02  2.413928189E+02  0.000000000E+00  0.00000E+00  9.000E+00
      -1    -1     0     0     0   513  0.000000000E+00  0.000000000E+00 -4.694285544E+00  4.694285544E+00  0.000000000E+00  0.00000E+00  9.000E+00
      -1     1     1     2     0   514 -2.528150598E+00 -1.943771511E+01  2.217866904E+01  2.960098942E+01  3.300000131E-01  0.00000E+00  9.000E+00
       1     1     1     2   512     0  5.266984201E+00  1.179701207E+01  1.938407758E+02  1.942711144E+02  3.300000131E-01  0.00000E+00  9.000E+00
      21     1     1     2   514   512 -2.738833603E+00  7.640703037E+00  2.067908853E+01  2.221500067E+01  4.129530925E-07  0.00000E+00  9.000E+00
</event>
<event>
      5  10001  3.52971E+09  1.19531E+01 -1.00000E+00  1.87203E-01
      21    -1     0     0   512   515  0.000000000E+00  0.000000000E+00  9.815381036E+00  9.815381036E+00  0.000000000E+00  0.00000E+00  9.000E+00
      21    -1     0     0   511   512  0.000000000E+00  0.000000000E+00 -9.337426193E+01  9.337426193E+01  0.000000000E+00  0.00000E+00  9.000E+00
      -4     1     1     2     0   513 -6.574470563E+00  3.626547000E+00  2.282168371E+00  7.989605673E+00  1.500000000E+00  0.00000E+00  9.000E+00
       4     1     1     2   511     0  1.282018383E+01  4.759807415E+00 -8.331431952E+01  8.444251724E+01  1.500000000E+00  0.00000E+00  9.000E+00
      21     1     1     2   513   515 -6.245713264E+00 -8.386354414E+00 -2.526729741E+00  1.075752005E+01  3.358551165E-07  0.00000E+00  9.000E+00
</event>
<event>
      5  10001  3.52971E+09  2.78277E+01 -1.00000E+00  1.55339E-01
      21    -1     0     0   514   511  0.000000000E+00  0.000000000E+00  6.409936839E+01  6.409936839E+01  0.000000000E+00  0.00000E+00  9.000E+00
      21    -1     0     0   513   515  0.000000000E+00  0.000000000E+00 -1.505839856E+01  1.505839856E+01  0.000000000E+00  0.00000E+00  9.000E+00
      21     1     1     2   514   515 -1.935203419E+01  3.311621120E-01  1.447873263E+01  2.417115211E+01  1.685873940E-07  0.00000E+00  9.000E+00
      21     1     1     2   513   512  2.359639430E+01 -1.117293060E+01  3.459831350E+01  4.334359814E+01  6.743495762E-07  0.00000E+00  9.000E+00
      21     1     1     2   512   511 -4.244360109E+00  1.084176849E+01 -3.607630351E-02  1.164301671E+01  2.416853858E-07  0.00000E+00  9.000E+00
</event>
<event>
      5  10001  3.52971E+09  4.38461E+00 -1.00000E+00  2.54408E-01
      21    -1     0     0   516   513  0.000000000E+00  0.000000000E+00  3.366596505E+00  3.366596505E+00  0.000000000E+00  0.00000E+00  9.000E+00
      21    -1     0     0   517   511  0.000000000E+00  0.000000000E+00 -1.393609705E+02  1.393609705E+02  0.000000000E+00  0.00000E+00  9.000E+00
      21     1     1     2   516   511 -1.200052968E+01  1.826211022E+00 -9.234298102E+00  1.525188581E+01  4.460403188E-07  0.00000E+00  9.000E+00
      21     1     1     2   514   513  1.008289121E+01 -3.089377409E-01 -7.733368431E+01  7.798883809E+01  9.536743164E-07  0.00000E+00  9.000E+00
      21     1     1     2   517   514  1.917638467E+00 -1.517273281E+00 -4.942639163E+01  4.948684315E+01  9.536743164E-07  0.00000E+00  9.000E+00
</event>
<event>
      5  10001  3.52971E+09  1.38669E+01 -1.00000E+00  1.80655E-01
      21    -1     0     0   512   511  0.000000000E+00  0.000000000E+00  7.710881055E+00  7.710881055E+00  0.000000000E+00  0.00000E+00  9.000E+00
      21    -1     0     0   517   515  0.000000000E+00  0.000000000E+00 -1.456742411E+02  1.456742411E+02  0.000000000E+00  0.00000E+00  9.000E+00
      21     1     1     2   512   515 -7.844496985E+00  5.774726194E+00 -1.170039893E+02  1.174087608E+02  1.348699152E-06  0.00000E+00  9.000E+00
      21     1     1     2   513   511  4.746215697E+00 -1.275320812E+01  6.559326508E-02  1.360790885E+01  3.893941990E-07  0.00000E+00  9.000E+00
      21     1     1     2   517   513  3.098281287E+00  6.978481925E+00 -2.102496404E+01  2.236845255E+01  2.384185791E-07  0.00000E+00  9.000E+00
</event>
<event>
      5  10001  3.52971E+09  1.19721E+01 -1.00000E+00  1.87130E-01
      21    -1     0     0   514   513  0.000000000E+00  0.000000000E+00  1.925817807E+02  1.925817807E+02  0.000000000E+00  0.00000E+00  9.000E+00
      21    -1     0     0   517   516  0.000000000E+00  0.000000000E+00 -1.299108667E+00  1.299108667E+00  0.000000000E+00  0.00000E+00  9.000E+00
      21     1     1     2   514   516 -7.993318631E+00 -2.366336051E+00  2.188247797E+01  2.341656532E+01  2.384185791E-07  0.00000E+00  9.000E+00
      21     1     1     2   511   513  4.346414205E+00  1.005023798E+00  1.623465985E+02  1.624078799E+02  0.000000000E+00  0.00000E+00  9.000E+00
      21     1     1     2   517   511  3.646904426E+00  1.361312253E+00  7.053595546E+00  8.056444195E+00  1.884864366E-07  0.00000E+00  9.000E+00
</event>
<event>
      5  10001  3.52971E+09  3.65395E+00 -1.00000E+00  2.73078E-01
      21    -1     0     0   512   511  0.000000000E+00  0.000000000E+00  3.529702889E+01  3.529702889E+01  0.000000000E+00  0.00000E+00  9.000E+00
      -3    -1     0     0     0   515  0.000000000E+00  0.000000000E+00 -1.084320741E+01  1.084320741E+01  0.000000000E+00  0.00000E+00  9.000E+00
      21     1     1     2   512   515  1.228650146E+00 -1.373982743E+01  2.400031035E+01  2.768225670E+01  0.000000000E+00  0.00000E+00  9.000E+00
      21     1     1     2   517   511  2.179231714E-01  1.038556486E+01  5.850322698E+00  1.192198489E+01  2.384185791E-07  0.00000E+00  9.000E+00
      -3     1     1     2     0   517 -1.446573318E+00  3.354262564E+00 -5.396811566E+00  6.535994706E+00  5.000000000E-01  0.00000E+00  9.000E+00
</event>
<event>
      5  10001  3.52971E+09  3.92923E+00 -1.00000E+00  2.65302E-01
      21    -1     0     0   513   515  0.000000000E+00  0.000000000E+00  2.192243156E-01  2.192243156E-01  0.000000000E+00  0.00000E+00  9.000E+00
      21    -1     0     0   516   514  0.000000000E+00  0.000000000E+00 -1.185435992E+03  1.185435992E+03  0.000000000E+00  0.00000E+00  9.000E+00
      21     1     1     2   513   514  1.163209846E+01 -4.587290064E+00 -9.018178203E+02  9.019045016E+02  1.078959322E-05  0.00000E+00  9.000E+00
      21     1     1     2   516   511 -7.469105059E+00  5.679878633E+00 -1.583965462E+02  1.586742399E+02  1.907348633E-06  0.00000E+00  9.000E+00
      21     1     1     2   511   515 -4.162993402E+00 -1.092588569E+00 -1.250024011E+02  1.250764748E+02  3.015782986E-06  0.00000E+00  9.000E+00
</event>
<event>
      5  10001  3.52971E+09  1.49274E+01 -1.00000E+00  1.77579E-01
      21    -1     0     0   512   515  0.000000000E+00  0.000000000E+00  1.443434275E+00  1.443434275E+00  0.000000000E+00  0.00000E+00  9.000E+00
       2    -1     0     0   515     0  0.000000000E+00  0.000000000E+00 -1.479896836E+03  1.479896836E+03  0.000000000E+00  0.00000E+00  9.000E+00
      21     1     1     2   512   511  6.504559116E+00  9.958960029E+00 -2.405293654E+01  2.683344798E+01  0.000000000E+00  0.00000E+00  9.000E+00
      21     1     1     2   511   513 -8.817343095E+00 -5.849827472E+00 -6.001120811E+02  6.002053615E+02  7.629394531E-06  0.00000E+00  9.000E+00
       2     1     1     2   513     0  2.312783980E+00 -4.109132557E+00 -8.542883845E+02  8.543014612E+02  3.300000131E-01  0.00000E+00  9.000E+00
</event>
<event>
      5  10001  3.52971E+09  6.62855E+00 -1.00000E+00  2.18950E-01
       1    -1     0     0   511     0  0.000000000E+00  0.000000000E+00  8.038016977E+00  8.038016977E+00  0.000000000E+00  0.00000E+00  9.000E+00
      21    -1     0     0   513   512  0.000000000E+00  0.000000000E+00 -7.024256071E+01  7.024256071E+01  0.000000000E+00  0.00000E+00  9.000E+00
      21     1     1     2   511   514  9.176513845E+00 -9.079690126E+00 -5.306020142E+01  5.460800448E+01  9.536743164E-07  0.00000E+00  9.000E+00
       1     1     1     2   513     0 -2.594439422E+00  8.299343184E+00  3.513586067E+00  9.384263437E+00  3.300000131E-01  0.00000E+00  9.000E+00
      21     1     1     2   514   512 -6.582074423E+00  7.803469423E-01 -1.265792838E+01  1.428830977E+01  1.685873940E-07  0.00000E+00  9.000E+00
</event>
<event>
      5  10001  3.52971E+09  4.44552E+01 -1.00000E+00  1.42050E-01
      21    -1     0     0   515   513  0.000000000E+00  0.000000000E+00  1.786879173E+01  1.786879173E+01  0.000000000E+00  0.00000E+00  9.000E+00
      21    -1     0     0   516   515  0.000000000E+00  0.000000000E+00 -3.753368848E+02  3.753368848E+02  0.000000000E+00  0.00000E+00  9.000E+00
      21     1     1     2   516   512  4.637829249E+01  1.871659762E+00 -2.732194193E+02  2.771340835E+02  0.000000000E+00  0.00000E+00  9.000E+00
      21     1     1     2   512   511 -1.846131004E+01 -7.018952040E+00  6.652569062E+00  2.084088125E+01  6.019774043E-07  0.00000E+00  9.000E+00
      21     1     1     2   511   513 -2.791698245E+01  5.147292278E+00 -9.090124283E+01  9.523071183E+01  1.348699152E-06  0.00000E+00  9.000E+00
</event>
<event>
      5  10001  3.52971E+09  2.95244E+00 -1.00000E+00  2.98979E-01
      21    -1     0     0   512   511  0.000000000E+00  0.000000000E+00  2.309628472E+02  2.309628472E+02  0.000000000E+00  0.00000E+00  9.000E+00
      21    -1     0     0   513   514  0.000000000E+00  0.000000000E+00 -6.521825219E+00  6.521825219E+00  0.000000000E+00  0.00000E+00  9.000E+00
      21     1     1     2   517   511 -6.734154324E+00  6.789166273E+00  1.180639963E+02  1.184506177E+02  1.348699152E-06  0.00000E+00  9.000E+00
      21     1     1     2   513   517  8.477185399E+00 -9.172182310E+00 -1.258199808E-01  1.249029348E+01  3.149357863E-07  0.00000E+00  9.000E+00
      21     1     1     2   512   514 -1.743031075E+00  2.383016036E+00  1.065028457E+02  1.065437613E+02  1.907348633E-06  0.00000E+00  9.000E+00
</event>
<event>
      5  10001  3.52971E+09  7.74544E+00 -1.00000E+00  2.09519E-01
      21    -1     0     0   517   513  0.000000000E+00  0.000000000E+00  3.360465739E+00  3.360465739E+00  0.000000000E+00  0.00000E+00  9.000E+00
      21    -1     0     0   511   516  0.000000000E+00  0.000000000E+00 -3.387438145E+02  3.387438145E+02  0.000000000E+00  0.00000E+00  9.000E+00
      21     1     1     2   515   516 -8.035360189E+00  1.413955249E+01 -1.446724345E+02  1.455836779E+02  2.697398305E-06  0.00000E+00  9.000E+00
      21     1     1     2   511   513  7.749758985E+00 -6.399382090E+00 -1.880684580E+02  1.883368147E+02  0.000000000E+00  0.00000E+00  9.000E+00
      21     1     1     2   517   515  2.856012040E-01 -7.740170401E+00 -2.642456211E+00  8.183787675E+00  1.228781231E-07  0.00000E+00  9.000E+00
</event>
<event>
      5  10001  3.52971E+09  1.14457E+01 -1.00000E+00  1.89209E-01
      21    -1     0     0   512   516  0.000000000E+00  0.000000000E+00  4.775243448E+02  4.775243448E+02  0.000000000E+00  0.00000E+00  9.000E+00
      21    -1     0     0   514   512  0.000000000E+00  0.000000000E+00 -3.505178782E+00  3.505178782E+00  0.000000000E+00  0.00000E+00  9.000E+00
      21     1     1     2   511   513  1.739718609E+01  4.514669387E+00  1.181307531E+02  1.194902471E+02  1.907348633E-06  0.00000E+00  9.000E+00
      21     1     1     2   514   511 -2.843549614E+01 -7.541284249E+00  7.719040445E+01  8.260633721E+01  1.651812370E-06  0.00000E+00  9.000E+00
      21     1     1     2   513   516  1.103831005E+01  3.026614862E+00  2.786980084E+02  2.789329392E+02  5.394796609E-06  0.00000E+00  9.000E+00
</event>
<event>
      5  10001  3.52971E+09  6.69174E+00 -1.00000E+00  2.18350E-01
      21    -1     0     0   512   511  0.000000000E+00  0.000000000E+00  2.666267668E+01  2.666267668E+01  0.000000000E+00  0.00000E+00  9.000E+00
      21    -1     0     0   516   515  0.000000000E+00  0.000000000E+00 -4.998995380E+01  4.998995380E+01  0.000000000E+00  0.00000E+00  9.000E+00
      21     1     1     2   514   511  8.244228937E+00  7.237642817E+00 -2.639941865E+01  2.858811098E+01  4.768371582E-07  0.00000E+00  9.000E+00
      21     1     1     2   516   514 -1.244334091E+01 -1.244791172E+01 -1.846623007E+01  2.551056433E+01  2.384185791E-07  0.00000E+00  9.000E+00
      21     1     1     2   512   515  4.199111976E+00  5.210268900E+00  2.153837159E+01  2.255395518E+01  2.384185791E-07  0.00000E+00  9.000E+00
</event>
<event>
      5  10001  3.52971E+09  6.03090E+00 -1.00000E+00  2.25120E-01
      21    -1     0     0   513   515  0.000000000E+00  0.000000000E+00  1.468216531E+02  1.468216531E+02  0.000000000E+00  0.00000E+00  9.000E+00
      21    -1     0     0   511   514  0.000000000E+00  0.000000000E+00 -2.955958074E+01  2.955958074E+01  0.000000000E+00  0.00000E+00  9.000E+00
      21     1     1     2   513   517  1.203331285E+01 -2.883825270E+00  6.970328101E+01  7.079311019E+01  1.348699152E-06  0.00000E+00  9.000E+00
      21     1     1     2   511   515 -1.625448391E+01  7.191192735E+00  7.521263546E+01  7.728429357E+01  0.000000000E+00  0.00000E+00  9.000E+00
      21     1     1     2   517   514  4.221171063E+00 -4.307367465E+00 -2.765384414E+01  2.830383004E+01  4.768371582E-07  0.00000E+00  9.000E+00
</event>
<event>
      5  10001  3.52971E+09  4.69687E+01 -1.00000E+00  1.40641E-01
      21    -1     0     0   512   511  0.000000000E+00  0.000000000E+00  6.572403476E+01  6.572403476E+01  0.000000000E+00  0.00000E+00  9.000E+00
      21    -1     0     0   517   516  0.000000000E+00  0.000000000E+00 -1.237591475E+01  1.237591475E+01  0.000000000E+00  0.00000E+00  9.000E+00
      21     1     1     2   512   516 -1.356527559E+01 -3.057728302E+00  6.949298372E-01  1.392297855E+01  2.860479626E-07  0.00000E+00  9.000E+00
      21     1     1     2   517   513  5.960697375E+00 -4.861136954E+00 -2.386212369E+00  8.053233832E+00  1.685873940E-07  0.00000E+00  9.000E+00
      21     1     1     2   513   511  7.604578210E+00  7.918865256E+00  5.503940255E+01  5.612373713E+01  0.000000000E+00  0.00000E+00  9.000E+00
</event>
<event>
      5  10001  3.52971E+09  6.09844E+00 -1.00000E+00  2.24374E-01
      21    -1     0     0   513   511  0.000000000E+00  0.000000000E+00  7.080915754E+01  7.080915754E+01  0.000000000E+00  0.00000E+00  9.000E+00
      21    -1     0     0   514   512  0.000000000E+00  0.000000000E+00 -8.333569138E+00  8.333569138E+00  0.000000000E+00  0.00000E+00  9.000E+00
      21     1     1     2   514   511  9.705554794E+00  9.615716609E+00  1.920386765E+01  2.356795139E+01  3.371747881E-07  0.00000E+00  9.000E+00
       1     1     1     2   513     0 -1.369541013E+01 -1.422675611E+01  4.507123055E+01  4.920863310E+01  3.300000131E-01  0.00000E+00  9.000E+00
      -1     1     1     2     0   512  3.989855336E+00  4.611039504E+00 -1.799509799E+00  6.366142194E+00  3.300000131E-01  0.00000E+00  9.000E+00
</event>
<event>
      5  10001  3.52971E+09  2.70101E+01 -1.00000E+00  1.56273E-01
      -4    -1     0     0     0   515  0.000000000E+00  0.000000000E+00  8.006706874E+01  8.006706874E+01  0.000000000E+00  0.00000E+00  9.000E+00
      21    -1     0     0   516   512  0.000000000E+00  0.000000000E+00 -3.519302981E+00  3.519302981E+00  0.000000000E+00  0.00000E+00  9.000E+00
      21     1     1     2   511   512 -3.773110905E+00 -3.459735913E+00 -1.284916472E+00  5.277987195E+00  9.996002812E-08  0.00000E+00  9.000E+00
      21     1     1     2   516   515  3.209794562E+00 -8.522851225E-02  1.427104994E+01  1.462781294E+01  1.685873940E-07  0.00000E+00  9.000E+00
      -4     1     1     2     0   511  5.633163425E-01  3.544964426E+00  6.356163229E+01  6.368057159E+01  1.500000000E+00  0.00000E+00  9.000E+00
</event>
<event>
      5  10001  3.52971E+09  7.91158E+00 -1.00000E+00  2.08298E-01
      21    -1     0     0   513   512  0.000000000E+00  0.000000000E+00  3.509090520E+02  3.509090520E+02  0.000000000E+00  0.00000E+00  9.000E+00
      21    -1     0     0   514   513  0.000000000E+00  0.000000000E+00 -3.657643369E+01  3.657643369E+01  0.000000000E+00  0.00000E+00  9.000E+00
      21     1     1     2   514   511  5.529900804E+00 -1.218223745E+01 -3.489099509E+01  3.736801106E+01  1.348699152E-06  0.00000E+00  9.000E+00
      21     1     1     2   515   512 -7.821921978E+00  4.744955298E+00  3.096915272E+02  3.098266274E+02  3.814697266E-06  0.00000E+00  9.000E+00
      21     1     1     2   511   515  2.292021175E+00  7.437282154E+00  3.953208622E+01  4.029084719E+01  4.768371582E-07  0.00000E+00  9.000E+00
</event>
<event>
      5  10001  3.52971E+09  3.14132E+00 -1.00000E+00  2.90921E-01
      21    -1     0     0   516   514  0.000000000E+00  0.000000000E+00  9.201808159E+01  9.201808159E+01  0.000000000E+00  0.00000E+00  9.000E+00
      21    -1     0     0   512   517  0.000000000E+00  0.000000000E+00 -1.358565682E+01  1.358565682E+01  0.000000000E+00  0.00000E+00  9.000E+00
      21     1     1     2   516   517  4.312130133E-01  1.256150301E+01  1.231401027E+01  1.759579925E+01  0.000000000E+00  0.00000E+00  9.000E+00
      21     1     1     2   511   514 -1.889571101E+00 -9.779224711E+00  7.650812625E+01  7.715372381E+01  0.000000000E+00  0.00000E+00  9.000E+00
      21     1     1     2   512   511  1.458358087E+00 -2.782278296E+00 -1.038971174E+01  1.085421535E+01  0.000000000E+00  0.00000E+00  9.000E+00
</event>
<event>
      5  10001  3.52971E+09  7.07685E+00 -1.00000E+00  2.14880E-01
      21    -1     0     0   514   511  0.000000000E+00  0.000000000E+00  9.108878642E+00  9.108878642E+00  0.000000000E+00  0.00000E+00  9.000E+00
      21    -1     0     0   512   513  0.000000000E+00  0.000000000E+00 -5.683879064E+01  5.683879064E+01  0.000000000E+00  0.00000E+00  9.000E+00
      21     1     1     2   512   515  2.892750662E+00 -9.119869037E+00 -4.588904147E+01  4.687583754E+01  6.743495762E-07  0.00000E+00  9.000E+00
      21     1     1     2   515   511  3.877778011E+00  1.117940578E+01 -1.959480329E+00  1.199399179E+01  3.488272402E-07  0.00000E+00  9.000E+00
      21     1     1     2   514   513 -6.770528673E+00 -2.059536738E+00  1.186098090E-01  7.077839952E+00  1.408608076E-07  0.00000E+00  9.000E+00
</event>
<event>
      5  10001  3.52971E+09  4.60440E+00 -1.00000E+00  2.49847E-01
      21    -1     0     0   516   513  0.000000000E+00  0.000000000E+00  2.421404923E+02  2.421404923E+02  0.000000000E+00  0.00000E+00  9.000E+00
      21    -1     0     0   512   517  0.000000000E+00  0.000000000E+00 -1.617191498E+00  1.617191498E+00  0.000000000E+00  0.00000E+00  9.000E+00
      21     1     1     2   516   517  9.511675936E+00  1.118158484E+01  4.487351358E+01  4.721368488E+01  0.000000000E+00  0.00000E+00  9.000E+00
      21     1     1     2   512   511 -8.983573154E+00 -9.738083866E+00  1.931878870E+02  1.936416653E+02  2.697398305E-06  0.00000E+00  9.000E+00
      21     1     1     2   511   513 -5.281027820E-01 -1.443500971E+00  2.461900177E+00  2.902333558E+00  2.980232239E-08  0.00000E+00  9.000E+00
</event>
<event>
      5  10001  3.52971E+09  7.12183E+00 -1.00000E+00  2.14494E-01
      21    -1     0     0   514   512  0.000000000E+00  0.000000000E+00  6.270926326E-01  6.270926326E-01  0.000000000E+00  0.00000E+00  9.000E+00
      21    -1     0     0   515   513  0.000000000E+00  0.000000000E+00 -2.697089253E+02  2.697089253E+02  0.000000000E+00  0.00000E+00  9.000E+00
      21     1     1     2   514   513 -6.177130311E+00 -7.863960991E+00 -1.953687242E+02  1.956244801E+02  2.697398305E-06  0.00000E+00  9.000E+00
      21     1     1     2   516   512  2.507141572E+00  1.777703326E+00 -7.318964723E+00  7.938087464E+00  2.665600750E-07  0.00000E+00  9.000E+00
      21     1     1     2   515   516  3.669988739E+00  6.086257665E+00 -6.639414376E+01  6.677345038E+01  0.000000000E+00  0.00000E+00  9.000E+00
</event>
<event>
      5  10001  3.52971E+09  9.77780E+00 -1.00000E+00  1.96887E-01
      21    -1     0     0   511   513  0.000000000E+00  0.000000000E+00  4.144920825E+01  4.144920825E+01  0.000000000E+00  0.00000E+00  9.000E+00
      21    -1     0     0   515   517  0.000000000E+00  0.000000000E+00 -1.093943260E+01  1.093943260E+01  0.000000000E+00  0.00000E+00  9.000E+00
      21     1     1     2   511   517 -5.426342296E-01  1.411286639E+01 -3.367264455E+00  1.451915699E+01  3.475518164E-07  0.00000E+00  9.000E+00
      21     1     1     2   512   513  2.914839931E+00 -3.859720989E+00  1.926004808E+01  1.985807619E+01  3.371747881E-07  0.00000E+00  9.000E+00
      21     1     1     2   515   512 -2.372205701E+00 -1.025314540E+01  1.461699203E+01  1.801140768E+01  1.685873940E-07  0.00000E+00  9.000E+00
</event>
<event>
      5  10001  3.52971E+09  1.03121E+01 -1.00000E+00  1.94222E-01
      21    -1     0     0   511   513  0.000000000E+00  0.000000000E+00  1.249747256E+02  1.249747256E+02  0.000000000E+00  0.00000E+00  9.000E+00
      21    -1     0     0   515   514  0.000000000E+00  0.000000000E+00 -4.198606583E+01  4.198606583E+01  0.000000000E+00  0.00000E+00  9.000E+00
      21     1     1     2   512   513  2.608635310E+00 -5.520946987E+00  1.028584430E+02  1.030395318E+02  1.348699152E-06  0.00000E+00  9.000E+00
      21     1     1     2   515   512  1.381202644E-01  1.546053386E+01 -3.913019932E+01  4.207397869E+01  4.768371582E-07  0.00000E+00  9.000E+00
      21     1     1     2   511   514 -2.746755575E+00 -9.939586870E+00  1.926041615E+01  2.184728092E+01  0.000000000E+00  0.00000E+00  9.000E+00
</event>
<event>
      5  10001  3.52971E+09  3.30896E+01 -1.00000E+00  1.50138E-01
      21    -1     0     0   516   514  0.000000000E+00  0.000000000E+00  2.310774710E+00  2.310774710E+00  0.000000000E+00  0.00000E+00  9.000E+00
      21    -1     0     0   513   517  0.000000000E+00  0.000000000E+00 -1.913755734E+02  1.913755734E+02  0.000000000E+00  0.00000E+00  9.000E+00
      21     1     1     2   516   517 -3.876899051E+00 -3.284761786E+00 -4.471210501E+01  4.499991489E+01  4.768371582E-07  0.00000E+00  9.000E+00
      21     1     1     2   512   514  3.640131906E+00 -5.580739754E+00 -3.446785960E+00  7.501703137E+00  3.601028315E-07  0.00000E+00  9.000E+00
      21     1     1     2   513   512  2.367671449E-01  8.865501540E+00 -1.409059077E+02  1.411847300E+02  1.907348633E-06  0.00000E+00  9.000E+00
</event>
<event>
      5  10001  3.52971E+09  3.00341E+00 -1.00000E+00  2.96708E-01
      21    -1     0     0   511   512  0.000000000E+00  0.000000000E+00  2.678790579E+02  2.678790579E+02  0.000000000E+00  0.00000E+00  9.000E+00
      21    -1     0     0   513   514  0.000000000E+00  0.000000000E+00 -1.262691789E+02  1.262691789E+02  0.000000000E+00  0.00000E+00  9.000E+00
      21     1     1     2   511   515  5.144340400E+00  1.098561249E+01  6.284651802E+01  6.400650551E+01  1.651812370E-06  0.00000E+00  9.000E+00
      21     1     1     2   513   512 -3.724456222E+00 -1.363218971E+01  2.041903491E+02  2.046787894E+02  2.697398305E-06  0.00000E+00  9.000E+00
      21     1     1     2   515   514 -1.419884178E+00  2.646577222E+00 -1.254269881E+02  1.254629419E+02  1.348699152E-06  0.00000E+00  9.000E+00
</event>
<event>
      5  10001  3.52971E+09  3.24765E+00 -1.00000E+00  2.86782E-01
      21    -1     0     0   516   512  0.000000000E+00  0.000000000E+00  2.278803874E+01  2.278803874E+01  0.000000000E+00  0.00000E+00  9.000E+00
      21    -1     0     0   517   516  0.000000000E+00  0.000000000E+00 -1.998905461E+01  1.998905461E+01  0.000000000E+00  0.00000E+00  9.000E+00
      21     1     1     2   513   512 -1.129648951E+00 -1.208203875E+01  1.695955650E+01  2.085373645E+01  2.384185791E-07  0.00000E+00  9.000E+00
      21     1     1     2   517   511  2.878732328E-01  1.297911889E+01 -1.542372522E+01  2.016015123E+01  3.371747881E-07  0.00000E+00  9.000E+00
      21     1     1     2   511   513  8.417757182E-01 -8.970801415E-01  1.263152844E+00  1.763205673E+00  5.960464478E-08  0.00000E+00  9.000E+00
</event>
<event>
      5  10001  3.52971E+09  4.40413E+00 -1.00000E+00  2.53987E-01
      21    -1     0     0   511   515  0.000000000E+00  0.000000000E+00  7.215039216E-01  7.215039216E-01  0.000000000E+00  0.00000E+00  9.000E+00
       1    -1     0     0   512     0  0.000000000E+00  0.000000000E+00 -1.188934594E+03  1.188934594E+03  0.000000000E+00  0.00000E+00  9.000E+00
      21     1     1     2   512   514  1.086280095E+01  4.104778275E+00 -7.625642258E+01  7.713554067E+01  3.568322551E-06  0.00000E+00  9.000E+00
       1     1     1     2   511     0 -1.106288065E+01  2.946619776E-01 -1.093114163E+03  1.093170233E+03  3.300000131E-01  0.00000E+00  9.000E+00
      21     1     1     2   514   515  2.000797036E-01 -4.399440253E+00 -1.884250404E+01  1.935032467E+01  8.920806376E-07  0.00000E+00  9.000E+00
</event>
<event>
      5  10001  3.52971E+09  1.86702E+00 -1.00000E+00  3.77598E-01
      21    -1     0     0   511   514  0.000000000E+00  0.000000000E+00  5.220585621E+00  5.220585621E+00  0.000000000E+00  0.00000E+00  9.000E+00
      21    -1     0     0   512   515  0.000000000E+00  0.000000000E+00 -1.217026629E+02  1.217026629E+02  0.000000000E+00  0.00000E+00  9.000E+00
      21     1     1     2   513   515  1.039934859E+01  5.073814812E+00 -3.120796581E+01  3.328403789E+01  9.536743164E-07  0.00000E+00  9.000E+00
      21     1     1     2   512   514 -9.480931460E+00 -6.699318522E+00 -8.885003500E+01  8.960523227E+01  9.536743164E-07  0.00000E+00  9.000E+00
      21     1     1     2   511   513 -9.184171324E-01  1.625503710E+00  3.575923534E+00  4.033978367E+00  1.115100797E-07  0.00000E+00  9.000E+00
</event>
<event>
      5  10001  3.52971E+09  7.70390E+00 -1.00000E+00  2.09830E-01
      21    -1     0     0   516   512  0.000000000E+00  0.000000000E+00  7.655447375E+01  7.655447375E+01  0.000000000E+00  0.00000E+00  9.000E+00
       2    -1     0     0   511     0  0.000000000E+00  0.000000000E+00 -2.623254110E+00  2.623254110E+00  0.000000000E+00  0.00000E+00  9.000E+00
      21     1     1     2   511   512  7.083130977E+00 -8.808703511E+00  3.882524136E+01  4.043715332E+01  4.768371582E-07  0.00000E+00  9.000E+00
       2     1     1     2   514     0 -1.024684133E+01  5.031473963E+00  2.332283973E+01  2.596877434E+01  3.300000131E-01  0.00000E+00  9.000E+00
      21     1     1     2   516   514  3.163710358E+00  3.777229549E+00  1.178313856E+01  1.277180021E+01  0.000000000E+00  0.00000E+00  9.000E+00
</event>
<event>
      5  10001  3.52971E+09  2.43443E+00 -1.00000E+00  3.27409E-01
      21    -1     0     0   511   514  0.000000000E+00  0.000000000E+00  2.832135668E+00  2.832135668E+00  0.000000000E+00  0.00000E+00  9.000E+00
      -1    -1     0     0     0   513  0.000000000E+00  0.000000000E+00 -5.611193343E+01  5.611193343E+01  0.000000000E+00  0.00000E+00  9.000E+00
      -1     1     1     2     0   514  9.973100657E-01  1.037645613E+01 -4.015221122E+01  4.148462890E+01  3.300000131E-01  0.00000E+00  9.000E+00
      21     1     1     2   511   512  1.001107510E+00 -8.894181024E+00 -9.417040646E+00  1.299189466E+01  2.920019320E-07  0.00000E+00  9.000E+00
      21     1     1     2   512   513 -1.998417576E+00 -1.482275103E+00 -3.710545899E+00  4.467545540E+00  0.000000000E+00  0.00000E+00  9.000E+00
</event>
<event>
      5  10001  3.52971E+09  5.68472E+00 -1.00000E+00  2.29169E-01
      21    -1     0     0   515   512  0.000000000E+00  0.000000000E+00  5.375332495E+01  5.375332495E+01  0.000000000E+00  0.00000E+00  9.000E+00
      21    -1     0     0   516   515  0.000000000E+00  0.000000000E+00 -2.934887980E+00  2.934887980E+00  0.000000000E+00  0.00000E+00  9.000E+00
      21     1     1     2   513   512  1.122245493E+01  2.758639653E+00  1.906733048E+01  2.229611354E+01  4.129530925E-07  0.00000E+00  9.000E+00
      21     1     1     2   511   513 -5.934174980E+00 -4.568028419E+00  1.567343879E+01  1.737060735E+01  1.685873940E-07  0.00000E+00  9.000E+00
      21     1     1     2   516   511 -5.288279945E+00  1.809388766E+00  1.607766770E+01  1.702149204E+01  2.384185791E-07  0.00000E+00  9.000E+00
</event>
<event>
      5  10001  3.52971E+09  2.02897E+01 -1.00000E+00  1.65852E-01
       5    -1     0     0   515     0  0.000000000E+00  0.000000000E+00  8.478273060E+00  8.478273060E+00  0.000000000E+00  0.00000E+00  9.000E+00
      21    -1     0     0   514   511  0.000000000E+00  0.000000000E+00 -2.715458503E+01  2.715458503E+01  0.000000000E+00  0.00000E+00  9.000E+00
      21     1     1     2   515   511  5.034047714E+00  5.774460952E+00 -4.628925023E+00  8.950585598E+00  1.460009660E-07  0.00000E+00  9.000E+00
       5     1     1     2   512     0 -7.390740188E+00 -1.181798692E-01  2.396776452E+00  9.133539632E+00  4.800000191E+00  0.00000E+00  9.000E+00
      21     1     1     2   514   512  2.356692474E+00 -5.656281083E+00 -1.644416340E+01  1.754873286E+01  3.371747881E-07  0.00000E+00  9.000E+00
</event>
<event>
      5  10001  3.52971E+09  1.07532E+01 -1.00000E+00  1.92176E-01
      21    -1     0     0   513   511  0.000000000E+00  0.000000000E+00  3.533101167E-01  3.533101167E-01  0.000000000E+00  0.00000E+00  9.000E+00
      21    -1     0     0   514   516  0.000000000E+00  0.000000000E+00 -1.720172509E+03  1.720172509E+03  0.000000000E+00  0.00000E+00  9.000E+00
      21     1     1     2   513   516  1.164575098E+01 -8.121082325E+00 -2.035100873E+02  2.040047331E+02  4.672030912E-06  0.00000E+00  9.000E+00
      21     1     1     2   514   515 -1.453742954E+01  3.858849849E+00 -1.415958455E+03  1.416038338E+03  1.525878906E-05  0.00000E+00  9.000E+00
      21     1     1     2   515   511  2.891678560E+00  4.262232475E+00 -1.003506563E+02  1.004827480E+02  1.907348633E-06  0.00000E+00  9.000E+00
</event>
<event>
      5  10001  3.52971E+09  7.85644E+00 -1.00000E+00  2.08699E-01
      21    -1     0     0   512   513  0.000000000E+00  0.000000000E+00  7.070739938E+01  7.070739938E+01  0.000000000E+00  0.00000E+00  9.000E+00
      21    -1     0     0   517   511  0.000000000E+00  0.000000000E+00 -2.958822001E+01  2.958822001E+01  0.000000000E+00  0.00000E+00  9.000E+00
      21     1     1     2   512   511  1.135498143E+01  2.071243320E+01 -1.983986191E+01  3.084737611E+01  4.129530925E-07  0.00000E+00  9.000E+00
      21     1     1     2   517   514 -4.355676883E+00 -1.714404541E+01  1.613914755E+01  2.394498482E+01  0.000000000E+00  0.00000E+00  9.000E+00
      21     1     1     2   514   513 -6.999304551E+00 -3.568387786E+00  4.481989373E+01  4.550325845E+01  6.743495762E-07  0.00000E+00  9.000E+00
</event>
<event>
      5  10001  3.52971E+09  5.83722E+00 -1.00000E+00  2.27337E-01
       2    -1     0     0   511     0  0.000000000E+00  0.000000000E+00  1.875277871E+03  1.875277871E+03  0.000000000E+00  0.00000E+00  9.000E+00
      21    -1     0     0   512   515  0.000000000E+00  0.000000000E+00 -4.018547807E+00  4.018547807E+00  0.000000000E+00  0.00000E+00  9.000E+00
      21     1     1     2   511   515 -1.199229354E+01  5.737614482E+00  8.482432507E+00  1.576981248E+01  1.300419821E-06  0.00000E+00  9.000E+00
       2     1     1     2   514     0  8.711328486E+00 -9.097629531E-01  1.839766481E+03  1.839787360E+03  3.300000131E-01  0.00000E+00  9.000E+00
      21     1     1     2   512   514  3.280965057E+00 -4.827851529E+00  2.301040918E+01  2.373924626E+01  4.768371582E-07  0.00000E+00  9.000E+00
</event>
<event>
      5  10001  3.52971E+09  7.83103E+00 -1.00000E+00  2.08885E-01
      21    -1     0     0   513   514  0.000000000E+00  0.000000000E+00  2.697178935E+02  2.697178935E+02  0.000000000E+00  0.00000E+00  9.000E+00
       2    -1     0     0   514     0  0.000000000E+00  0.000000000E+00 -5.555223631E+01  5.555223631E+01  0.000000000E+00  0.00000E+00  9.000E+00
      21     1     1     2   511   512  4.028546616E+00  4.073316368E+00  2.465923472E+02  2.466588875E+02  2.697398305E-06  0.00000E+00  9.000E+00
       2     1     1     2   512     0 -9.131027100E-01 -1.092047215E+01 -5.434400273E+01  5.543888528E+01  3.300000131E-01  0.00000E+00  9.000E+00
      21     1     1     2   513   511 -3.115443906E+00  6.847155786E+00  2.191731270E+01  2.317235701E+01  3.371747881E-07  0.00000E+00  9.000E+00
</event>
<event>
      5  10001  3.52971E+09  4.97273E+00 -1.00000E+00  2.43009E-01
      21    -1     0     0   515   514  0.000000000E+00  0.000000000E+00  6.806986279E+01  6.806986279E+01  0.000000000E+00  0.00000E+00  9.000E+00
      -2    -1     0     0     0   511  0.000000000E+00  0.000000000E+00 -2.906347903E+00  2.906347903E+00  0.000000000E+00  0.00000E+00  9.000E+00
      -2     1     1     2     0   514  1.091795246E+01 -4.531855336E+00  1.464686708E+01  1.882495721E+01  3.300000131E-01  0.00000E+00  9.000E+00
      21     1     1     2   515   512 -5.405428356E+00  6.878845490E-01  3.182639881E+01  3.228949523E+01  3.371747881E-07  0.00000E+00  9.000E+00
      21     1     1     2   512   511 -5.512524105E+00  3.843970787E+00  1.869024899E+01  1.986175825E+01  2.384185791E-07  0.00000E+00  9.000E+00
</event>
<event>
      5  10001  3.52971E+09  7.19323E+01 -1.00000E+00  1.30623E-01
      21    -1     0     0   512   513  0.000000000E+00  0.000000000E+00  1.041274194E+02  1.041274194E+02  0.000000000E+00  0.00000E+00  9.000E+00
       1    -1     0     0   514     0  0.000000000E+00  0.000000000E+00 -1.489281034E+01  1.489281034E+01  0.000000000E+00  0.00000E+00  9.000E+00
      21     1     1     2   514   513 -5.442600837E+00 -8.605777511E+00  2.590440594E+01  2.783378446E+01  3.371747881E-07  0.00000E+00  9.000E+00
      21     1     1     2   512   515 -5.937760201E+00  1.066296902E+01  7.426857500E+01  7.526471376E+01  9.536743164E-07  0.00000E+00  9.000E+00
       1     1     1     2   515     0  1.138036104E+01 -2.057191509E+00 -1.093837190E+01  1.592173150E+01  3.300000131E-01  0.00000E+00  9.000E+00
</event>
<event>
      5  10001  3.52971E+09  5.86214E+00 -1.00000E+00  2.27045E-01
      21    -1     0     0   512   514  0.000000000E+00  0.000000000E+00  4.322564681E+00  4.322564681E+00  0.000000000E+00  0.00000E+00  9.000E+00
      21    -1     0     0   513   516  0.000000000E+00  0.000000000E+00 -4.380314034E+02  4.380314034E+02  0.000000000E+00  0.00000E+00  9.000E+00
      21     1     1     2   511   516  1.131800160E+00 -8.823230142E+00 -7.115232298E+01  7.170623004E+01  1.348699152E-06  0.00000E+00  9.000E+00
      21     1     1     2   513   514 -4.449165949E+00  1.365642339E+01 -3.642600382E+02  3.645430954E+02  0.000000000E+00  0.00000E+00  9.000E+00
      21     1     1     2   512   511  3.317365789E+00 -4.833193253E+00  1.703522467E+00  6.104642626E+00  6.433437212E-07  0.00000E+00  9.000E+00
</event>
<event>
      5  10001  3.52971E+09  2.89240E+00 -1.00000E+00  3.01755E-01
       1    -1     0     0   511     0  0.000000000E+00  0.000000000E+00  2.792543802E-01  2.792543802E-01  0.000000000E+00  0.00000E+00  9.000E+00
       1    -1     0     0   512     0  0.000000000E+00  0.000000000E+00 -4.296763236E+02  4.296763236E+02  0.000000000E+00  0.00000E+00  9.000E+00
       1     1     1     2   512     0  6.635433717E+00  8.350446562E+00 -1.931464988E+02  1.934410449E+02  3.300000131E-01  0.00000E+00  9.000E+00
      21     1     1     2   511   513 -3.077113845E+00 -5.169715184E+00 -1.607509705E+02  1.608635107E+02  1.907348633E-06  0.00000E+00  9.000E+00
       1     1     1     2   513     0 -3.558319872E+00 -3.180731377E+00 -7.549959993E+01  7.565102235E+01  3.300000131E-01  0.00000E+00  9.000E+00
</event>
<event>
      5  10001  3.52971E+09  5.61921E+00 -1.00000E+00  2.29981E-01
      21    -1     0     0   514   512  0.000000000E+00  0.000000000E+00  6.790003518E+01  6.790003518E+01  0.000000000E+00  0.00000E+00  9.000E+00
      21    -1     0     0   513   511  0.000000000E+00  0.000000000E+00 -1.017874128E+02  1.017874128E+02  0.000000000E+00  0.00000E+00  9.000E+00
      21     1     1     2   514   511  3.169939230E+00  1.765206913E+01 -9.787359593E+01  9.950319010E+01  1.348699152E-06  0.00000E+00  9.000E+00
       1     1     1     2   513     0 -4.403322928E+00 -1.217022706E+01  6.318646274E+01  6.449916010E+01  3.300000131E-01  0.00000E+00  9.000E+00
      -1     1     1     2     0   512  1.233383698E+00 -5.481842069E+00  7.997555730E-01  5.685097783E+00  3.300000131E-01  0.00000E+00  9.000E+00
</event>
<event>
      5  10001  3.52971E+09  1.17535E+01 -1.00000E+00  1.87977E-01
      -1    -1     0     0     0   512  0.000000000E+00  0.000000000E+00  9.824603454E+01  9.824603454E+01  0.000000000E+00  0.00000E+00  9.000E+00
      -2    -1     0     0     0   511  0.000000000E+00  0.000000000E+00 -4.230242800E+01  4.230242800E+01  0.000000000E+00  0.00000E+00  9.000E+00
      -2     1     1     2     0   513  1.406010622E+01 -1.846721319E+01 -2.930592818E+01  3.738543669E+01  3.300000131E-01  0.00000E+00  9.000E+00
      -1     1     1     2     0   511 -2.422822320E+01  1.447795649E+01  8.756128171E+01  9.199839661E+01  3.300000131E-01  0.00000E+00  9.000E+00
      21     1     1     2   513   512  1.016811698E+01  3.989256700E+00 -2.311747000E+00  1.116462925E+01  7.884953353E-08  0.00000E+00  9.000E+00
</event>
<event>
      5  10001  3.52971E+09  9.58549E+00 -1.00000E+00  1.97902E-01
      21    -1     0     0   514   513  0.000000000E+00  0.000000000E+00  1.771168400E+02  1.771168400E+02  0.000000000E+00  0.00000E+00  9.000E+00
      21    -1     0     0   512   514  0.000000000E+00  0.000000000E+00 -2.895326244E+01  2.895326244E+01  0.000000000E+00  0.00000E+00  9.000E+00
      21     1     1     2   512   515 -1.318972989E+01  3.843768755E+00 -2.564621916E+01  2.909419341E+01  1.507891493E-06  0.00000E+00  9.000E+00
      21     1     1     2   511   513  8.301095255E+00  8.264620469E-01  1.675641468E+02  1.677716738E+02  2.697398305E-06  0.00000E+00  9.000E+00
      21     1     1     2   515   511  4.888634635E+00 -4.670230802E+00  6.245649960E+00  9.204235317E+00  8.429369702E-08  0.00000E+00  9.000E+00
</event>
<event>
      5  10001  3.52971E+09  1.32777E+01 -1.00000E+00  1.82519E-01
      21    -1     0     0   512   511  0.000000000E+00  0.000000000E+00  5.628582902E+00  5.628582902E+00  0.000000000E+00  0.00000E+00  9.000E+00
      -1    -1     0     0     0   516  0.000000000E+00  0.000000000E+00 -3.051609471E+01  3.051609471E+01  0.000000000E+00  0.00000E+00  9.000E+00
      -1     1     1     2     0   513 -6.339100415E+00  4.743735442E+00 -2.577241051E+01  2.696318348E+01  3.300000131E-01  0.00000E+00  9.000E+00
      21     1     1     2   512   516  5.149924814E+00 -2.017082857E+00 -1.054433221E+00  5.630468743E+00  1.349357536E-07  0.00000E+00  9.000E+00
      21     1     1     2   513   511  1.189175600E+00 -2.726652585E+00  1.939331929E+00  3.551025381E+00  1.618680431E-07  0.00000E+00  9.000E+00
</event>
<event>
      5  10001  3.52971E+09  1.13865E+01 -1.00000E+00  1.89452E-01
      21    -1     0     0   514   516  0.000000000E+00  0.000000000E+00  2.213510512E+02  2.213510512E+02  0.000000000E+00  0.00000E+00  9.000E+00
      21    -1     0     0   511   514  0.000000000E+00  0.000000000E+00 -8.768292326E-01  8.768292326E-01  0.000000000E+00  0.00000E+00  9.000E+00
      21     1     1     2   515   516 -9.395372855E+00 -5.794367580E-01  1.602872731E+02  1.605634413E+02  1.907348633E-06  0.00000E+00  9.000E+00
      21     1     1     2   511   512  1.932318156E+00  4.401948622E+00  1.678193805E+01  1.745693128E+01  4.768371582E-07  0.00000E+00  9.000E+00
      21     1     1     2   512   515  7.463054699E+00 -3.822511864E+00  4.340501084E+01  4.420750783E+01  6.743495762E-07  0.00000E+00  9.000E+00
</event>
<event>
      5  10001  3.52971E+09  1.51635E+01 -1.00000E+00  1.76937E-01
      21    -1     0     0   512   511  0.000000000E+00  0.000000000E+00  1.041485826E+01  1.041485826E+01  0.000000000E+00  0.00000E+00  9.000E+00
       1    -1     0     0   513     0  0.000000000E+00  0.000000000E+00 -7.431459498E+02  7.431459498E+02  0.000000000E+00  0.00000E+00  9.000E+00
      21     1     1     2   514   511  6.097184509E+00 -1.124029267E+01  1.540684976E-01  1.278841567E+01  1.162266693E-06  0.00000E+00  9.000E+00
       1     1     1     2   512     0  4.701926857E+00  1.373789867E+01 -7.288223994E+02  7.289671026E+02  3.300000131E-01  0.00000E+00  9.000E+00
      21     1     1     2   513   514 -1.079911137E+01 -2.497605998E+00 -4.062760654E+00  1.180528975E+01  5.196212463E-07  0.00000E+00  9.000E+00
</event>
<event>
      5  10001  3.52971E+09  9.57252E+00 -1.00000E+00  1.97972E-01
      -5    -1     0     0     0   514  0.000000000E+00  0.000000000E+00  3.855345454E+01  3.855345454E+01  0.000000000E+00  0.00000E+00  9.000E+00
      21    -1     0     0   515   511  0.000000000E+00  0.000000000E+00 -2.180366156E+01  2.180366156E+01  0.000000000E+00  0.00000E+00  9.000E+00
      -5     1     1     2     0   512  7.881457863E+00 -1.248668646E+01  2.009638338E+01  2.539565600E+01  4.800000191E+00  0.00000E+00  9.000E+00
      21     1     1     2   515   514 -1.615626333E+01  1.711053686E+01  2.747135132E+00  2.369265852E+01  2.995096332E-07  0.00000E+00  9.000E+00
      21     1     1     2   512   511  8.274805471E+00 -4.623850397E+00 -6.093725539E+00  1.126880158E+01  0.000000000E+00  0.00000E+00  9.000E+00
</event>
<event>
      5  10001  3.52971E+09  3.90881E+00 -1.00000E+00  2.65844E-01
      21    -1     0     0   514   512  0.000000000E+00  0.000000000E+00  2.674783678E+01  2.674783678E+01  0.000000000E+00  0.00000E+00  9.000E+00
      21    -1     0     0   516   513  0.000000000E+00  0.000000000E+00 -8.170506979E+01  8.170506979E+01  0.000000000E+00  0.00000E+00  9.000E+00
      21     1     1     2   516   511 -9.845218106E+00  4.851135775E+00 -7.836464378E+01  7.912950924E+01  9.536743164E-07  0.00000E+00  9.000E+00
      21     1     1     2   511   512  1.322299689E+01 -2.884047217E+00  1.993473646E+01  2.409479389E+01  9.233911863E-07  0.00000E+00  9.000E+00
      21     1     1     2   514   513 -3.377778788E+00 -1.967088558E+00  3.472674323E+00  5.228603435E+00  7.300048300E-08  0.00000E+00  9.000E+00
</event>
<event>
      5  10001  3.52971E+09  7.11811E+00 -1.00000E+00  2.14526E-01
      21    -1     0     0   515   511  0.000000000E+00  0.000000000E+00  1.206443035E+02  1.206443035E+02  0.000000000E+00  0.00000E+00  9.000E+00
      21    -1     0     0   517   515  0.000000000E+00  0.000000000E+00 -2.080426164E+00  2.080426164E+00  0.000000000E+00  0.00000E+00  9.000E+00
      21     1     1     2   517   513  1.041002346E+01 -1.016541418E+01  3.684246788E+01  3.961150935E+01  4.768371582E-07  0.00000E+00  9.000E+00
      21     1     1     2   512   511 -1.341132153E+00  3.818178371E+00  1.962687621E+01  2.003974529E+01  0.000000000E+00  0.00000E+00  9.000E+00
      21     1     1     2   513   512 -9.068891304E+00  6.347235811E+00  6.209453321E+01  6.307347499E+01  6.743495762E-07  0.00000E+00  9.000E+00
</event>
<event>
      5  10001  3.52971E+09  1.59620E+01 -1.00000E+00  1.74874E-01
      21    -1     0     0   514   512  0.000000000E+00  0.000000000E+00  6.549682665E+00  6.549682665E+00  0.000000000E+00  0.00000E+00  9.000E+00
      21    -1     0     0   513   516  0.000000000E+00  0.000000000E+00 -3.265866083E+01  3.265866083E+01  0.000000000E+00  0.00000E+00  9.000E+00
      21     1     1     2   514   516  1.159319446E+00  6.907006266E+00 -1.004681716E+00  7.075319250E+00  1.999200562E-07  0.00000E+00  9.000E+00
      21     1     1     2   511   512  4.573610440E+00 -3.544754596E+00 -2.481485067E+01  2.548058107E+01  3.371747881E-07  0.00000E+00  9.000E+00
      21     1     1     2   513   511 -5.732929885E+00 -3.362251670E+00 -2.894457742E-01  6.652443177E+00  2.360493975E-07  0.00000E+00  9.000E+00
</event>
<event>
      5  10001  3.52971E+09  5.95116E+00 -1.00000E+00  2.26018E-01
      21    -1     0     0   515   511  0.000000000E+00  0.000000000E+00  6.055199476E+01  6.055199476E+01  0.000000000E+00  0.00000E+00  9.000E+00
      21    -1     0     0   512   515  0.000000000E+00  0.000000000E+00 -5.299151904E+00  5.299151904E+00  0.000000000E+00  0.00000E+00  9.000E+00
      21     1     1     2   513   517  9.734868990E+00  3.411359386E+00  6.407461722E+00  1.214333615E+01  2.064765462E-07  0.00000E+00  9.000E+00
      21     1     1     2   517   511 -1.346511310E+01  1.225625500E+00  4.400927909E+01  4.603941871E+01  1.168007728E-06  0.00000E+00  9.000E+00
      21     1     1     2   512   513  3.730244114E+00 -4.636984886E+00  4.836102048E+00  7.668391813E+00  1.460009660E-07  0.00000E+00  9.000E+00
</event>
<event>
      5  10001  3.52971E+09  4.23451E+00 -1.00000E+00  2.57765E-01
       4    -1     0     0   512     0  0.000000000E+00  0.000000000E+00  9.487223189E+02  9.487223189E+02  0.000000000E+00  0.00000E+00  9.000E+00
      21    -1     0     0   514   511  0.000000000E+00  0.000000000E+00 -1.426706393E+00  1.426706393E+00  0.000000000E+00  0.00000E+00  9.000E+00
      21     1     1     2   512   515  1.483231952E+01 -3.223575626E+00  9.321043386E+01  9.443820267E+01  1.907348633E-06  0.00000E+00  9.000E+00
       4     1     1     2   514     0 -1.095973395E+01  4.931808744E+00  8.490354734E+02  8.491218544E+02  1.500000000E+00  0.00000E+00  9.000E+00
      21     1     1     2   515   511 -3.872585574E+00 -1.708233118E+00  5.049705249E+00  6.588968244E+00  6.769786293E-07  0.00000E+00  9.000E+00
</event>
<event>
      5  10001  3.52971E+09  6.71932E+00 -1.00000E+00  2.18091E-01
      21    -1     0     0   513   511  0.000000000E+00  0.000000000E+00  8.247573431E+00  8.247573431E+00  0.000000000E+00  0.00000E+00  9.000E+00
      21    -1     0     0   515   516  0.000000000E+00  0.000000000E+00 -1.205554808E+02  1.205554808E+02  0.000000000E+00  0.00000E+00  9.000E+00
      21     1     1     2   513   516  6.310141312E+00  9.353525461E+00  3.731652873E+00  1.188408832E+01  5.960464478E-07  0.00000E+00  9.000E+00
      21     1     1     2   515   512 -8.087894958E+00 -6.686474504E+00 -7.172118352E+01  7.248483395E+01  1.348699152E-06  0.00000E+00  9.000E+00
      21     1     1     2   512   511  1.777753646E+00 -2.667050957E+00 -4.431837671E+01  4.443413196E+01  0.000000000E+00  0.00000E+00  9.000E+00
</event>
<event>
      5  10001  3.52971E+09  3.26438E+00 -1.00000E+00  2.86154E-01
      21    -1     0     0   514   512  0.000000000E+00  0.000000000E+00  3.610328594E+00  3.610328594E+00  0.000000000E+00  0.00000E+00  9.000E+00
      21    -1     0     0   513   514  0.000000000E+00  0.000000000E+00 -5.260435568E+02  5.260435568E+02  0.000000000E+00  0.00000E+00  9.000E+00
      21     1     1     2   515   512 -1.149907734E+01 -1.213397425E+00 -5.940532679E+00  1.299965544E+01  1.177097419E-06  0.00000E+00  9.000E+00
      21     1     1     2   511   515  9.546343609E+00 -1.402516254E+00 -3.793611353E+02  3.794838214E+02  0.000000000E+00  0.00000E+00  9.000E+00
      21     1     1     2   513   511  1.952733731E+00  2.615913679E+00 -1.371315601E+02  1.371704085E+02  1.907348633E-06  0.00000E+00  9.000E+00
</event>
<event>
      5  10001  3.52971E+09  5.31322E+00 -1.00000E+00  2.33990E-01
      21    -1     0     0   512   515  0.000000000E+00  0.000000000E+00  2.981909097E+02  2.981909097E+02  0.000000000E+00  0.00000E+00  9.000E+00
      21    -1     0     0   513   516  0.000000000E+00  0.000000000E+00 -8.743217278E+00  8.743217278E+00  0.000000000E+00  0.00000E+00  9.000E+00
      21     1     1     2   511   515  1.028059004E+01  6.020599761E+00  4.930409343E+01  5.072308924E+01  0.000000000E+00  0.00000E+00  9.000E+00
      21     1     1     2   513   511 -1.150317394E+01 -8.499559814E-01 -3.849619503E+00  1.215997558E+01  1.976862425E-07  0.00000E+00  9.000E+00
      21     1     1     2   512   516  1.222583897E+00 -5.170643780E+00  2.439932185E+02  2.440510621E+02  2.697398305E-06  0.00000E+00  9.000E+00
</event>
<event>
      5  10001  3.52971E+09  4.43648E+00 -1.00000E+00  2.53296E-01
      21    -1     0     0   513   515  0.000000000E+00  0.000000000E+00  6.837096014E+00  6.837096014E+00  0.000000000E+00  0.00000E+00  9.000E+00
       2    -1     0     0   511     0  0.000000000E+00  0.000000000E+00 -7.460196673E+02  7.460196673E+02  0.000000000E+00  0.00000E+00  9.000E+00
      21     1     1     2   513   514  2.292481101E+00  1.190548264E+01 -1.201799360E+02  1.207899541E+02  3.303624740E-06  0.00000E+00  9.000E+00
       2     1     1     2   514     0  1.927861412E+00 -1.053770184E+01 -6.247301343E+02  6.248220622E+02  3.300000131E-01  0.00000E+00  9.000E+00
      21     1     1     2   511   515 -4.220342513E+00 -1.367780803E+00  5.727498997E+00  7.244747063E+00  1.000932194E-06  0.00000E+00  9.000E+00
</event>
<event>
      5  10001  3.52971E+09  5.97857E+00 -1.00000E+00  2.25707E-01
      21    -1     0     0   512   514  0.000000000E+00  0.000000000E+00  5.240870656E+01  5.240870656E+01  0.000000000E+00  0.00000E+00  9.000E+00
      21    -1     0     0   511   512  0.000000000E+00  0.000000000E+00 -2.644272180E+01  2.644272180E+01  0.000000000E+00  0.00000E+00  9.000E+00
      21     1     1     2   511   515 -1.174840788E+01 -1.101549015E+00 -2.389331429E+01  2.664824508E+01  0.000000000E+00  0.00000E+00  9.000E+00
      21     1     1     2   515   513  9.256663964E+00  5.160895092E+00  3.709013676E+01  3.857458892E+01  0.000000000E+00  0.00000E+00  9.000E+00
      21     1     1     2   513   514  2.491743913E+00 -4.059346077E+00  1.276916230E+01  1.362859436E+01  2.920019320E-07  0.00000E+00  9.000E+00
</event>
<event>
      5  10001  3.52971E+09  1.06215E+01 -1.00000E+00  1.92774E-01
      21    -1     0     0   516   515  0.000000000E+00  0.000000000E+00  2.936593892E+01  2.936593892E+01  0.000000000E+00  0.00000E+00  9.000E+00
      21    -1     0     0   514   516  0.000000000E+00  0.000000000E+00 -2.616920433E+01  2.616920433E+01  0.000000000E+00  0.00000E+00  9.000E+00
      21     1     1     2   514   511 -1.884641779E+01 -1.380002024E+01  8.398528095E+00  2.482263677E+01  6.848052319E-07  0.00000E+00  9.000E+00
      21     1     1     2   512   515  1.591104352E+01  1.764720845E+01 -2.125142627E-01  2.376195350E+01  2.734347853E-07  0.00000E+00  9.000E+00
      21     1     1     2   511   512  2.935374272E+00 -3.847188214E+00 -4.989279240E+00  6.950552971E+00  1.460009660E-07  0.00000E+00  9.000E+00
</event>
<event>
      5  10001  3.52971E+09  1.62784E+01 -1.00000E+00  1.74098E-01
       2    -1     0     0   512     0  0.000000000E+00  0.000000000E+00  6.516190657E+01  6.516190657E+01  0.000000000E+00  0.00000E+00  9.000E+00
      21    -1     0     0   511   514  0.000000000E+00  0.000000000E+00 -1.201387361E+02  1.201387361E+02  0.000000000E+00  0.00000E+00  9.000E+00
      21     1     1     2   511   513 -1.275314327E+01 -1.879715441E+01 -2.920592294E+01  3.699948124E+01  3.371747881E-07  0.00000E+00  9.000E+00
       2     1     1     2   513     0 -2.100307127E+00  1.213693479E+01  5.987107593E+01  6.112586285E+01  3.300000131E-01  0.00000E+00  9.000E+00
      21     1     1     2   512   514  1.485345040E+01  6.660219611E+00 -8.564198254E+01  8.717529861E+01  9.536743164E-07  0.00000E+00  9.000E+00
</event>
<event>
      5  10001  3.52971E+09  2.68340E+01 -1.00000E+00  1.56479E-01
      21    -1     0     0   515   513  0.000000000E+00  0.000000000E+00  2.730793761E+01  2.730793761E+01  0.000000000E+00  0.00000E+00  9.000E+00
      21    -1     0     0   511   516  0.000000000E+00  0.000000000E+00 -1.195944649E+02  1.195944649E+02  0.000000000E+00  0.00000E+00  9.000E+00
      21     1     1     2   515   516  1.314486173E+00 -1.894394396E+01 -1.116782296E+02  1.132811893E+02  1.907348633E-06  0.00000E+00  9.000E+00
      -4     1     1     2     0   513 -9.646514394E+00  7.118599166E+00  4.745031897E+00  1.298056323E+01  1.500000000E+00  0.00000E+00  9.000E+00
       4     1     1     2   511     0  8.332028221E+00  1.182534480E+01  1.464667046E+01  2.064064993E+01  1.500000000E+00  0.00000E+00  9.000E+00
</event>
<event>
      5  10001  3.52971E+09  3.41841E+01 -1.00000E+00  1.49200E-01
      21    -1     0     0   512   513  0.000000000E+00  0.000000000E+00  1.894954371E+02  1.894954371E+02  0.000000000E+00  0.00000E+00  9.000E+00
      21    -1     0     0   511   512  0.000000000E+00  0.000000000E+00 -1.548229965E+01  1.548229965E+01  0.000000000E+00  0.00000E+00  9.000E+00
      21     1     1     2   514   513 -1.112119720E+01  1.959272584E+01  1.331176391E+02  1.350105988E+02  2.697398305E-06  0.00000E+00  9.000E+00
      21     1     1     2   511   515 -6.869080374E+00 -1.614493869E+01 -6.844740861E+00  1.883331591E+01  6.419616708E-07  0.00000E+00  9.000E+00
      21     1     1     2   515   514  1.799027757E+01 -3.447787147E+00  4.774023915E+01  5.113382205E+01  6.743495762E-07  0.00000E+00  9.000E+00
</event>
<event>
      5  10001  3.52971E+09  1.55173E+01 -1.00000E+00  1.76004E-01
      21    -1     0     0   512   511  0.000000000E+00  0.000000000E+00  4.631675647E+02  4.631675647E+02  0.000000000E+00  0.00000E+00  9.000E+00
      21    -1     0     0   517   516  0.000000000E+00  0.000000000E+00 -5.338734659E+00  5.338734659E+00  0.000000000E+00  0.00000E+00  9.000E+00
      21     1     1     2   517   514 -5.655797992E+00  1.147890438E+01  1.110875303E+01  1.694572780E+01  4.460403188E-07  0.00000E+00  9.000E+00
      21     1     1     2   514   511  1.433823944E+01 -2.433974262E+01  8.628383592E+01  9.079046493E+01  1.348699152E-06  0.00000E+00  9.000E+00
      21     1     1     2   512   516 -8.682441450E+00  1.286083824E+01  3.604362410E+02  3.607701066E+02  6.607249480E-06  0.00000E+00  9.000E+00
</event>
<event>
      5  10001  3.52971E+09  8.42596E+00 -1.00000E+00  2.04763E-01
      21    -1     0     0   513   511  0.000000000E+00  0.000000000E+00  6.996968908E+00  6.996968908E+00  0.000000000E+00  0.00000E+00  9.000E+00
      21    -1     0     0   515   513  0.000000000E+00  0.000000000E+00 -1.472736581E+02  1.472736581E+02  0.000000000E+00  0.00000E+00  9.000E+00
      21     1     1     2   516   511 -1.247053613E+01 -2.627420999E+00 -3.855059555E-01  1.275014617E+01  3.126137901E-07  0.00000E+00  9.000E+00
      21     1     1     2   514   516  8.409102706E+00  7.645816469E+00 -1.214741714E+02  1.220046960E+02  1.348699152E-06  0.00000E+00  9.000E+00
      21     1     1     2   515   514  4.061433426E+00 -5.018395470E+00 -1.841701184E+01  1.951578489E+01  2.384185791E-07  0.00000E+00  9.000E+00
</event>
<event>
      5  10001  3.52971E+09  2.94664E+00 -1.00000E+00  2.99243E-01
      21    -1     0     0   512   514  0.000000000E+00  0.000000000E+00  8.838457721E+00  8.838457721E+00  0.000000000E+00  0.00000E+00  9.000E+00
      21    -1     0     0   511   513  0.000000000E+00  0.000000000E+00 -1.799552589E+02  1.799552589E+02  0.000000000E+00  0.00000E+00  9.000E+00
      -3     1     1     2     0   513 -5.132632292E+00 -1.187222159E+01 -1.121454086E+01  1.712628058E+01  5.000000000E-01  0.00000E+00  9.000E+00
       3     1     1     2   512     0  7.186287255E+00  9.759746727E+00 -3.989394742E-01  1.213690790E+01  5.000000000E-01  0.00000E+00  9.000E+00
      21     1     1     2   511   514 -2.053654963E+00  2.112474866E+00 -1.595033208E+02  1.595305281E+02  1.907348633E-06  0.00000E+00  9.000E+00
</event>
<event>
      5  10001  3.52971E+09  5.30520E+00 -1.00000E+00  2.34100E-01
      21    -1     0     0   515   516  0.000000000E+00  0.000000000E+00  3.965972077E+01  3.965972077E+01  0.000000000E+00  0.00000E+00  9.000E+00
      21    -1     0     0   511   512  0.000000000E+00  0.000000000E+00 -5.267867884E+01  5.267867884E+01  0.000000000E+00  0.00000E+00  9.000E+00
      21     1     1     2   514   516  8.848409115E-01  1.518079387E+01  3.642063886E+01  3.946773848E+01  0.000000000E+00  0.00000E+00  9.000E+00
      21     1     1     2   511   514 -5.265808434E-01 -9.887706179E+00 -1.467186179E+01  1.770049574E+01  3.371747881E-07  0.00000E+00  9.000E+00
      21     1     1     2   515   512 -3.582600681E-01 -5.293087692E+00 -3.476773514E+01  3.517016540E+01  0.000000000E+00  0.00000E+00  9.000E+00
</event>
<event>
      5  10001  3.52971E+09  4.05836E+00 -1.00000E+00  2.61988E-01
      21    -1     0     0   513   511  0.000000000E+00  0.000000000E+00  8.979652153E+01  8.979652153E+01  0.000000000E+00  0.00000E+00  9.000E+00
      21    -1     0     0   514   513  0.000000000E+00  0.000000000E+00 -4.562569060E+01  4.562569060E+01  0.000000000E+00  0.00000E+00  9.000E+00
      21     1     1     2   517   512  9.236552278E+00 -3.177226076E+00  2.342424648E+01  2.537920383E+01  4.768371582E-07  0.00000E+00  9.000E+00
      21     1     1     2   512   511 -1.013103267E+01  7.135785450E+00  6.471346395E+01  6.588922274E+01  9.536743164E-07  0.00000E+00  9.000E+00
      21     1     1     2   514   517  8.944803906E-01 -3.958559374E+00 -4.396687950E+01  4.415378557E+01  6.743495762E-07  0.00000E+00  9.000E+00
</event>
<event>
      5  10001  3.52971E+09  1.95692E+01 -1.00000E+00  1.67150E-01
      21    -1     0     0   515   511  0.000000000E+00  0.000000000E+00  6.975482802E+01  6.975482802E+01  0.000000000E+00  0.00000E+00  9.000E+00
      21    -1     0     0   514   515  0.000000000E+00  0.000000000E+00 -1.740223962E+01  1.740223962E+01  0.000000000E+00  0.00000E+00  9.000E+00
      21     1     1     2   516   511  2.084004552E+00 -1.751720820E+01  6.188049946E+01  6.434587688E+01  1.168007728E-06  0.00000E+00  9.000E+00
      -1     1     1     2     0   516  2.414052155E+00  6.730089314E+00  8.113308245E-01  7.203395567E+00  3.300000131E-01  0.00000E+00  9.000E+00
       1     1     1     2   514     0 -4.498056707E+00  1.078711888E+01 -1.033924189E+01  1.560779519E+01  3.300000131E-01  0.00000E+00  9.000E+00
</event>
<event>
      5  10001  3.52971E+09  6.17459E+00 -1.00000E+00  2.23548E-01
       2    -1     0     0   515     0  0.000000000E+00  0.000000000E+00  4.783208752E+01  4.783208752E+01  0.000000000E+00  0.00000E+00  9.000E+00
      21    -1     0     0   513   511  0.000000000E+00  0.000000000E+00 -9.003684428E+01  9.003684428E+01  0.000000000E+00  0.00000E+00  9.000E+00
      21     1     1     2   513   512 -1.102206025E+01  3.505837238E+00 -7.792866608E+01  7.878231847E+01  1.348699152E-06  0.00000E+00  9.000E+00
       2     1     1     2   512     0  8.409764260E+00 -9.100567131E+00  4.570165850E+01  4.735287685E+01  3.300000131E-01  0.00000E+00  9.000E+00
      21     1     1     2   515   511  2.612295986E+00  5.594729893E+00 -9.977749178E+00  1.173373647E+01  1.192092896E-07  0.00000E+00  9.000E+00
</event>
<event>
      5  10001  3.52971E+09  4.98970E+00 -1.00000E+00  2.42716E-01
      21    -1     0     0   514   512  0.000000000E+00  0.000000000E+00  6.839816744E+00  6.839816744E+00  0.000000000E+00  0.00000E+00  9.000E+00
      21    -1     0     0   516   514  0.000000000E+00  0.000000000E+00 -1.479946061E+01  1.479946061E+01  0.000000000E+00  0.00000E+00  9.000E+00
      21     1     1     2   516   511 -7.618936389E+00 -3.994025656E+00 -2.546302593E+00  8.971292523E+00  1.154238983E-07  0.00000E+00  9.000E+00
      21     1     1     2   511   513  7.740353681E+00  6.864619064E-01 -5.202494781E+00  9.351484214E+00  1.032382731E-07  0.00000E+00  9.000E+00
      21     1     1     2   513   512 -1.214172916E-01  3.307563750E+00 -2.108464941E-01  3.316500620E+00  8.971687092E-08  0.00000E+00  9.000E+00
</event>
<event>
      5  10001  3.52971E+09  6.12930E+00 -1.00000E+00  2.24037E-01
      21    -1     0     0   515   511  0.000000000E+00  0.000000000E+00  1.275477488E+02  1.275477488E+02  0.000000000E+00  0.00000E+00  9.000E+00
      21    -1     0     0   512   515  0.000000000E+00  0.000000000E+00 -9.992243860E+00  9.992243860E+00  0.000000000E+00  0.00000E+00  9.000E+00
      21     1     1     2   512   516  6.303411002E+00 -1.059358680E+01 -5.547434976E+00  1.351780701E+01  5.960464478E-08  0.00000E+00  9.000E+00
      21     1     1     2   514   511 -6.101416578E-01  8.957662014E+00  8.298188890E+01  8.346619596E+01  0.000000000E+00  0.00000E+00  9.000E+00
      21     1     1     2   516   514 -5.693269344E+00  1.635924784E+00  4.012105102E+01  4.055598970E+01  0.000000000E+00  0.00000E+00  9.000E+00
</event>
<event>
      5  10001  3.52971E+09  5.06187E+00 -1.00000E+00  2.37580E-01
      21    -1     0     0   513   514  0.000000000E+00  0.000000000E+00  4.246649992E+02  4.246649992E+02  0.000000000E+00  0.00000E+00  9.000E+00
       3    -1     0     0   517     0  0.000000000E+00  0.000000000E+00 -1.627628709E+02  1.627628709E+02  0.000000000E+00  0.00000E+00  9.000E+00
      21     1     1     2   517   512 -8.833264716E+00 -7.231747550E+00  3.775635335E+01  3.944447941E+01  1.907348633E-06  0.00000E+00  9.000E+00
      21     1     1     2   512   514  1.199455581E+01  3.278423966E+00  3.859244769E+02  3.861247458E+02  0.000000000E+00  0.00000E+00  9.000E+00
       3     1     1     2   513     0 -3.161291097E+00  3.953323584E+00 -1.617787020E+02  1.618586450E+02  5.000000000E-01  0.00000E+00  9.000E+00
</event>
<event>
      5  10001  3.52971E+09  7.95852E+00 -1.00000E+00  2.07961E-01
      21    -1     0     0   511   512  0.000000000E+00  0.000000000E+00  2.359201263E+01  2.359201263E+01  0.000000000E+00  0.00000E+00  9.000E+00
      21    -1     0     0   515   511  0.000000000E+00  0.000000000E+00 -1.299835865E+01  1.299835865E+01  0.000000000E+00  0.00000E+00  9.000E+00
      21     1     1     2   515   516 -1.098662925E+01 -4.625835897E+00 -7.076021438E+00  1.386270029E+01  2.528810911E-07  0.00000E+00  9.000E+00
      21     1     1     2   514   512  7.146303203E+00 -1.258801627E+00  8.527124913E+00  1.119669997E+01  2.064765462E-07  0.00000E+00  9.000E+00
      21     1     1     2   516   514  3.840326042E+00  5.884637524E+00  9.142550501E+00  1.153097102E+01  1.685873940E-07  0.00000E+00  9.000E+00
</event>
<event>
      5  10001  3.52971E+09  5.08550E+00 -1.00000E+00  2.37230E-01
      21    -1     0     0   513   514  0.000000000E+00  0.000000000E+00  2.894334179E+01  2.894334179E+01  0.000000000E+00  0.00000E+00  9.000E+00
      21    -1     0     0   511   513  0.000000000E+00  0.000000000E+00 -1.229240646E+01  1.229240646E+01  0.000000000E+00  0.00000E+00  9.000E+00
      21     1     1     2   517   515  8.836603192E-01  1.080878555E+01  6.218507446E+00  1.250122136E+01  3.371747881E-07  0.00000E+00  9.000E+00
      21     1     1     2   515   514  4.427310406E-01 -1.571827006E+01  1.512265944E+01  2.181638955E+01  2.384185791E-07  0.00000E+00  9.000E+00
      21     1     1     2   511   517 -1.326391360E+00  4.909484505E+00 -4.690231565E+00  6.918137342E+00  8.429369702E-08  0.00000E+00  9.000E+00
</event>
<event>
      5  10001  3.52971E+09  1.25683E+01 -1.00000E+00  1.84936E-01
      21    -1     0     0   512   515  0.000000000E+00  0.000000000E+00  5.719755570E+00  5.719755570E+00  0.000000000E+00  0.00000E+00  9.000E+00
      21    -1     0     0   511   516  0.000000000E+00  0.000000000E+00 -3.642294447E+01  3.642294447E+01  0.000000000E+00  0.00000E+00  9.000E+00
      21     1     1     2   512   516  1.011223142E+01  2.362845245E+00 -8.905995629E+00  1.368053435E+01  1.192092896E-07  0.00000E+00  9.000E+00
      21     1     1     2   513   515 -8.535614285E+00 -3.389235509E+00 -3.133257282E+00  9.703655484E+00  1.519626234E-07  0.00000E+00  9.000E+00
      21     1     1     2   511   513 -1.576617136E+00  1.026390264E+00 -1.866393599E+01  1.875851021E+01  2.384185791E-07  0.00000E+00  9.000E+00
</event>
<event>
      5  10001  3.52971E+09  5.32173E+00 -1.00000E+00  2.33873E-01
      21    -1     0     0   513   514  0.000000000E+00  0.000000000E+00  4.051945774E+00  4.051945774E+00  0.000000000E+00  0.00000E+00  9.000E+00
       1    -1     0     0   514     0  0.000000000E+00  0.000000000E+00 -6.649602289E+01  6.649602289E+01  0.000000000E+00  0.00000E+00  9.000E+00
      21     1     1     2   513   512 -7.089800784E+00  3.140229618E+00 -6.778872468E+00  1.029948684E+01  1.192092896E-07  0.00000E+00  9.000E+00
       1     1     1     2   511     0  8.464824569E+00 -6.130171123E+00 -5.597467348E+01  5.694299978E+01  3.300000131E-01  0.00000E+00  9.000E+00
      21     1     1     2   512   511 -1.375023786E+00  2.989941506E+00  3.094688262E-01  3.305482048E+00  1.153637660E-07  0.00000E+00  9.000E+00
</event>
<event>
      5  10001  3.52971E+09  5.89965E+00 -1.00000E+00  2.26609E-01
      21    -1     0     0   515   511  0.000000000E+00  0.000000000E+00  2.926162149E+00  2.926162149E+00  0.000000000E+00  0.00000E+00  9.000E+00
       2    -1     0     0   512     0  0.000000000E+00  0.000000000E+00 -1.923040816E+02  1.923040816E+02  0.000000000E+00  0.00000E+00  9.000E+00
      21     1     1     2   512   513 -1.962007722E-01 -6.850964161E+00 -5.814641193E+00  8.988006279E+00  0.000000000E+00  0.00000E+00  9.000E+00
       2     1     1     2   515     0 -5.090387743E+00  9.812783818E+00 -1.768619877E+02  1.772074332E+02  3.300000131E-01  0.00000E+00  9.000E+00
      21     1     1     2   513   511  5.286588515E+00 -2.961819657E+00 -6.701290559E+00  9.034804313E+00  2.064765462E-07  0.00000E+00  9.000E+00
</event>
<event>
      5  10001  3.52971E+09  5.90512E+00 -1.00000E+00  2.26546E-01
      -4    -1     0     0     0   515  0.000000000E+00  0.000000000E+00  1.523491628E+01  1.523491628E+01  0.000000000E+00  0.00000E+00  9.000E+00
      21    -1     0     0   511   514  0.000000000E+00  0.000000000E+00 -4.026402331E+01  4.026402331E+01  0.000000000E+00  0.00000E+00  9.000E+00
      -4     1     1     2     0   512  1.141266968E+00  1.208223384E+01  7.087711154E+00  1.413394899E+01  1.500000000E+00  0.00000E+00  9.000E+00
      21     1     1     2   512   514 -6.224026733E+00 -9.089843884E+00 -3.353544328E+01  3.529857967E+01  6.743495762E-07  0.00000E+00  9.000E+00
      21     1     1     2   511   515  5.082759765E+00 -2.992389951E+00  1.418625092E+00  6.066410932E+00  1.413648275E-07  0.00000E+00  9.000E+00
</event>
<event>
      5  10001  3.52971E+09  5.81924E+00 -1.00000E+00  2.27549E-01
      21    -1     0     0   513   512  0.000000000E+00  0.000000000E+00  3.605943850E+01  3.605943850E+01  0.000000000E+00  0.00000E+00  9.000E+00
      21    -1     0     0   511   514  0.000000000E+00  0.000000000E+00 -7.514746716E+01  7.514746716E+01  0.000000000E+00  0.00000E+00  9.000E+00
      21     1     1     2   511   515  8.113573516E-01  1.325297738E+01 -6.133769135E+01  6.275836271E+01  6.743495762E-07  0.00000E+00  9.000E+00
      21     1     1     2   515   512 -4.800206521E-01 -7.443180031E+00  3.428141031E+01  3.508342118E+01  1.066240300E-06  0.00000E+00  9.000E+00
      21     1     1     2   513   514 -3.313366995E-01 -5.809797344E+00 -1.203174762E+01  1.336512177E+01  1.685873940E-07  0.00000E+00  9.000E+00
</event>
<event>
      5  10001  3.52971E+09  5.03728E+00 -1.00000E+00  2.37947E-01
      21    -1     0     0   516   511  0.000000000E+00  0.000000000E+00  1.044981145E+02  1.044981145E+02  0.000000000E+00  0.00000E+00  9.000E+00
      21    -1     0     0   517   516  0.000000000E+00  0.000000000E+00 -3.825884880E+00  3.825884880E+00  0.000000000E+00  0.00000E+00  9.000E+00
      21     1     1     2   514   511  1.012290953E+01 -6.975978219E+00  8.056645383E+01  8.149902485E+01  9.536743164E-07  0.00000E+00  9.000E+00
      21     1     1     2   517   512 -1.252108755E+01  8.200307916E+00  1.594816108E+01  2.187159174E+01  6.078504936E-07  0.00000E+00  9.000E+00
      21     1     1     2   512   514  2.398178020E+00 -1.224329697E+00  4.157614755E+00  4.953382831E+00  8.429369702E-08  0.00000E+00  9.000E+00
</event>
<event>
      5  10001  3.52971E+09  8.07806E+00 -1.00000E+00  2.07116E-01
      21    -1     0     0   513   511  0.000000000E+00  0.000000000E+00  3.247614598E+01  3.247614598E+01  0.000000000E+00  0.00000E+00  9.000E+00
      21    -1     0     0   515   513  0.000000000E+00  0.000000000E+00 -9.036768907E+00  9.036768907E+00  0.000000000E+00  0.00000E+00  9.000E+00
      21     1     1     2   515   514  9.270266148E+00  1.114830168E+01  2.128622342E+01  2.575511158E+01  2.384185791E-07  0.00000E+00  9.000E+00
      21     1     1     2   516   511 -1.110060335E+00 -3.642597767E+00 -1.487541098E+00  4.088218555E+00  7.884953353E-08  0.00000E+00  9.000E+00
      21     1     1     2   514   516 -8.160205813E+00 -7.505703910E+00  3.640694747E+00  1.166958475E+01  1.519626234E-07  0.00000E+00  9.000E+00
</event>
<event>
      5  10001  3.52971E+09  1.68442E+00 -1.00000E+00  4.01863E-01
       2    -1     0     0   514     0  0.000000000E+00  0.000000000E+00  2.607206889E+02  2.607206889E+02  0.000000000E+00  0.00000E+00  9.000E+00
      21    -1     0     0   512   511  0.000000000E+00  0.000000000E+00 -7.931200589E-01  7.931200589E-01  0.000000000E+00  0.00000E+00  9.000E+00
      21     1     1     2   514   513 -8.075262813E+00 -5.890893768E+00  9.448607009E+01  9.501331454E+01  1.348699152E-06  0.00000E+00  9.000E+00
       2     1     1     2   512     0  7.338567740E+00  7.405371622E+00  1.638552921E+02  1.641869659E+02  3.300000131E-01  0.00000E+00  9.000E+00
      21     1     1     2   513   511  7.366950727E-01 -1.514477854E+00  1.586206579E+00  2.313528498E+00  1.397852826E-07  0.00000E+00  9.000E+00
</event>
<event>
      5  10001  3.52971E+09  4.93021E+00 -1.00000E+00  2.43753E-01
      21    -1     0     0   514   512  0.000000000E+00  0.000000000E+00  3.293410431E+00  3.293410431E+00  0.000000000E+00  0.00000E+00  9.000E+00
       2    -1     0     0   513     0  0.000000000E+00  0.000000000E+00 -6.750819128E+01  6.750819128E+01  0.000000000E+00  0.00000E+00  9.000E+00
      21     1     1     2   513   512  6.943341116E+00 -6.178722391E+00 -1.209119234E+01  1.525068944E+01  4.768371582E-07  0.00000E+00  9.000E+00
       2     1     1     2   515     0 -1.089164106E+01  3.227217387E+00 -4.732886361E+01  4.867415133E+01  3.300000131E-01  0.00000E+00  9.000E+00
      21     1     1     2   514   515  3.948299942E+00  2.951505004E+00 -4.794724909E+00  6.876760951E+00  5.960464478E-08  0.00000E+00  9.000E+00
</event>
<event>
      5  10001  3.52971E+09  2.37294E+00 -1.00000E+00  3.31620E-01
       1    -1     0     0   511     0  0.000000000E+00  0.000000000E+00  4.658563893E+01  4.658563893E+01  0.000000000E+00  0.00000E+00  9.000E+00
      21    -1     0     0   512   511  0.000000000E+00  0.000000000E+00 -1.712792445E+01  1.712792445E+01  0.000000000E+00  0.00000E+00  9.000E+00
      -1     1     1     2     0   513 -6.889492884E+00  8.270219027E+00 -4.072669535E+00  1.151334756E+01  3.300000131E-01  0.00000E+00  9.000E+00
       1     1     1     2   513     0  8.752997275E+00 -6.801777459E+00  4.197869752E+01  4.341887935E+01  3.300000131E-01  0.00000E+00  9.000E+00
       1     1     1     2   512     0 -1.863504391E+00 -1.468441567E+00 -8.448313507E+00  8.781336480E+00  3.300000131E-01  0.00000E+00  9.000E+00
</event>
<event>
      5  10001  3.52971E+09  1.42714E+01 -1.00000E+00  1.79442E-01
      21    -1     0     0   514   516  0.000000000E+00  0.000000000E+00  1.744207836E+00  1.744207836E+00  0.000000000E+00  0.00000E+00  9.000E+00
      21    -1     0     0   512   514  0.000000000E+00  0.000000000E+00 -9.291159960E+01  9.291159960E+01  0.000000000E+00  0.00000E+00  9.000E+00
      21     1     1     2   515   516 -5.577493372E+00  1.633560204E+00 -3.966331009E+01  4.008684471E+01  4.768371582E-07  0.00000E+00  9.000E+00
      21     1     1     2   511   515  2.326556633E+00 -7.459614968E+00 -1.084904983E+01  1.337013850E+01  3.153981341E-07  0.00000E+00  9.000E+00
      21     1     1     2   512   511  3.250936739E+00  5.826054764E+00 -4.065503184E+01  4.119882422E+01  4.768371582E-07  0.00000E+00  9.000E+00
</event>
<event>
      5  10001  3.52971E+09  8.44600E+00 -1.00000E+00  2.04632E-01
      21    -1     0     0   513   511  0.000000000E+00  0.000000000E+00  4.957084307E+00  4.957084307E+00  0.000000000E+00  0.00000E+00  9.000E+00
      21    -1     0     0   512   517  0.000000000E+00  0.000000000E+00 -2.611835607E+01  2.611835607E+01  0.000000000E+00  0.00000E+00  9.000E+00
      21     1     1     2   513   517 -2.451235577E+00  9.673877847E+00 -4.288262014E+00  1.086193627E+01  2.308477966E-07  0.00000E+00  9.000E+00
      21     1     1     2   512   514 -9.800193924E-01 -2.848143047E+00 -2.412899273E+00  3.859331514E+00  1.074538015E-07  0.00000E+00  9.000E+00
      21     1     1     2   514   511  3.431254970E+00 -6.825734799E+00 -1.446011048E+01  1.635417260E+01  2.920019320E-07  0.00000E+00  9.000E+00
</event>
<event>
      5  10001  3.52971E+09  5.22508E+00 -1.00000E+00  2.35216E-01
      21    -1     0     0   514   511  0.000000000E+00  0.000000000E+00  1.709749841E+00  1.709749841E+00  0.000000000E+00  0.00000E+00  9.000E+00
       4    -1     0     0   512     0  0.000000000E+00  0.000000000E+00 -1.140206658E+03  1.140206658E+03  0.000000000E+00  0.00000E+00  9.000E+00
      21     1     1     2   512   511  2.283064595E+01 -5.281725650E+00 -8.583187523E+01  8.897328715E+01  9.536743164E-07  0.00000E+00  9.000E+00
       4     1     1     2   513     0 -1.453524993E+01  3.968480692E+00 -5.519445737E+02  5.521522297E+02  1.500000000E+00  0.00000E+00  9.000E+00
      21     1     1     2   514   513 -8.295396029E+00  1.313244957E+00 -5.007204597E+02  5.007908914E+02  0.000000000E+00  0.00000E+00  9.000E+00
</event>
<event>
      5  10001  3.52971E+09  1.27986E+01 -1.00000E+00  1.84129E-01
      21    -1     0     0   515   512  0.000000000E+00  0.000000000E+00  1.548744925E+03  1.548744925E+03  0.000000000E+00  0.00000E+00  9.000E+00
      21    -1     0     0   511   516  0.000000000E+00  0.000000000E+00 -1.410205377E-01  1.410205377E-01  0.000000000E+00  0.00000E+00  9.000E+00
      21     1     1     2   515   516  1.054533286E+01  2.624921188E+00  2.849186726E+02  2.851258393E+02  0.000000000E+00  0.00000E+00  9.000E+00
      21     1     1     2   511   517 -4.740126168E+00  4.597323731E-01  2.084374596E+02  2.084918576E+02  0.000000000E+00  0.00000E+00  9.000E+00
      21     1     1     2   517   512 -5.805206695E+00 -3.084653561E+00  1.055247773E+03  1.055268249E+03  0.000000000E+00  0.00000E+00  9.000E+00
</event>
<event>
      5  10001  3.52971E+09  6.10758E+00 -1.00000E+00  2.24274E-01
      21    -1     0     0   513   511  0.000000000E+00  0.000000000E+00  1.294375423E+01  1.294375423E+01  0.000000000E+00  0.00000E+00  9.000E+00
      21    -1     0     0   512   513  0.000000000E+00  0.000000000E+00 -5.271583073E+01  5.271583073E+01  0.000000000E+00  0.00000E+00  9.000E+00
      21     1     1     2   512   514  2.144682269E+01 -3.724146234E+00 -3.715378967E+01  4.306088196E+01  6.743495762E-07  0.00000E+00  9.000E+00
      21     1     1     2   515   511 -1.098827644E+01  1.673788631E+00 -4.082297517E+00  1.184098562E+01  2.230201594E-07  0.00000E+00  9.000E+00
      21     1     1     2   514   515 -1.045854625E+01  2.050357603E+00  1.464010684E+00  1.075771738E+01  2.572339252E-07  0.00000E+00  9.000E+00
</event>
<event>
      5  10001  3.52971E+09  1.29122E+01 -1.00000E+00  1.83739E-01
      21    -1     0     0   516   514  0.000000000E+00  0.000000000E+00  4.944682322E+00  4.944682322E+00  0.000000000E+00  0.00000E+00  9.000E+00
      21    -1     0     0   517   516  0.000000000E+00  0.000000000E+00 -5.515296831E+01  5.515296831E+01  0.000000000E+00  0.00000E+00  9.000E+00
      21     1     1     2   517   512  9.994545931E+00 -2.263133359E+00 -4.506599669E+01  4.621641243E+01  4.768371582E-07  0.00000E+00  9.000E+00
      21     1     1     2   512   511 -4.577225270E+00 -7.924086618E-01 -6.015799937E+00  7.600575737E+00  8.429369702E-08  0.00000E+00  9.000E+00
      21     1     1     2   511   514 -5.417320661E+00  3.055542020E+00  8.735106301E-01  6.280662466E+00  1.187427152E-07  0.00000E+00  9.000E+00
</event>
<event>
      5  10001 -3.52971E+09  8.20824E+00 -1.00000E+00  2.06217E-01
      21    -1     0     0   512   513  0.000000000E+00  0.000000000E+00  1.013654074E+01  1.013654074E+01  0.000000000E+00  0.00000E+00  9.000E+00
       5    -1     0     0   513     0  0.000000000E+00  0.000000000E+00 -5.234325073E+01  5.234325073E+01  0.000000000E+00  0.00000E+00  9.000E+00
      21     1     1     2   512   511  1.253630305E+01  2.967103489E+00  2.394063862E+00  1.310321102E+01  6.664001875E-08  0.00000E+00  9.000E+00
       5     1     1     2   515     0 -1.627747447E+01 -3.489956203E+00 -3.483584585E+01  3.890645354E+01  4.800000191E+00  0.00000E+00  9.000E+00
      21     1     1     2   511   515  3.741171420E+00  5.228527138E-01 -9.764928000E+00  1.047012690E+01  1.192092896E-07  0.00000E+00  9.000E+00
</event>
<event>
      5  10001  3.52971E+09  2.96391E+00 -1.00000E+00  2.98461E-01
      21    -1     0     0   512   511  0.000000000E+00  0.000000000E+00  7.546067380E+00  7.546067380E+00  0.000000000E+00  0.00000E+00  9.000E+00
      21    -1     0     0   513   514  0.000000000E+00  0.000000000E+00 -8.547064598E+01  8.547064598E+01  0.000000000E+00  0.00000E+00  9.000E+00
      21     1     1     2   513   516 -1.122033400E+01  1.544881673E+00 -7.941076843E+01  8.021441701E+01  1.651812370E-06  0.00000E+00  9.000E+00
      21     1     1     2   516   511  8.789450806E+00  1.508767000E-01 -1.112003871E+00  8.860799166E+00  1.365713982E-07  0.00000E+00  9.000E+00
      21     1     1     2   512   514  2.430883195E+00 -1.695758373E+00  2.598193696E+00  3.941497184E+00  5.960464478E-08  0.00000E+00  9.000E+00
</event>
<event>
      5  10001  3.52971E+09  8.92965E+00 -1.00000E+00  2.01613E-01
      21    -1     0     0   511   514  0.000000000E+00  0.000000000E+00  1.231952916E+02  1.231952916E+02  0.000000000E+00  0.00000E+00  9.000E+00
      21    -1     0     0   513   517  0.000000000E+00  0.000000000E+00 -1.795085152E+02  1.795085152E+02  0.000000000E+00  0.00000E+00  9.000E+00
      21     1     1     2   515   517  1.658394973E+01 -4.645689378E-01  4.043139640E+01  4.370287208E+01  1.507891493E-06  0.00000E+00  9.000E+00
      21     1     1     2   513   514 -1.069880896E+01  7.180497449E+00 -1.773926793E+02  1.778600200E+02  1.907348633E-06  0.00000E+00  9.000E+00
      21     1     1     2   511   515 -5.885140775E+00 -6.715928511E+00  8.064805926E+01  8.114091471E+01  9.536743164E-07  0.00000E+00  9.000E+00
</event>
<event>
      5  10001  3.52971E+09  7.78071E+00 -1.00000E+00  2.09256E-01
      21    -1     0     0   514   513  0.000000000E+00  0.000000000E+00  2.194147742E+02  2.194147742E+02  0.000000000E+00  0.00000E+00  9.000E+00
       2    -1     0     0   511     0  0.000000000E+00  0.000000000E+00 -1.660131081E+01  1.660131081E+01  0.000000000E+00  0.00000E+00  9.000E+00
      21     1     1     2   511   513 -1.728441935E+01 -2.353156951E+01  5.746796320E+01  6.445969834E+01  0.000000000E+00  0.00000E+00  9.000E+00
       2     1     1     2   512     0  2.338684124E+01  1.870468781E+01  4.252488137E+00  3.024900403E+01  3.300000131E-01  0.00000E+00  9.000E+00
      21     1     1     2   514   512 -6.102421897E+00  4.826881706E+00  1.410930121E+02  1.413073827E+02  2.697398305E-06  0.00000E+00  9.000E+00
</event>
<event>
      5  10001  3.52971E+09  6.72118E+00 -1.00000E+00  2.18073E-01
      21    -1     0     0   515   512  0.000000000E+00  0.000000000E+00  1.268005919E+01  1.268005919E+01  0.000000000E+00  0.00000E+00  9.000E+00
      21    -1     0     0   511   516  0.000000000E+00  0.000000000E+00 -6.415910988E+01  6.415910988E+01  0.000000000E+00  0.00000E+00  9.000E+00
      21     1     1     2   515   516 -1.583287919E+00  1.083861169E+01 -6.053324923E+01  6.151631138E+01  6.743495762E-07  0.00000E+00  9.000E+00
      21     1     1     2   511   513 -1.086887607E+00 -2.514819872E+00  4.968117802E+00  5.673432661E+00  1.976862425E-07  0.00000E+00  9.000E+00
      21     1     1     2   513   512  2.670175527E+00 -8.323791818E+00  4.086080736E+00  9.649425027E+00  1.192092896E-07  0.00000E+00  9.000E+00
</event>
<event>
      5  10001  3.52971E+09  7.66046E+00 -1.00000E+00  2.10159E-01
      21    -1     0     0   514   511  0.000000000E+00  0.000000000E+00  7.283719922E+01  7.283719922E+01  0.000000000E+00  0.00000E+00  9.000E+00
      21    -1     0     0   512   514  0.000000000E+00  0.000000000E+00 -2.190197575E+00  2.190197575E+00  0.000000000E+00  0.00000E+00  9.000E+00
      21     1     1     2   512   517 -3.891760394E+00 -8.190028685E+00  1.184973275E+01  1.492107687E+01  3.769728732E-07  0.00000E+00  9.000E+00
      21     1     1     2   517   515  4.560375998E+00  1.989391232E+00  3.984158528E+01  4.015104762E+01  4.768371582E-07  0.00000E+00  9.000E+00
      21     1     1     2   515   511 -6.686156039E-01  6.200637453E+00  1.895568361E+01  1.995527231E+01  2.384185791E-07  0.00000E+00  9.000E+00
</event>
<event>
      5  10001  3.52971E+09  2.18341E+01 -1.00000E+00  1.63282E-01
      -2    -1     0     0     0   511  0.000000000E+00  0.000000000E+00  1.446531956E+01  1.446531956E+01  0.000000000E+00  0.00000E+00  9.000E+00
      21    -1     0     0   513   514  0.000000000E+00  0.000000000E+00 -2.349005569E+01  2.349005569E+01  0.000000000E+00  0.00000E+00  9.000E+00
      21     1     1     2   512   514  3.162517768E-01  4.184080801E+00 -2.220122172E+00  4.747155969E+00  2.980232239E-08  0.00000E+00  9.000E+00
      21     1     1     2   513   511 -3.191963672E+00 -8.827543648E+00 -1.824973573E+01  2.052235398E+01  4.129530925E-07  0.00000E+00  9.000E+00
      -2     1     1     2     0   512  2.875711896E+00  4.643462847E+00  1.144512177E+01  1.268586530E+01  3.300000131E-01  0.00000E+00  9.000E+00
</event>
<event>
      5  10001  3.52971E+09  2.77199E+00 -1.00000E+00  3.07678E-01
      21    -1     0     0   515   511  0.000000000E+00  0.000000000E+00  1.518956152E+00  1.518956152E+00  0.000000000E+00  0.00000E+00  9.000E+00
       2    -1     0     0   513     0  0.000000000E+00  0.000000000E+00 -7.688201438E+01  7.688201438E+01  0.000000000E+00  0.00000E+00  9.000E+00
      21     1     1     2   513   511 -1.591787748E+00  1.029865952E+01 -3.866013411E+01  4.004000681E+01  4.768371582E-07  0.00000E+00  9.000E+00
       2     1     1     2   514     0  8.859525971E-01 -7.315289075E+00 -3.121632082E+01  3.207594039E+01  3.300000131E-01  0.00000E+00  9.000E+00
      21     1     1     2   515   514  7.058351508E-01 -2.983370450E+00 -5.486603302E+00  6.285023333E+00  0.000000000E+00  0.00000E+00  9.000E+00
</event>
<event>
      5  10001  3.52971E+09  2.62874E+00 -1.00000E+00  3.15426E-01
      -3    -1     0     0     0   512  0.000000000E+00  0.000000000E+00  6.855834354E+00  6.855834354E+00  0.000000000E+00  0.00000E+00  9.000E+00
      21    -1     0     0   515   514  0.000000000E+00  0.000000000E+00 -1.729010301E+01  1.729010301E+01  0.000000000E+00  0.00000E+00  9.000E+00
      -3     1     1     2     0   514  9.507377819E+00 -4.480249948E+00 -6.094618454E+00  1.215965652E+01  5.000000000E-01  0.00000E+00  9.000E+00
      21     1     1     2   511   512 -7.393033688E+00  1.540849358E+00 -2.978545807E+00  8.118060050E+00  1.460009660E-07  0.00000E+00  9.000E+00
      21     1     1     2   515   511 -2.114344131E+00  2.939400590E+00 -1.361104395E+00  3.868220793E+00  6.828569911E-08  0.00000E+00  9.000E+00
</event>
<event>
      5  10001  3.52971E+09  7.60134E+00 -1.00000E+00  2.10611E-01
      21    -1     0     0   513   511  0.000000000E+00  0.000000000E+00  5.435412027E+01  5.435412027E+01  0.000000000E+00  0.00000E+00  9.000E+00
       3    -1     0     0   512     0  0.000000000E+00  0.000000000E+00 -1.128250172E+02  1.128250172E+02  0.000000000E+00  0.00000E+00  9.000E+00
      21     1     1     2   512   511 -4.099198216E+01  3.341494307E+01  3.153640452E+01  6.157471748E+01  1.118282261E-06  0.00000E+00  9.000E+00
       3     1     1     2   514     0  3.418350961E+01 -3.283575761E+01 -7.066894066E+01  8.509435047E+01  5.000000000E-01  0.00000E+00  9.000E+00
      21     1     1     2   513   514  6.808472547E+00 -5.791854624E-01 -1.933836078E+01  2.051006953E+01  2.384185791E-07  0.00000E+00  9.000E+00
</event>
<event>
      5  10001  3.52971E+09  1.74638E+01 -1.00000E+00  1.71376E-01
      21    -1     0     0   515   512  0.000000000E+00  0.000000000E+00  1.389287221E+02  1.389287221E+02  0.000000000E+00  0.00000E+00  9.000E+00
      21    -1     0     0   511   516  0.000000000E+00  0.000000000E+00 -3.848465871E+00  3.848465871E+00  0.000000000E+00  0.00000E+00  9.000E+00
      21     1     1     2   515   516  2.750779796E-01  9.798508339E+00  1.189856774E+02  1.193887677E+02  1.907348633E-06  0.00000E+00  9.000E+00
      21     1     1     2   517   512 -6.741554960E+00 -3.654062686E+00  9.926577392E+00  1.254343159E+01  2.064765462E-07  0.00000E+00  9.000E+00
      21     1     1     2   511   517  6.466476980E+00 -6.144445653E+00  6.168001422E+00  1.084498863E+01  3.153981341E-07  0.00000E+00  9.000E+00
</event>
<event>
      5  10001  3.52971E+09  2.56215E+00 -1.00000E+00  3.19324E-01
      21    -1     0     0   515   512  0.000000000E+00  0.000000000E+00  2.209576342E+01  2.209576342E+01  0.000000000E+00  0.00000E+00  9.000E+00
      21    -1     0     0   511   513  0.000000000E+00  0.000000000E+00 -1.130933987E+02  1.130933987E+02  0.000000000E+00  0.00000E+00  9.000E+00
      21     1     1     2   514   512 -1.413894191E+01 -6.244693632E-01  1.276907703E+01  1.906171473E+01  5.591411304E-07  0.00000E+00  9.000E+00
      21     1     1     2   511   514  1.268109019E+01 -1.482489889E+00 -1.092929438E+02  1.100361549E+02  1.348699152E-06  0.00000E+00  9.000E+00
      21     1     1     2   515   513  1.457851720E+00  2.106959253E+00  5.526231519E+00  6.091292452E+00  1.032382731E-07  0.00000E+00  9.000E+00
</event>
<event>
      5  10001 -3.52971E+09  6.64835E+00 -1.00000E+00  2.18761E-01
      -3    -1     0     0     0   516  0.000000000E+00  0.000000000E+00  2.176077361E+02  2.176077361E+02  0.000000000E+00  0.00000E+00  9.000E+00
      21    -1     0     0   516   511  0.000000000E+00  0.000000000E+00 -2.749569201E+01  2.749569201E+01  0.000000000E+00  0.00000E+00  9.000E+00
      -3     1     1     2     0   514 -4.773784221E+00  6.294038866E+00  2.135894299E+02  2.137360487E+02  5.000000000E-01  0.00000E+00  9.000E+00
      21     1     1     2   514   513  4.662143155E+00 -1.294137763E+01 -1.854290904E+01  2.308796893E+01  4.768371582E-07  0.00000E+00  9.000E+00
      21     1     1     2   513   511  1.116410659E-01  6.647338762E+00 -4.934476803E+00  8.279410466E+00  2.384185791E-07  0.00000E+00  9.000E+00
</event>
<event>
      5  10001  3.52971E+09  6.38638E+00 -1.00000E+00  2.21337E-01
      21    -1     0     0   513   514  0.000000000E+00  0.000000000E+00  1.563372302E+01  1.563372302E+01  0.000000000E+00  0.00000E+00  9.000E+00
       4    -1     0     0   514     0  0.000000000E+00  0.000000000E+00 -2.172488651E+01  2.172488651E+01  0.000000000E+00  0.00000E+00  9.000E+00
      21     1     1     2   515   512  4.575418240E+00 -8.258114081E+00  1.131591952E+01  1.473705991E+01  1.685873940E-07  0.00000E+00  9.000E+00
       4     1     1     2   512     0 -1.665592368E+00  1.029077760E+01 -1.501786551E+01  1.834286199E+01  1.500000000E+00  0.00000E+00  9.000E+00
      21     1     1     2   513   515 -2.909825872E+00 -2.032663523E+00 -2.389217490E+00  4.278687628E+00  4.214684851E-08  0.00000E+00  9.000E+00
</event>
<event>
      5  10001  3.52971E+09  7.13086E+00 -1.00000E+00  2.14417E-01
      21    -1     0     0   516   514  0.000000000E+00  0.000000000E+00  1.235772581E+02  1.235772581E+02  0.000000000E+00  0.00000E+00  9.000E+00
       2    -1     0     0   512     0  0.000000000E+00  0.000000000E+00 -2.456373913E+02  2.456373913E+02  0.000000000E+00  0.00000E+00  9.000E+00
      21     1     1     2   512   514  1.168491831E+01  1.057752618E+01  1.255755952E+00  1.581133451E+01  1.042974841E-06  0.00000E+00  9.000E+00
       2     1     1     2   511     0 -1.046943258E+01 -3.551031621E+00 -2.381206180E+02  2.383773405E+02  3.300000131E-01  0.00000E+00  9.000E+00
      21     1     1     2   516   511 -1.215485733E+00 -7.026494562E+00  1.148047288E+02  1.150259744E+02  3.015782986E-06  0.00000E+00  9.000E+00
</event>
<event>
      5  10001  3.52971E+09  4.77647E+00 -1.00000E+00  2.46537E-01
      21    -1     0     0   513   511  0.000000000E+00  0.000000000E+00  2.364607931E+00  2.364607931E+00  0.000000000E+00  0.00000E+00  9.000E+00
      21    -1     0     0   512   515  0.000000000E+00  0.000000000E+00 -1.260800695E+02  1.260800695E+02  0.000000000E+00  0.00000E+00  9.000E+00
      21     1     1     2   513   515 -1.124647628E+01  3.138547685E-01 -1.471255368E+01  1.852136521E+01  2.384185791E-07  0.00000E+00  9.000E+00
      21     1     1     2   514   511  7.249234536E+00  1.182373195E+00 -9.502141298E+01  9.530487046E+01  0.000000000E+00  0.00000E+00  9.000E+00
      21     1     1     2   512   514  3.997241744E+00 -1.496227964E+00 -1.398149488E+01  1.461844174E+01  1.685873940E-07  0.00000E+00  9.000E+00
</event>
<event>
      5  10001  3.52971E+09  2.37495E+01 -1.00000E+00  1.60435E-01
      21    -1     0     0   512   511  0.000000000E+00  0.000000000E+00  5.828697439E+00  5.828697439E+00  0.000000000E+00  0.00000E+00  9.000E+00
       3    -1     0     0   514     0  0.000000000E+00  0.000000000E+00 -7.156932474E+01  7.156932474E+01  0.000000000E+00  0.00000E+00  9.000E+00
      21     1     1     2   514   513  2.173937315E+00 -7.959090927E+00 -4.872096206E+01  4.941462613E+01  1.168007728E-06  0.00000E+00  9.000E+00
       3     1     1     2   512     0 -1.024879597E+01  6.617779611E+00 -1.537640488E+01  1.963457799E+01  5.000000000E-01  0.00000E+00  9.000E+00
      21     1     1     2   513   511  8.074858651E+00  1.341311316E+00 -1.643260355E+00  8.348818053E+00  3.237360862E-07  0.00000E+00  9.000E+00
</event>
<event>
      5  10001  3.52971E+09  1.82294E+01 -1.00000E+00  1.69757E-01
      21    -1     0     0   516   511  0.000000000E+00  0.000000000E+00  4.948515540E+00  4.948515540E+00  0.000000000E+00  0.00000E+00  9.000E+00
      21    -1     0     0   515   516  0.000000000E+00  0.000000000E+00 -5.526720375E+01  5.526720375E+01  0.000000000E+00  0.00000E+00  9.000E+00
      -1     1     1     2     0   511  1.279275510E+01 -9.007856706E-02 -1.109369739E+01  1.693640218E+01  3.300000131E-01  0.00000E+00  9.000E+00
      21     1     1     2   515   512 -2.290806544E+00  5.858739233E+00 -1.276065447E+01  1.422697869E+01  1.685873940E-07  0.00000E+00  9.000E+00
       1     1     1     2   512     0 -1.050194855E+01 -5.768660666E+00 -2.646433635E+01  2.905233842E+01  3.300000131E-01  0.00000E+00  9.000E+00
</event>
<event>
      5  10001  3.52971E+09  2.85609E+00 -1.00000E+00  3.03489E-01
      21    -1     0     0   513   512  0.000000000E+00  0.000000000E+00  7.079995376E+00  7.079995376E+00  0.000000000E+00  0.00000E+00  9.000E+00
      21    -1     0     0   511   513  0.000000000E+00  0.000000000E+00 -6.747548930E+01  6.747548930E+01  0.000000000E+00  0.00000E+00  9.000E+00
      21     1     1     2   515   512 -1.234036277E+01  6.890125841E+00 -2.979602938E+00  1.444425218E+01  3.698370947E-07  0.00000E+00  9.000E+00
      21     1     1     2   514   515  1.118547049E+01 -9.502305992E+00 -5.135531616E+01  5.341139455E+01  6.743495762E-07  0.00000E+00  9.000E+00
      21     1     1     2   511   514  1.154892278E+00  2.612180151E+00 -6.060574828E+00  6.699837951E+00  8.429369702E-08  0.00000E+00  9.000E+00
</event>
<event>
      5  10001  3.52971E+09  1.10033E+01 -1.00000E+00  1.91072E-01
       1    -1     0     0   511     0  0.000000000E+00  0.000000000E+00  7.445349928E+02  7.445349928E+02  0.000000000E+00  0.00000E+00  9.000E+00
      21    -1     0     0   512   513  0.000000000E+00  0.000000000E+00 -3.133954099E+00  3.133954099E+00  0.000000000E+00  0.00000E+00  9.000E+00
      21     1     1     2   511   513 -5.788961841E+00  1.279951669E+01  3.000435635E+02  3.003722352E+02  8.529922400E-06  0.00000E+00  9.000E+00
       1     1     1     2   516     0 -4.043223944E+00 -7.860189458E+00  4.339326574E+02  4.340227993E+02  3.300000131E-01  0.00000E+00  9.000E+00
      21     1     1     2   512   516  9.832185785E+00 -4.939327234E+00  7.424817844E+00  1.327391242E+01  1.111910230E-06  0.00000E+00  9.000E+00
</event>
<event>
      5  10001  3.52971E+09  9.82938E+00 -1.00000E+00  1.96620E-01
      21    -1     0     0   514   516  0.000000000E+00  0.000000000E+00  9.704888471E+01  9.704888471E+01  0.000000000E+00  0.00000E+00  9.000E+00
      21    -1     0     0   512   514  0.000000000E+00  0.000000000E+00 -8.933045777E+00  8.933045777E+00  0.000000000E+00  0.00000E+00  9.000E+00
      21     1     1     2   515   516  1.017779424E+01 -1.360790515E+01  8.410413119E+01  8.580365646E+01  9.536743164E-07  0.00000E+00  9.000E+00
      21     1     1     2   512   511 -9.632135371E+00  4.542706667E+00  2.836947864E+00  1.102100217E+01  3.068336886E-07  0.00000E+00  9.000E+00
      21     1     1     2   511   515 -5.456588741E-01  9.065198485E+00  1.174759884E+00  9.157271862E+00  3.456298561E-07  0.00000E+00  9.000E+00
</event>
<event>
      5  10001  3.52971E+09  7.22867E+00 -1.00000E+00  2.13594E-01
      21    -1     0     0   513   515  0.000000000E+00  0.000000000E+00  6.153111258E+01  6.153111258E+01  0.000000000E+00  0.00000E+00  9.000E+00
      -3    -1     0     0     0   513  0.000000000E+00  0.000000000E+00 -9.222290040E+01  9.222290040E+01  0.000000000E+00  0.00000E+00  9.000E+00
      -3     1     1     2     0   512 -6.321205266E+00 -3.171723819E+00 -7.747805539E+01  7.780177720E+01  5.000000000E-01  0.00000E+00  9.000E+00
      21     1     1     2   511   515  5.086665687E+00  1.023365413E+01  5.991420329E+01  6.099437351E+01  1.168007728E-06  0.00000E+00  9.000E+00
      21     1     1     2   512   511  1.234539579E+00 -7.061930310E+00 -1.312793572E+01  1.495786228E+01  0.000000000E+00  0.00000E+00  9.000E+00
</event>
<event>
      5  10001  3.52971E+09  3.44332E+00 -1.00000E+00  2.79803E-01
       1    -1     0     0   512     0  0.000000000E+00  0.000000000E+00  3.475524353E+01  3.475524353E+01  0.000000000E+00  0.00000E+00  9.000E+00
      21    -1     0     0   514   511  0.000000000E+00  0.000000000E+00 -3.649459777E+00  3.649459777E+00  0.000000000E+00  0.00000E+00  9.000E+00
      21     1     1     2   512   511 -5.493222856E+00  8.045102074E+00  7.751677529E+00  1.244940437E+01  1.192092896E-07  0.00000E+00  9.000E+00
       1     1     1     2   513     0  2.545849637E+00 -7.972419638E+00  1.708521762E+01  1.902772678E+01  3.300000131E-01  0.00000E+00  9.000E+00
      21     1     1     2   514   513  2.947373219E+00 -7.268243525E-02  6.268888612E+00  6.927572161E+00  8.429369702E-08  0.00000E+00  9.000E+00
</event>
<event>
      5  10001  3.52971E+09  4.22183E+01 -1.00000E+00  1.43399E-01
      21    -1     0     0   515   511  0.000000000E+00  0.000000000E+00  4.324913289E+01  4.324913289E+01  0.000000000E+00  0.00000E+00  9.000E+00
      21    -1     0     0   514   516  0.000000000E+00  0.000000000E+00 -2.778929012E+01  2.778929012E+01  0.000000000E+00  0.00000E+00  9.000E+00
      21     1     1     2   515   516  7.437834494E+00 -6.039572997E+00 -2.452055683E+01  2.632594787E+01  0.000000000E+00  0.00000E+00  9.000E+00
      21     1     1     2   514   512 -7.698099540E-02  5.433665541E+00  1.653171350E+00  5.680107639E+00  1.591008641E-07  0.00000E+00  9.000E+00
      21     1     1     2   512   511 -7.360853498E+00  6.059074565E-01  3.832722825E+01  3.903236751E+01  0.000000000E+00  0.00000E+00  9.000E+00
</event>
<event>
      5  10001  3.52971E+09  6.44366E+00 -1.00000E+00  2.20760E-01
      21    -1     0     0   512   514  0.000000000E+00  0.000000000E+00  3.486317271E+00  3.486317271E+00  0.000000000E+00  0.00000E+00  9.000E+00
       1    -1     0     0   513     0  0.000000000E+00  0.000000000E+00 -9.105330975E+02  9.105330975E+02  0.000000000E+00  0.00000E+00  9.000E+00
      21     1     1     2   513   511  4.002043501E+00  7.959647567E+00 -2.545291134E+02  2.546849856E+02  6.607249480E-06  0.00000E+00  9.000E+00
       1     1     1     2   512     0 -1.532635298E+00 -1.391127055E+01 -6.527370062E+02  6.528871116E+02  3.300000131E-01  0.00000E+00  9.000E+00
      21     1     1     2   511   514 -2.469408203E+00  5.951622979E+00  2.193393540E-01  6.447317482E+00  6.567930848E-07  0.00000E+00  9.000E+00
</event>
<event>
      5  10001  3.52971E+09  3.01049E+00 -1.00000E+00  2.96398E-01
      21    -1     0     0   513   514  0.000000000E+00  0.000000000E+00  1.278827125E+00  1.278827125E+00  0.000000000E+00  0.00000E+00  9.000E+00
      -1    -1     0     0     0   512  0.000000000E+00  0.000000000E+00 -2.590478102E+02  2.590478102E+02  0.000000000E+00  0.00000E+00  9.000E+00
      -1     1     1     2     0   514 -1.625007119E+01  3.256036011E+00 -1.054005688E+02  1.066960889E+02  3.300000131E-01  0.00000E+00  9.000E+00
      21     1     1     2   513   515  1.327900783E+01 -3.740012192E+00 -7.865351452E+01  7.985421145E+01  1.651812370E-06  0.00000E+00  9.000E+00
      21     1     1     2   515   512  2.971063366E+00  4.839761805E-01 -7.371489976E+01  7.377633698E+01  1.348699152E-06  0.00000E+00  9.000E+00
</event>
<event>
      5  10001  3.52971E+09  3.69223E+00 -1.00000E+00  2.71933E-01
      21    -1     0     0   511   514  0.000000000E+00  0.000000000E+00  6.533512704E+00  6.533512704E+00  0.000000000E+00  0.00000E+00  9.000E+00
      21    -1     0     0   516   511  0.000000000E+00  0.000000000E+00 -4.062236167E+01  4.062236167E+01  0.000000000E+00  0.00000E+00  9.000E+00
      21     1     1     2   516   512  9.788067972E+00  1.168440228E+01 -9.747888551E+00  1.809289536E+01  3.371747881E-07  0.00000E+00  9.000E+00
      21     1     1     2   512   513 -4.747869267E+00 -8.448155326E+00 -1.273928114E+01  1.600633858E+01  3.371747881E-07  0.00000E+00  9.000E+00
      21     1     1     2   513   514 -5.040198705E+00 -3.236246953E+00 -1.160167928E+01  1.305664044E+01  0.000000000E+00  0.00000E+00  9.000E+00
</event>
<event>
      5  10001  3.52971E+09  5.49283E+00 -1.00000E+00  2.31592E-01
      21    -1     0     0   515   512  0.000000000E+00  0.000000000E+00  6.422133704E+01  6.422133704E+01  0.000000000E+00  0.00000E+00  9.000E+00
      21    -1     0     0   516   514  0.000000000E+00  0.000000000E+00 -1.697148465E+01  1.697148465E+01  0.000000000E+00  0.00000E+00  9.000E+00
      21     1     1     2   515   514 -8.665135328E+00  1.953624946E+01  5.418669117E+01  5.824900955E+01  6.743495762E-07  0.00000E+00  9.000E+00
       3     1     1     2   516     0  3.641588016E+00 -6.102702481E+00 -4.391645997E+00  8.369031928E+00  5.000000000E-01  0.00000E+00  9.000E+00
      -3     1     1     2     0   512  5.023547312E+00 -1.343354698E+01 -2.545192780E+00  1.457478021E+01  5.000000000E-01  0.00000E+00  9.000E+00
</event>
<event>
      5  10001  3.52971E+09  4.00397E+00 -1.00000E+00  2.63360E-01
      21    -1     0     0   511   514  0.000000000E+00  0.000000000E+00  2.033751013E+01  2.033751013E+01  0.000000000E+00  0.00000E+00  9.000E+00
      21    -1     0     0   512   511  0.000000000E+00  0.000000000E+00 -8.197031245E+01  8.197031245E+01  0.000000000E+00  0.00000E+00  9.000E+00
      21     1     1     2   512   513  8.033566547E+00 -1.124999377E+01 -7.676544067E+01  7.800021431E+01  1.348699152E-06  0.00000E+00  9.000E+00
      21     1     1     2   513   515 -6.571317891E+00  7.997899132E+00  1.728149935E+01  2.014444909E+01  5.331201500E-07  0.00000E+00  9.000E+00
      21     1     1     2   515   514 -1.462248656E+00  3.252094643E+00 -2.148861002E+00  4.163159173E+00  7.884953353E-08  0.00000E+00  9.000E+00
</event>
<event>
      5  10001  3.52971E+09  4.27097E+00 -1.00000E+00  2.56930E-01
       2    -1     0     0   512     0  0.000000000E+00  0.000000000E+00  5.607875684E+01  5.607875684E+01  0.000000000E+00  0.00000E+00  9.000E+00
      -2    -1     0     0     0   511  0.000000000E+00  0.000000000E+00 -3.415633347E+00  3.415633347E+00  0.000000000E+00  0.00000E+00  9.000E+00
      -3     1     1     2     0   513  8.527813550E+00  7.431709869E+00  1.628739715E+01  1.983641151E+01  5.000000000E-01  0.00000E+00  9.000E+00
       3     1     1     2   512     0 -1.057669745E+01 -5.415401179E+00  3.367605775E+01  3.571442236E+01  5.000000000E-01  0.00000E+00  9.000E+00
      21     1     1     2   513   511  2.048883899E+00 -2.016308690E+00  2.699668596E+00  3.943556325E+00  8.940696716E-08  0.00000E+00  9.000E+00
</event>
<event>
      5  10001  3.52971E+09  5.27415E+00 -1.00000E+00  2.34529E-01
      21    -1     0     0   514   511  0.000000000E+00  0.000000000E+00  7.042081922E+01  7.042081922E+01  0.000000000E+00  0.00000E+00  9.000E+00
      21    -1     0     0   513   515  0.000000000E+00  0.000000000E+00 -2.902511837E+00  2.902511837E+00  0.000000000E+00  0.00000E+00  9.000E+00
      21     1     1     2   514   515  3.624428167E+00  1.022707867E+01  5.551204349E+01  5.656250163E+01  0.000000000E+00  0.00000E+00  9.000E+00
      21     1     1     2   512   511 -6.003053633E-02 -5.382327122E+00  7.563139271E+00  9.283001914E+00  8.429369702E-08  0.00000E+00  9.000E+00
      21     1     1     2   513   512 -3.564397631E+00 -4.844751544E+00  4.443124621E+00  7.477827518E+00  1.576990671E-07  0.00000E+00  9.000E+00
</event>
<event>
      5  10001  3.52971E+09  1.50360E+01 -1.00000E+00  1.77282E-01
       2    -1     0     0   513     0  0.000000000E+00  0.000000000E+00  1.048090293E+02  1.048090293E+02  0.000000000E+00  0.00000E+00  9.000E+00
      21    -1     0     0   516   512  0.000000000E+00  0.000000000E+00 -1.395486579E+01  1.395486579E+01  0.000000000E+00  0.00000E+00  9.000E+00
      21     1     1     2   513   512 -5.552829459E+00 -9.345000656E+00 -1.114363467E+01  1.556738726E+01  6.951036328E-07  0.00000E+00  9.000E+00
       2     1     1     2   511     0  5.989770090E+00 -3.009421786E-01  3.654260090E+01  3.703293794E+01  3.300000131E-01  0.00000E+00  9.000E+00
      21     1     1     2   516   511 -4.369406307E-01  9.645942835E+00  6.545519730E+01  6.616356992E+01  1.651812370E-06  0.00000E+00  9.000E+00
</event>
<event>
      5  10001  3.52971E+09  3.00728E+00 -1.00000E+00  2.96538E-01
       2    -1     0     0   512     0  0.000000000E+00  0.000000000E+00  1.054169460E+01  1.054169460E+01  0.000000000E+00  0.00000E+00  9.000E+00
      21    -1     0     0   511   513  0.000000000E+00  0.000000000E+00 -9.973671671E+01  9.973671671E+01  0.000000000E+00  0.00000E+00  9.000E+00
      21     1     1     2   511   514  4.041146397E+00 -1.023968257E+01 -4.505018298E+01  4.637565040E+01  9.536743164E-07  0.00000E+00  9.000E+00
       2     1     1     2   514     0 -1.530402660E+00  1.189479825E+01  6.174925149E+00  1.349321897E+01  3.300000131E-01  0.00000E+00  9.000E+00
      21     1     1     2   512   513 -2.510743736E+00 -1.655115682E+00 -5.031976427E+01  5.040954194E+01  6.743495762E-07  0.00000E+00  9.000E+00
</event>
<event>
      5  10001  3.52971E+09  6.34907E+00 -1.00000E+00  2.21718E-01
      21    -1     0     0   515   513  0.000000000E+00  0.000000000E+00  5.371639755E+01  5.371639755E+01  0.000000000E+00  0.00000E+00  9.000E+00
      21    -1     0     0   511   514  0.000000000E+00  0.000000000E+00 -2.886475201E+01  2.886475201E+01  0.000000000E+00  0.00000E+00  9.000E+00
      21     1     1     2   515   516  4.252830329E+00  6.755371660E+00  4.923105758E+01  4.987402773E+01  6.743495762E-07  0.00000E+00  9.000E+00
      21     1     1     2   511   513 -2.205005503E+00 -1.276512212E+01 -2.270571456E+01  2.614115272E+01  4.768371582E-07  0.00000E+00  9.000E+00
      21     1     1     2   516   514 -2.047824826E+00  6.009750458E+00 -1.673697473E+00  6.565969107E+00  8.940696716E-08  0.00000E+00  9.000E+00
</event>
<event>
      5  10001  3.52971E+09  6.26568E+00 -1.00000E+00  2.22583E-01
      21    -1     0     0   511   513  0.000000000E+00  0.000000000E+00  6.234403110E+02  6.234403110E+02  0.000000000E+00  0.00000E+00  9.000E+00
       1    -1     0     0   513     0  0.000000000E+00  0.000000000E+00 -2.388038789E+01  2.388038789E+01  0.000000000E+00  0.00000E+00  9.000E+00
      21     1     1     2   511   512  2.383459169E+00 -1.022329848E+01  6.160350198E+02  6.161244536E+02  1.321449896E-05  0.00000E+00  9.000E+00
       1     1     1     2   515     0  1.095209694E+00  5.482349676E+00 -2.225625446E+01  2.295006329E+01  3.300000131E-01  0.00000E+00  9.000E+00
      21     1     1     2   512   515 -3.478668863E+00  4.740948802E+00  5.781157795E+00  8.246182029E+00  2.384185791E-07  0.00000E+00  9.000E+00
</event>
<event>
      5  10001  3.52971E+09  6.20708E+00 -1.00000E+00  2.23201E-01
      -2    -1     0     0     0   514  0.000000000E+00  0.000000000E+00  1.791602201E+02  1.791602201E+02  0.000000000E+00  0.00000E+00  9.000E+00
      21    -1     0     0   514   516  0.000000000E+00  0.000000000E+00 -6.851108401E+00  6.851108401E+00  0.000000000E+00  0.00000E+00  9.000E+00
      -2     1     1     2     0   513  3.378858520E+00 -8.721429004E+00  1.606661730E+02  1.609385226E+02  3.300000131E-01  0.00000E+00  9.000E+00
      21     1     1     2   513   511 -9.362008031E+00  7.069797508E+00  1.414819660E+01  1.837935522E+01  4.460403188E-07  0.00000E+00  9.000E+00
      21     1     1     2   511   516  5.983149511E+00  1.651631496E+00 -2.505257917E+00  6.693450673E+00  5.161913656E-08  0.00000E+00  9.000E+00
</event>
<event>
      5  10001  3.52971E+09  8.84112E+00 -1.00000E+00  2.02146E-01
      -1    -1     0     0     0   512  0.000000000E+00  0.000000000E+00  3.613435546E+00  3.613435546E+00  0.000000000E+00  0.00000E+00  9.000E+00
      21    -1     0     0   511   515  0.000000000E+00  0.000000000E+00 -8.211683033E+01  8.211683033E+01  0.000000000E+00  0.00000E+00  9.000E+00
      -1     1     1     2     0   513  5.619793700E+00  1.483111964E+00  6.832763298E-01  5.861524450E+00  3.300000131E-01  0.00000E+00  9.000E+00
      21     1     1     2   511   512 -7.564659528E+00 -2.726723781E+00 -5.749487887E+01  5.805445885E+01  6.743495762E-07  0.00000E+00  9.000E+00
      21     1     1     2   513   515  1.944865828E+00  1.243611818E+00 -2.169179224E+01  2.181428257E+01  2.384185791E-07  0.00000E+00  9.000E+00
</event>
<event>
      5  10001  3.52971E+09  4.00988E+00 -1.00000E+00  2.63209E-01
      21    -1     0     0   516   511  0.000000000E+00  0.000000000E+00  7.371482837E-01  7.371482837E-01  0.000000000E+00  0.00000E+00  9.000E+00
       1    -1     0     0   512     0  0.000000000E+00  0.000000000E+00 -6.276991914E+02  6.276991914E+02  0.000000000E+00  0.00000E+00  9.000E+00
      21     1     1     2   512   511 -3.465481932E-01  1.309365211E+01 -1.006311832E+02  1.014800417E+02  2.697398305E-06  0.00000E+00  9.000E+00
       1     1     1     2   514     0 -6.166814064E-03 -9.099584975E+00 -5.118386857E+02  5.119196729E+02  3.300000131E-01  0.00000E+00  9.000E+00
      21     1     1     2   516   514  3.527150072E-01 -3.994067132E+00 -1.449217426E+01  1.503662512E+01  6.078504936E-07  0.00000E+00  9.000E+00
</event>
<event>
      5  10001  3.52971E+09  5.12725E+00 -1.00000E+00  2.36618E-01
      21    -1     0     0   514   511  0.000000000E+00  0.000000000E+00  2.033590029E+01  2.033590029E+01  0.000000000E+00  0.00000E+00  9.000E+00
       2    -1     0     0   511     0  0.000000000E+00  0.000000000E+00 -5.789625801E+01  5.789625801E+01  0.000000000E+00  0.00000E+00  9.000E+00
      21     1     1     2   514   513  1.505416897E+01 -5.824173608E+00  1.465433657E+01  2.180134358E+01  3.371747881E-07  0.00000E+00  9.000E+00
       2     1     1     2   512     0 -1.116920368E+01  7.421973696E+00 -4.982237349E+01  5.159665304E+01  3.300000131E-01  0.00000E+00  9.000E+00
      21     1     1     2   513   512 -3.884965289E+00 -1.597800088E+00 -2.392320793E+00  4.834161685E+00  5.161913656E-08  0.00000E+00  9.000E+00
</event>
<event>
      5  10001  3.52971E+09  2.04216E+01 -1.00000E+00  1.65622E-01
      21    -1     0     0   515   512  0.000000000E+00  0.000000000E+00  4.353744259E+00  4.353744259E+00  0.000000000E+00  0.00000E+00  9.000E+00
      21    -1     0     0   511   516  0.000000000E+00  0.000000000E+00 -7.129224308E+01  7.129224308E+01  0.000000000E+00  0.00000E+00  9.000E+00
      21     1     1     2   515   516  1.707259719E-01  9.871910365E+00 -5.141659165E+00  1.113195493E+01  1.884864366E-07  0.00000E+00  9.000E+00
      21     1     1     2   514   512 -1.216206102E+00  3.023488346E+00 -3.013737895E+01  3.031307059E+01  4.768371582E-07  0.00000E+00  9.000E+00
      21     1     1     2   511   514  1.045480130E+00 -1.289539871E+01 -3.165946071E+01  3.420096182E+01  8.259061849E-07  0.00000E+00  9.000E+00
</event>
<event>
      5  10001  3.52971E+09  1.58184E+01 -1.00000E+00  1.75234E-01
      21    -1     0     0   513   512  0.000000000E+00  0.000000000E+00  9.866291943E+01  9.866291943E+01  0.000000000E+00  0.00000E+00  9.000E+00
      21    -1     0     0   511   513  0.000000000E+00  0.000000000E+00 -1.714477407E+00  1.714477407E+00  0.000000000E+00  0.00000E+00  9.000E+00
      21     1     1     2   514   512 -8.519444544E+00  6.273066041E+00  3.646706521E+01  3.797076689E+01  4.768371582E-07  0.00000E+00  9.000E+00
      21     1     1     2   515   514  3.305519672E+00  2.256253646E+00  3.142178588E+01  3.167563368E+01  5.840038640E-07  0.00000E+00  9.000E+00
      21     1     1     2   511   515  5.213924873E+00 -8.529319687E+00  2.905959093E+01  3.073099627E+01  5.840038640E-07  0.00000E+00  9.000E+00
</event>
<event>
      5  10001  3.52971E+09  5.55566E+00 -1.00000E+00  2.30783E-01
      21    -1     0     0   511   514  0.000000000E+00  0.000000000E+00  7.160012985E-01  7.160012985E-01  0.000000000E+00  0.00000E+00  9.000E+00
      -3    -1     0     0     0   516  0.000000000E+00  0.000000000E+00 -1.560052207E+02  1.560052207E+02  0.000000000E+00  0.00000E+00  9.000E+00
      -3     1     1     2     0   514 -8.075653820E+00  1.226391668E+00 -7.209060565E+01  7.255360531E+01  5.000000000E-01  0.00000E+00  9.000E+00
      21     1     1     2   511   512  8.852466532E+00  6.044492003E-01 -4.229698985E+01  4.321766852E+01  8.259061849E-07  0.00000E+00  9.000E+00
      21     1     1     2   512   516 -7.768127113E-01 -1.830840868E+00 -4.090162387E+01  4.094994813E+01  0.000000000E+00  0.00000E+00  9.000E+00
</event>
<event>
      5  10001  3.52971E+09  1.04751E+01 -1.00000E+00  1.93451E-01
       4    -1     0     0   513     0  0.000000000E+00  0.000000000E+00  6.501529301E+01  6.501529301E+01  0.000000000E+00  0.00000E+00  9.000E+00
      21    -1     0     0   511   513  0.000000000E+00  0.000000000E+00 -2.557358598E+01  2.557358598E+01  0.000000000E+00  0.00000E+00  9.000E+00
      21     1     1     2   511   512 -6.590389479E+00  8.476368968E+00 -2.118083446E+01  2.374678531E+01  6.307962682E-07  0.00000E+00  9.000E+00
       4     1     1     2   514     0  1.514842232E+00 -6.396242654E+00  6.097396320E+01  6.134558546E+01  1.500000000E+00  0.00000E+00  9.000E+00
      21     1     1     2   512   514  5.075547247E+00 -2.080126314E+00 -3.514217156E-01  5.496508215E+00  1.167983965E-07  0.00000E+00  9.000E+00
</event>
<event>
      5  10001  3.52971E+09  1.03481E+01 -1.00000E+00  1.94050E-01
       2    -1     0     0   513     0  0.000000000E+00  0.000000000E+00  8.669196225E+02  8.669196225E+02  0.000000000E+00  0.00000E+00  9.000E+00
      21    -1     0     0   512   513  0.000000000E+00  0.000000000E+00 -1.793329568E-01  1.793329568E-01  0.000000000E+00  0.00000E+00  9.000E+00
      21     1     1     2   512   515 -1.365609382E+00 -9.303603311E+00  2.470244208E+02  2.472033301E+02  4.672030912E-06  0.00000E+00  9.000E+00
       2     1     1     2   511     0  4.794709829E-01  4.398003424E+00  5.429239363E+02  5.429420612E+02  3.300000131E-01  0.00000E+00  9.000E+00
      21     1     1     2   515   511  8.861383995E-01  4.905599886E+00  7.679193239E+01  7.695356413E+01  1.651812370E-06  0.00000E+00  9.000E+00
</event>
<event>
      5  10001  3.52971E+09  4.38982E+00 -1.00000E+00  2.54295E-01
       1    -1     0     0   513     0  0.000000000E+00  0.000000000E+00  1.406542675E+03  1.406542675E+03  0.000000000E+00  0.00000E+00  9.000E+00
      -1    -1     0     0     0   513  0.000000000E+00  0.000000000E+00 -3.341466135E+00  3.341466135E+00  0.000000000E+00  0.00000E+00  9.000E+00
      -1     1     1     2     0   514  2.222321378E+00 -1.875580324E+01  2.531896609E+01  3.158920403E+01  3.300000131E-01  0.00000E+00  9.000E+00
       1     1     1     2   512     0 -5.397134370E+00  1.733210980E+01  1.357245357E+03  1.357366789E+03  3.300000131E-01  0.00000E+00  9.000E+00
      21     1     1     2   514   512  3.174812992E+00  1.423693441E+00  2.063688542E+01  2.092814804E+01  3.371747881E-07  0.00000E+00  9.000E+00
</event>
<event>
      5  10001  3.52971E+09  9.83075E+00 -1.00000E+00  1.96613E-01
      21    -1     0     0   513   512  0.000000000E+00  0.000000000E+00  9.099831559E+01  9.099831559E+01  0.000000000E+00  0.00000E+00  9.000E+00
      21    -1     0     0   514   515  0.000000000E+00  0.000000000E+00 -5.895999880E+00  5.895999880E+00  0.000000000E+00  0.00000E+00  9.000E+00
      21     1     1     2   511   515  4.406773138E+00  1.044680374E+01  3.096690167E+01  3.297733096E+01  4.768371582E-07  0.00000E+00  9.000E+00
      21     1     1     2   514   512  3.003905529E+00 -1.690633456E+01  1.276902199E+01  2.139849339E+01  3.371747881E-07  0.00000E+00  9.000E+00
      21     1     1     2   513   511 -7.410678667E+00  6.459530815E+00  4.136639205E+01  4.251849113E+01  0.000000000E+00  0.00000E+00  9.000E+00
</event>
<event>
      5  10001  3.52971E+09  1.23551E+01 -1.00000E+00  1.85702E-01
      21    -1     0     0   516   512  0.000000000E+00  0.000000000E+00  2.748048811E+02  2.748048811E+02  0.000000000E+00  0.00000E+00  9.000E+00
      21    -1     0     0   517   516  0.000000000E+00  0.000000000E+00 -6.044039120E+02  6.044039120E+02  0.000000000E+00  0.00000E+00  9.000E+00
      21     1     1     2   514   511  1.343480850E+01 -1.090963877E+01  1.923559095E+01  2.587512815E+01  9.830249847E-07  0.00000E+00  9.000E+00
      21     1     1     2   517   514 -2.155849956E+01  2.021851067E+01 -6.005692198E+02  6.012960542E+02  7.629394531E-06  0.00000E+00  9.000E+00
      21     1     1     2   511   512  8.123691062E+00 -9.308871901E+00  2.517345979E+02  2.520376108E+02  0.000000000E+00  0.00000E+00  9.000E+00
</event>
<event>
      5  10001  3.52971E+09  5.48326E+00 -1.00000E+00  2.31716E-01
      21    -1     0     0   513   514  0.000000000E+00  0.000000000E+00  8.642682997E+01  8.642682997E+01  0.000000000E+00  0.00000E+00  9.000E+00
      21    -1     0     0   512   513  0.000000000E+00  0.000000000E+00 -1.769580185E+00  1.769580185E+00  0.000000000E+00  0.00000E+00  9.000E+00
      21     1     1     2   515   514  1.025195024E+01  5.069464140E+00  4.004949444E+01  4.165049766E+01  6.743495762E-07  0.00000E+00  9.000E+00
      21     1     1     2   512   516 -7.120373444E+00 -1.979682346E+00  1.628475861E+01  1.788329453E+01  0.000000000E+00  0.00000E+00  9.000E+00
      21     1     1     2   516   515 -3.131576797E+00 -3.089781793E+00  2.832299674E+01  2.866261797E+01  4.768371582E-07  0.00000E+00  9.000E+00
</event>
<event>
      5  10001  3.52971E+09  6.91084E+00 -1.00000E+00  2.16338E-01
      21    -1     0     0   511   512  0.000000000E+00  0.000000000E+00  9.698151644E+00  9.698151644E+00  0.000000000E+00  0.00000E+00  9.000E+00
       2    -1     0     0   514     0  0.000000000E+00  0.000000000E+00 -2.198221048E+01  2.198221048E+01  0.000000000E+00  0.00000E+00  9.000E+00
      21     1     1     2   513   512 -7.807514364E+00 -1.129090455E+00 -1.265821173E+01  1.491517516E+01  2.384185791E-07  0.00000E+00  9.000E+00
       2     1     1     2   511     0  1.188054497E+01 -1.375038024E+00 -5.708448333E-02  1.196454082E+01  3.300000131E-01  0.00000E+00  9.000E+00
      21     1     1     2   514   513 -4.073030604E+00  2.504128479E+00  4.312373814E-01  4.800646146E+00  7.867333323E-08  0.00000E+00  9.000E+00
</event>
<event>
      5  10001  3.52971E+09  6.92896E+00 -1.00000E+00  2.16176E-01
      21    -1     0     0   514   515  0.000000000E+00  0.000000000E+00  1.462482939E+01  1.462482939E+01  0.000000000E+00  0.00000E+00  9.000E+00
       1    -1     0     0   511     0  0.000000000E+00  0.000000000E+00 -5.258905854E+02  5.258905854E+02  0.000000000E+00  0.00000E+00  9.000E+00
      21     1     1     2   511   515  1.371602537E+01  4.259349567E+00  1.092713677E+01  1.804643258E+01  6.419616708E-07  0.00000E+00  9.000E+00
       1     1     1     2   512     0 -4.692939360E+00 -1.031226624E+00 -3.318964153E+02  3.319313581E+02  3.300000131E-01  0.00000E+00  9.000E+00
      21     1     1     2   514   512 -9.023086013E+00 -3.228122943E+00 -1.902964776E+02  1.905376242E+02  2.697398305E-06  0.00000E+00  9.000E+00
</event>
<event>
      5  10001  3.52971E+09  6.62123E+00 -1.00000E+00  2.19020E-01
      -2    -1     0     0     0   513  0.000000000E+00  0.000000000E+00  4.578101718E+00  4.578101718E+00  0.000000000E+00  0.00000E+00  9.000E+00
      21    -1     0     0   513   514  0.000000000E+00  0.000000000E+00 -5.935287356E+01  5.935287356E+01  0.000000000E+00  0.00000E+00  9.000E+00
      -2     1     1     2     0   511  4.707144893E+00  7.633398401E+00 -2.265355865E+00  9.255631874E+00  3.300000131E-01  0.00000E+00  9.000E+00
      21     1     1     2   515   514 -3.021409578E+00 -4.680201379E+00 -5.032792532E+01  5.063529666E+01  9.536743164E-07  0.00000E+00  9.000E+00
      21     1     1     2   511   515 -1.685735315E+00 -2.953197022E+00 -2.181490653E+00  4.040046741E+00  8.940696716E-08  0.00000E+00  9.000E+00
</event>
<event>
      5  10001  3.52971E+09  8.72283E+00 -1.00000E+00  2.02872E-01
      21    -1     0     0   512   514  0.000000000E+00  0.000000000E+00  5.316662823E+02  5.316662823E+02  0.000000000E+00  0.00000E+00  9.000E+00
      21    -1     0     0   511   516  0.000000000E+00  0.000000000E+00 -1.198985842E+00  1.198985842E+00  0.000000000E+00  0.00000E+00  9.000E+00
      21     1     1     2   512   516  3.852733796E+00  7.957310562E+00  2.321674370E+01  2.484309838E+01  0.000000000E+00  0.00000E+00  9.000E+00
      21     1     1     2   511   513 -1.238836233E+01 -6.159886146E+00  1.431237022E+02  1.437908545E+02  2.697398305E-06  0.00000E+00  9.000E+00
      21     1     1     2   513   514  8.535628530E+00 -1.797424416E+00  3.641268506E+02  3.642313153E+02  5.394796609E-06  0.00000E+00  9.000E+00
</event>
<event>
      5  10001  3.52971E+09  9.70630E+00 -1.00000E+00  1.97261E-01
      21    -1     0     0   515   514  0.000000000E+00  0.000000000E+00  6.007893147E+01  6.007893147E+01  0.000000000E+00  0.00000E+00  9.000E+00
      -2    -1     0     0     0   515  0.000000000E+00  0.000000000E+00 -3.569324309E+00  3.569324309E+00  0.000000000E+00  0.00000E+00  9.000E+00
      -2     1     1     2     0   511  4.057789367E+00  6.611196701E+00  3.268156610E+00  8.423973172E+00  3.300000131E-01  0.00000E+00  9.000E+00
      21     1     1     2   512   514 -7.644862509E+00 -2.016362736E+00  3.972967217E+01  4.050872119E+01  4.768371582E-07  0.00000E+00  9.000E+00
      21     1     1     2   511   512  3.587073142E+00 -4.594833965E+00  1.351177838E+01  1.471556142E+01  2.384185791E-07  0.00000E+00  9.000E+00
</event>
<event>
      5  10001  3.52971E+09  8.00365E+00 -1.00000E+00  2.07639E-01
      21    -1     0     0   511   512  0.000000000E+00  0.000000000E+00  2.288513134E-01  2.288513134E-01  0.000000000E+00  0.00000E+00  9.000E+00
       2    -1     0     0   512     0  0.000000000E+00  0.000000000E+00 -1.613119111E+03  1.613119111E+03  0.000000000E+00  0.00000E+00  9.000E+00
      21     1     1     2   511   514 -1.120990742E+00  7.301738709E+00 -1.567301400E+02  1.569041388E+02  1.907348633E-06  0.00000E+00  9.000E+00
       2     1     1     2   513     0 -5.240943183E+00 -1.364441781E+01 -1.252877295E+03  1.252962594E+03  3.300000131E-01  0.00000E+00  9.000E+00
      21     1     1     2   514   513  6.361933925E+00  6.342679102E+00 -2.032828245E+02  2.034812289E+02  3.814697266E-06  0.00000E+00  9.000E+00
</event>
<event>
      5  10001  3.52971E+09  1.40136E+01 -1.00000E+00  1.80209E-01
      21    -1     0     0   515   513  0.000000000E+00  0.000000000E+00  1.143960000E+02  1.143960000E+02  0.000000000E+00  0.00000E+00  9.000E+00
      21    -1     0     0   512   516  0.000000000E+00  0.000000000E+00 -2.792348610E+00  2.792348610E+00  0.000000000E+00  0.00000E+00  9.000E+00
      21     1     1     2   515   516  1.165568419E+01  1.016095163E-01  1.344436995E+01  1.779371748E+01  2.920019320E-07  0.00000E+00  9.000E+00
      21     1     1     2   512   511 -6.536699622E+00  2.144569648E+00  2.247837888E+01  2.350755491E+01  2.384185791E-07  0.00000E+00  9.000E+00
      21     1     1     2   511   513 -5.118984572E+00 -2.246179165E+00  7.568090258E+01  7.588707623E+01  0.000000000E+00  0.00000E+00  9.000E+00
</event>
<event>
      5  10001  3.52971E+09  3.76101E+00 -1.00000E+00  2.69929E-01
      21    -1     0     0   514   511  0.000000000E+00  0.000000000E+00  2.826442921E+02  2.826442921E+02  0.000000000E+00  0.00000E+00  9.000E+00
      21    -1     0     0   513   514  0.000000000E+00  0.000000000E+00 -5.954654064E+01  5.954654064E+01  0.000000000E+00  0.00000E+00  9.000E+00
      21     1     1     2   512   511 -4.236704805E+00 -9.305095404E+00  2.796045843E+02  2.797914545E+02  3.814697266E-06  0.00000E+00  9.000E+00
      21     1     1     2   515   512  5.600004053E+00  6.668315996E+00 -5.828983929E+01  5.893667660E+01  1.168007728E-06  0.00000E+00  9.000E+00
      21     1     1     2   513   515 -1.363299248E+00  2.636779408E+00  1.783006473E+00  3.462701629E+00  2.980232239E-08  0.00000E+00  9.000E+00
</event>
<event>
      5  10001  3.52971E+09  4.89867E+00 -1.00000E+00  2.44312E-01
      21    -1     0     0   516   512  0.000000000E+00  0.000000000E+00  1.817029223E+02  1.817029223E+02  0.000000000E+00  0.00000E+00  9.000E+00
      21    -1     0     0   511   516  0.000000000E+00  0.000000000E+00 -7.433573954E+00  7.433573954E+00  0.000000000E+00  0.00000E+00  9.000E+00
      21     1     1     2   515   512 -1.122743636E+01 -6.053696735E+00  1.694190389E+02  1.698985383E+02  1.907348633E-06  0.00000E+00  9.000E+00
      21     1     1     2   513   515  7.129567505E+00  3.369584238E+00 -4.209232238E+00  8.938817974E+00  4.616955931E-07  0.00000E+00  9.000E+00
      21     1     1     2   511   513  4.097868853E+00  2.684112498E+00  9.059541695E+00  1.029914000E+01  0.000000000E+00  0.00000E+00  9.000E+00
</event>
<event>
      5  10001  3.52971E+09  5.11037E+00 -1.00000E+00  2.36864E-01
      21    -1     0     0   514   512  0.000000000E+00  0.000000000E+00  2.370311596E+01  2.370311596E+01  0.000000000E+00  0.00000E+00  9.000E+00
      21    -1     0     0   511   517  0.000000000E+00  0.000000000E+00 -5.811838501E+02  5.811838501E+02  0.000000000E+00  0.00000E+00  9.000E+00
      21     1     1     2   514   517 -6.545784163E+00  1.245967326E+01  2.149852536E+01  2.569586233E+01  9.536743164E-07  0.00000E+00  9.000E+00
      21     1     1     2   515   512  1.656881118E+00 -5.998035265E+00 -3.739923947E+02  3.740441591E+02  5.394796609E-06  0.00000E+00  9.000E+00
      21     1     1     2   511   515  4.888903044E+00 -6.461637999E+00 -2.049868648E+02  2.051469446E+02  2.697398305E-06  0.00000E+00  9.000E+00
</event>
<event>
      5  10001  3.52971E+09  4.07505E+00 -1.00000E+00  2.61574E-01
       3    -1     0     0   512     0  0.000000000E+00  0.000000000E+00  4.648849974E-01  4.648849974E-01  0.000000000E+00  0.00000E+00  9.000E+00
      21    -1     0     0   513   515  0.000000000E+00  0.000000000E+00 -7.512210634E+02  7.512210634E+02  0.000000000E+00  0.00000E+00  9.000E+00
      21     1     1     2   511   515 -6.638476930E+00 -5.147928858E+00 -5.499691009E+02  5.500332558E+02  7.629394531E-06  0.00000E+00  9.000E+00
       3     1     1     2   513     0  1.062060627E+01  6.008113286E+00 -1.829116979E+02  1.833189405E+02  5.000000000E-01  0.00000E+00  9.000E+00
      21     1     1     2   512   511 -3.982129341E+00 -8.601844283E-01 -1.787537966E+01  1.833375219E+01  7.152557373E-07  0.00000E+00  9.000E+00
</event>
<event>
      5  10001  3.52971E+09  4.50575E+00 -1.00000E+00  2.51845E-01
      21    -1     0     0   514   513  0.000000000E+00  0.000000000E+00  4.114638095E+02  4.114638095E+02  0.000000000E+00  0.00000E+00  9.000E+00
      21    -1     0     0   516   515  0.000000000E+00  0.000000000E+00 -1.058235252E+01  1.058235252E+01  0.000000000E+00  0.00000E+00  9.000E+00
      21     1     1     2   514   511  4.369191031E+00  7.613248059E+00  4.014527590E+02  4.015487132E+02  9.344061824E-06  0.00000E+00  9.000E+00
      21     1     1     2   516   513 -8.537890547E+00 -9.323147725E+00  4.767921247E+00  1.351109661E+01  9.938080311E-07  0.00000E+00  9.000E+00
      21     1     1     2   511   515  4.168699516E+00  1.709899666E+00 -5.339223245E+00  6.986352223E+00  3.769728732E-07  0.00000E+00  9.000E+00
</event>
<event>
      5  10001  3.52971E+09  1.19649E+01 -1.00000E+00  1.87158E-01
      21    -1     0     0   512   513  0.000000000E+00  0.000000000E+00  9.509525498E+01  9.509525498E+01  0.000000000E+00  0.00000E+00  9.000E+00
      21    -1     0     0   517   514  0.000000000E+00  0.000000000E+00 -5.574166940E+01  5.574166940E+01  0.000000000E+00  0.00000E+00  9.000E+00
      21     1     1     2   515   513  9.829584117E+00 -1.737483647E+01  6.880548962E+01  7.164287172E+01  0.000000000E+00  0.00000E+00  9.000E+00
      21     1     1     2   517   515 -8.530012088E+00  2.926896880E+01  1.441635952E+01  3.372336079E+01  4.460403188E-07  0.00000E+00  9.000E+00
      21     1     1     2   512   514 -1.299572029E+00 -1.189413234E+01 -4.386826356E+01  4.547069187E+01  6.743495762E-07  0.00000E+00  9.000E+00
</event>
<event>
      5  10001  3.52971E+09  4.42086E+00 -1.00000E+00  2.53628E-01
      21    -1     0     0   511   513  0.000000000E+00  0.000000000E+00  1.462672263E+02  1.462672263E+02  0.000000000E+00  0.00000E+00  9.000E+00
      21    -1     0     0   516   511  0.000000000E+00  0.000000000E+00 -8.081201501E+00  8.081201501E+00  0.000000000E+00  0.00000E+00  9.000E+00
      21     1     1     2   516   514  1.015246204E+01  1.445050204E+01  3.742925117E+00  1.805267246E+01  2.457562462E-07  0.00000E+00  9.000E+00
      21     1     1     2   515   513 -1.111666807E+01 -1.127902770E+01  1.286521687E+02  1.296232128E+02  0.000000000E+00  0.00000E+00  9.000E+00
      21     1     1     2   514   515  9.642060328E-01 -3.171474342E+00  5.790930959E+00  6.672542555E+00  1.192092896E-07  0.00000E+00  9.000E+00
</event>
<event>
      5  10001  3.52971E+09  1.73557E+01 -1.00000E+00  1.71613E-01
      21    -1     0     0   512   515  0.000000000E+00  0.000000000E+00  1.261009003E+02  1.261009003E+02  0.000000000E+00  0.00000E+00  9.000E+00
      21    -1     0     0   514   517  0.000000000E+00  0.000000000E+00 -4.411101687E+01  4.411101687E+01  0.000000000E+00  0.00000E+00  9.000E+00
      21     1     1     2   512   517 -7.641261174E+00 -3.710047524E+01 -3.124135706E+01  4.910047379E+01  1.469710828E-06  0.00000E+00  9.000E+00
      21     1     1     2   514   511  1.996666482E+00  1.343162241E+01  7.172084681E+01  7.299503425E+01  1.348699152E-06  0.00000E+00  9.000E+00
      21     1     1     2   511   515  5.644594693E+00  2.366885283E+01  4.151039366E+01  4.811640911E+01  0.000000000E+00  0.00000E+00  9.000E+00
</event>
<event>
      5  10001  3.52971E+09  3.68945E+00 -1.00000E+00  2.72015E-01
      21    -1     0     0   513   511  0.000000000E+00  0.000000000E+00  1.618607267E+02  1.618607267E+02  0.000000000E+00  0.00000E+00  9.000E+00
      21    -1     0     0   515   513  0.000000000E+00  0.000000000E+00 -1.567313388E+02  1.567313388E+02  0.000000000E+00  0.00000E+00  9.000E+00
      21     1     1     2   514   511  1.266358343E+01  8.846192545E+00  1.610823053E+02  1.618212920E+02  2.697398305E-06  0.00000E+00  9.000E+00
      21     1     1     2   515   512 -7.800060174E+00 -3.013414088E+00 -8.697952240E+01  8.738054085E+01  2.336015456E-06  0.00000E+00  9.000E+00
      21     1     1     2   512   514 -4.863523259E+00 -5.832778456E+00 -6.897339501E+01  6.939023262E+01  9.536743164E-07  0.00000E+00  9.000E+00
</event>
<event>
      5  10001  3.52971E+09  2.44762E+01 -1.00000E+00  1.59440E-01
      21    -1     0     0   516   511  0.000000000E+00  0.000000000E+00  4.999508326E+01  4.999508326E+01  0.000000000E+00  0.00000E+00  9.000E+00
      21    -1     0     0   517   516  0.000000000E+00  0.000000000E+00 -9.713688134E+01  9.713688134E+01  0.000000000E+00  0.00000E+00  9.000E+00
      21     1     1     2   517   514  2.109242009E+01  3.190906423E+01 -7.572932937E+01  8.484108611E+01  9.536743164E-07  0.00000E+00  9.000E+00
      21     1     1     2   513   511 -1.539271647E+01 -1.216558717E+01  3.554082549E+01  4.059664405E+01  1.066240300E-06  0.00000E+00  9.000E+00
      21     1     1     2   514   513 -5.699703614E+00 -1.974347706E+01 -6.953294207E+00  2.169423444E+01  3.674277069E-07  0.00000E+00  9.000E+00
</event>
<event>
      5  10001  3.52971E+09  2.45387E+01 -1.00000E+00  1.59356E-01
      21    -1     0     0   512   513  0.000000000E+00  0.000000000E+00  6.129320782E+01  6.129320782E+01  0.000000000E+00  0.00000E+00  9.000E+00
      21    -1     0     0   514   515  0.000000000E+00  0.000000000E+00 -4.509045364E+00  4.509045364E+00  0.000000000E+00  0.00000E+00  9.000E+00
      21     1     1     2   512   515  5.146690839E+00 -5.598534769E+00  1.353188458E+01  1.552236833E+01  3.371747881E-07  0.00000E+00  9.000E+00
      21     1     1     2   514   511  8.314243140E-01  6.341130549E+00  4.376893634E+01  4.423370877E+01  0.000000000E+00  0.00000E+00  9.000E+00
      21     1     1     2   511   513 -5.978115153E+00 -7.425957794E-01 -5.166584691E-01  6.046176085E+00  2.451908987E-07  0.00000E+00  9.000E+00
</event>
<event>
      5  10001  3.52971E+09  1.19222E+01 -1.00000E+00  1.87321E-01
      21    -1     0     0   516   514  0.000000000E+00  0.000000000E+00  2.467823900E+01  2.467823900E+01  0.000000000E+00  0.00000E+00  9.000E+00
      21    -1     0     0   517   513  0.000000000E+00  0.000000000E+00 -8.755000933E+00  8.755000933E+00  0.000000000E+00  0.00000E+00  9.000E+00
      21     1     1     2   516   513 -1.092952504E+01 -7.419292716E+00  1.287232985E+01  1.844443813E+01  1.685873940E-07  0.00000E+00  9.000E+00
      21     1     1     2   512   514  2.519789024E-01  3.127500150E+00  2.664683940E-01  3.148929336E+00  8.229435248E-08  0.00000E+00  9.000E+00
      21     1     1     2   517   512  1.067754614E+01  4.291792566E+00  2.784439821E+00  1.183987247E+01  8.429369702E-08  0.00000E+00  9.000E+00
</event>
<event>
      5  10001  3.52971E+09  5.99473E+00 -1.00000E+00  2.25525E-01
      21    -1     0     0   511   512  0.000000000E+00  0.000000000E+00  1.048585178E+03  1.048585178E+03  0.000000000E+00  0.00000E+00  9.000E+00
      -2    -1     0     0     0   515  0.000000000E+00  0.000000000E+00 -2.962943318E+01  2.962943318E+01  0.000000000E+00  0.00000E+00  9.000E+00
      21     1     1     2   511   515 -7.428521290E+00 -1.011433175E+01  2.498717761E+01  2.796143201E+01  2.633419279E-06  0.00000E+00  9.000E+00
      21     1     1     2   517   512  7.585783600E+00  1.610699644E+01  1.021712225E+03  1.021867335E+03  0.000000000E+00  0.00000E+00  9.000E+00
      -2     1     1     2     0   517 -1.572623096E-01 -5.992664687E+00 -2.774365730E+01  2.838584474E+01  3.300000131E-01  0.00000E+00  9.000E+00
</event>
<event>
      5  10001  3.52971E+09  1.30275E+01 -1.00000E+00  1.83349E-01
      21    -1     0     0   513   511  0.000000000E+00  0.000000000E+00  1.963859224E+02  1.963859224E+02  0.000000000E+00  0.00000E+00  9.000E+00
       1    -1     0     0   514     0  0.000000000E+00  0.000000000E+00 -1.475415179E+02  1.475415179E+02  0.000000000E+00  0.00000E+00  9.000E+00
      21     1     1     2   514   512 -1.114358716E+01  3.394775789E+01  1.609499023E+02  1.648681318E+02  2.697398305E-06  0.00000E+00  9.000E+00
       1     1     1     2   513     0 -1.773879332E+00 -3.563719251E+01 -1.420184705E+02  1.464326159E+02  3.300000131E-01  0.00000E+00  9.000E+00
      21     1     1     2   512   511  1.291746649E+01  1.689434624E+00  2.991297274E+01  3.262669257E+01  4.768371582E-07  0.00000E+00  9.000E+00
</event>
<event>
      5  10001  3.52971E+09  1.95699E+00 -1.00000E+00  3.67519E-01
       2    -1     0     0   514     0  0.000000000E+00  0.000000000E+00  1.240492943E+03  1.240492943E+03  0.000000000E+00  0.00000E+00  9.000E+00
      -3    -1     0     0     0   515  0.000000000E+00  0.000000000E+00 -3.997893082E-01  3.997893082E-01  0.000000000E+00  0.00000E+00  9.000E+00
      -3     1     1     2     0   511  1.078353908E+01  5.789862453E+00  1.645157686E+02  1.649711955E+02  5.000000000E-01  0.00000E+00  9.000E+00
      21     1     1     2   514   515 -8.974567708E+00 -6.535164362E+00  1.800452715E+02  1.803872252E+02  3.814697266E-06  0.00000E+00  9.000E+00
       2     1     1     2   511     0 -1.808971377E+00  7.453019090E-01  8.955321138E+02  8.955343118E+02  3.300000131E-01  0.00000E+00  9.000E+00
</event>
<event>
      5  10001  3.52971E+09  2.48897E+00 -1.00000E+00  3.23853E-01
      21    -1     0     0   512   515  0.000000000E+00  0.000000000E+00  7.457137764E+01  7.457137764E+01  0.000000000E+00  0.00000E+00  9.000E+00
      21    -1     0     0   513   514  0.000000000E+00  0.000000000E+00 -2.253942979E+01  2.253942979E+01  0.000000000E+00  0.00000E+00  9.000E+00
      21     1     1     2   516   515 -4.380098143E+00  1.520610905E+01  6.201657560E+01  6.400364569E+01  1.348699152E-06  0.00000E+00  9.000E+00
      21     1     1     2   513   516  5.716292501E+00 -1.310621547E+01  7.014728690E+00  1.592655966E+01  4.129530925E-07  0.00000E+00  9.000E+00
      21     1     1     2   512   514 -1.336194358E+00 -2.099893578E+00 -1.699935645E+01  1.718060208E+01  0.000000000E+00  0.00000E+00  9.000E+00
</event>
<event>
      5  10001  3.52971E+09  1.38428E+01 -1.00000E+00  1.80729E-01
       5    -1     0     0   513     0  0.000000000E+00  0.000000000E+00  1.825400583E+02  1.825400583E+02  0.000000000E+00  0.00000E+00  9.000E+00
      21    -1     0     0   511   512  0.000000000E+00  0.000000000E+00 -5.111586936E+00  5.111586936E+00  0.000000000E+00  0.00000E+00  9.000E+00
      21     1     1     2   513   515  7.206251279E+00 -2.299302695E-01  7.789131259E+00  1.061383490E+01  2.384185791E-07  0.00000E+00  9.000E+00
       5     1     1     2   511     0 -1.031111536E+01  2.801803850E+00  1.719783007E+02  1.723767534E+02  4.800000191E+00  0.00000E+00  9.000E+00
      21     1     1     2   515   512  3.104864080E+00 -2.571873580E+00 -2.338960618E+00  4.661056901E+00  3.538829710E-07  0.00000E+00  9.000E+00
</event>
<event>
      5  10001  3.52971E+09  7.56219E+00 -1.00000E+00  2.10913E-01
      21    -1     0     0   514   511  0.000000000E+00  0.000000000E+00  2.123882275E-01  2.123882275E-01  0.000000000E+00  0.00000E+00  9.000E+00
      21    -1     0     0   515   516  0.000000000E+00  0.000000000E+00 -6.190507159E+02  6.190507159E+02  0.000000000E+00  0.00000E+00  9.000E+00
      21     1     1     2   514   516 -8.132058038E+00 -2.424011604E+00 -1.755387600E+02  1.757437409E+02  1.907348633E-06  0.00000E+00  9.000E+00
      21     1     1     2   513   511  8.201341856E+00  4.872322014E+00 -2.204120260E+02  2.206183644E+02  2.697398305E-06  0.00000E+00  9.000E+00
      21     1     1     2   515   513 -6.928381788E-02 -2.448310410E+00 -2.228875417E+02  2.229009988E+02  3.814697266E-06  0.00000E+00  9.000E+00
</event>
<event>
      5  10001  3.52971E+09  9.28085E+00 -1.00000E+00  1.99575E-01
      21    -1     0     0   512   513  0.000000000E+00  0.000000000E+00  6.574930452E+01  6.574930452E+01  0.000000000E+00  0.00000E+00  9.000E+00
      21    -1     0     0   515   517  0.000000000E+00  0.000000000E+00 -1.569432834E+02  1.569432834E+02  0.000000000E+00  0.00000E+00  9.000E+00
      21     1     1     2   512   517  6.579699486E+00 -9.422635654E+00  6.392286842E+01  6.494776066E+01  6.743495762E-07  0.00000E+00  9.000E+00
      21     1     1     2   515   511 -4.684121932E+00  9.894254296E-01 -1.417245209E+02  1.418053588E+02  0.000000000E+00  0.00000E+00  9.000E+00
      21     1     1     2   511   513 -1.895577554E+00  8.433210224E+00 -1.339232646E+01  1.593946852E+01  2.384185791E-07  0.00000E+00  9.000E+00
</event>
<event>
      5  10001  3.52971E+09  1.22762E+01 -1.00000E+00  1.85991E-01
      21    -1     0     0   514   515  0.000000000E+00  0.000000000E+00  1.080054555E+01  1.080054555E+01  0.000000000E+00  0.00000E+00  9.000E+00
      21    -1     0     0   516   513  0.000000000E+00  0.000000000E+00 -4.158167604E+02  4.158167604E+02  0.000000000E+00  0.00000E+00  9.000E+00
      21     1     1     2   514   513 -7.289397816E+00 -6.750804584E+00 -4.067783996E+02  4.068997113E+02  0.000000000E+00  0.00000E+00  9.000E+00
      21     1     1     2   512   515  4.561960946E+00 -3.473543200E+00  6.017759388E+00  8.312064610E+00  8.301966356E-07  0.00000E+00  9.000E+00
      21     1     1     2   516   512  2.727436870E+00  1.022434778E+01 -4.255574622E+00  1.140553001E+01  2.064765462E-07  0.00000E+00  9.000E+00
</event>
<event>
      5  10001  3.52971E+09  9.21948E+00 -1.00000E+00  1.99923E-01
      21    -1     0     0   516   512  0.000000000E+00  0.000000000E+00  2.035353078E+00  2.035353078E+00  0.000000000E+00  0.00000E+00  9.000E+00
      -1    -1     0     0     0   511  0.000000000E+00  0.000000000E+00 -1.306129209E+02  1.306129209E+02  0.000000000E+00  0.00000E+00  9.000E+00
      -1     1     1     2     0   512  1.377450316E+00  9.593681479E+00 -8.823264958E+01  8.876398732E+01  3.300000131E-01  0.00000E+00  9.000E+00
      21     1     1     2   516   513  1.937172355E+00 -6.192761678E+00 -4.921523180E+00  8.143974726E+00  2.598106231E-07  0.00000E+00  9.000E+00
      21     1     1     2   513   511 -3.314622671E+00 -3.400919801E+00 -3.542339506E+01  3.574031192E+01  0.000000000E+00  0.00000E+00  9.000E+00
</event>
<event>
      5  10001  3.52971E+09  1.64719E+01 -1.00000E+00  1.73634E-01
      21    -1     0     0   514   513  0.000000000E+00  0.000000000E+00  9.654376420E-01  9.654376420E-01  0.000000000E+00  0.00000E+00  9.000E+00
      21    -1     0     0   515   514  0.000000000E+00  0.000000000E+00 -1.113570613E+02  1.113570613E+02  0.000000000E+00  0.00000E+00  9.000E+00
      21     1     1     2   511   513 -3.346575744E+00  6.941644973E-01 -1.964567169E+01  1.994075851E+01  2.384185791E-07  0.00000E+00  9.000E+00
      21     1     1     2   512   511  1.826682991E+00 -2.994539030E+00 -3.067018479E+00  4.659467470E+00  1.737759082E-07  0.00000E+00  9.000E+00
      21     1     1     2   515   512  1.519892753E+00  2.300374533E+00 -8.767893351E+01  8.772227299E+01  9.536743164E-07  0.00000E+00  9.000E+00
</event>
<event>
      5  10001  3.52971E+09  3.62418E+01 -1.00000E+00  1.47546E-01
       2    -1     0     0   514     0  0.000000000E+00  0.000000000E+00  2.113100281E+02  2.113100281E+02  0.000000000E+00  0.00000E+00  9.000E+00
      21    -1     0     0   516   512  0.000000000E+00  0.000000000E+00 -1.979800441E+00  1.979800441E+00  0.000000000E+00  0.00000E+00  9.000E+00
      21     1     1     2   514   512 -3.049487505E+00  1.546767579E+00  1.237576203E+01  1.283944507E+01  0.000000000E+00  0.00000E+00  9.000E+00
       2     1     1     2   511     0 -5.979866266E-01 -1.677134171E+00  1.967884760E+02  1.967968078E+02  3.300000131E-01  0.00000E+00  9.000E+00
      21     1     1     2   516   511  3.647474132E+00  1.303665917E-01  1.659896677E-01  3.653575723E+00  2.861934724E-07  0.00000E+00  9.000E+00
</event>
<event>
      5  10001  3.52971E+09  2.17824E+01 -1.00000E+00  1.63364E-01
      21    -1     0     0   511   515  0.000000000E+00  0.000000000E+00  7.095152664E+01  7.095152664E+01  0.000000000E+00  0.00000E+00  9.000E+00
       1    -1     0     0   515     0  0.000000000E+00  0.000000000E+00 -4.533028779E+02  4.533028779E+02  0.000000000E+00  0.00000E+00  9.000E+00
      21     1     1     2   511   513  1.936031295E+01  8.506366990E+00  6.717139309E+01  7.042141753E+01  9.536743164E-07  0.00000E+00  9.000E+00
       1     1     1     2   512     0 -2.914342698E+01  5.672297342E+00 -4.051072428E+02  4.061939209E+02  3.300000131E-01  0.00000E+00  9.000E+00
      21     1     1     2   513   512  9.783114029E+00 -1.417866433E+01 -4.441550153E+01  4.763906610E+01  6.743495762E-07  0.00000E+00  9.000E+00
</event>
<event>
      5  10001  3.52971E+09  2.88489E+01 -1.00000E+00  1.54227E-01
      21    -1     0     0   514   512  0.000000000E+00  0.000000000E+00  4.354152919E-01  4.354152919E-01  0.000000000E+00  0.00000E+00  9.000E+00
       2    -1     0     0   513     0  0.000000000E+00  0.000000000E+00 -7.686095687E+02  7.686095687E+02  0.000000000E+00  0.00000E+00  9.000E+00
      21     1     1     2   513   512 -2.476251416E+00  6.567370776E+00 -1.732777734E+02  1.734198631E+02  2.697398305E-06  0.00000E+00  9.000E+00
       2     1     1     2   511     0  8.581174612E+00 -2.076139193E+00 -5.515762348E+02  5.516469873E+02  3.300000131E-01  0.00000E+00  9.000E+00
      21     1     1     2   514   511 -6.104923196E+00 -4.491231583E+00 -4.332014528E+01  4.397813360E+01  9.536743164E-07  0.00000E+00  9.000E+00
</event>
<event>
      5  10001  3.52971E+09  1.17316E+01 -1.00000E+00  1.88062E-01
      21    -1     0     0   511   512  0.000000000E+00  0.000000000E+00  1.489426816E+01  1.489426816E+01  0.000000000E+00  0.00000E+00  9.000E+00
       5    -1     0     0   512     0  0.000000000E+00  0.000000000E+00 -9.466982192E+01  9.466982192E+01  0.000000000E+00  0.00000E+00  9.000E+00
      -3     1     1     2     0   515  1.212622413E+01 -5.713681575E+00  1.620826959E+00  1.351179296E+01  5.000000000E-01  0.00000E+00  9.000E+00
       5     1     1     2   515     0 -1.526002285E+01  1.012036540E+00 -8.677036206E+01  8.823847375E+01  4.800000191E+00  0.00000E+00  9.000E+00
       3     1     1     2   511     0  3.133798713E+00  4.701645035E+00  5.373981337E+00  7.813823380E+00  5.000000000E-01  0.00000E+00  9.000E+00
</event>
<event>
      5  10001  3.52971E+09  6.88449E+00 -1.00000E+00  2.16574E-01
       2    -1     0     0   514     0  0.000000000E+00  0.000000000E+00  6.791724443E+00  6.791724443E+00  0.000000000E+00  0.00000E+00  9.000E+00
      21    -1     0     0   513   514  0.000000000E+00  0.000000000E+00 -7.858967235E+01  7.858967235E+01  0.000000000E+00  0.00000E+00  9.000E+00
      21     1     1     2   512   511 -1.105591744E+00 -4.271268786E+00 -5.718918848E+01  5.735912612E+01  0.000000000E+00  0.00000E+00  9.000E+00
       2     1     1     2   511     0  4.201459246E+00  1.036144669E+01  7.517467338E-01  1.121097054E+01  3.300000131E-01  0.00000E+00  9.000E+00
      21     1     1     2   513   512 -3.095867502E+00 -6.090177907E+00 -1.536050616E+01  1.681130013E+01  1.685873940E-07  0.00000E+00  9.000E+00
</event>
<event>
      5  10001  3.52971E+09  1.61796E+01 -1.00000E+00  1.74338E-01
      -1    -1     0     0     0   512  0.000000000E+00  0.000000000E+00  1.942110789E+00  1.942110789E+00  0.000000000E+00  0.00000E+00  9.000E+00
      21    -1     0     0   515   514  0.000000000E+00  0.000000000E+00 -2.422840298E+02  2.422840298E+02  0.000000000E+00  0.00000E+00  9.000E+00
      -1     1     1     2     0   511  1.194048186E+01  4.218904440E+00 -2.893665245E+01  3.158817844E+01  3.300000131E-01  0.00000E+00  9.000E+00
      21     1     1     2   515   512 -1.562175116E+01  1.930237863E-01 -1.142894483E+02  1.153523054E+02  1.348699152E-06  0.00000E+00  9.000E+00
      21     1     1     2   511   514  3.681269297E+00 -4.411928226E+00 -9.711581825E+01  9.728565674E+01  1.907348633E-06  0.00000E+00  9.000E+00
</event>
<event>
      5  10001  3.52971E+09  7.67597E+00 -1.00000E+00  2.10041E-01
      21    -1     0     0   513   514  0.000000000E+00  0.000000000E+00  1.065559899E+01  1.065559899E+01  0.000000000E+00  0.00000E+00  9.000E+00
      -2    -1     0     0     0   513  0.000000000E+00  0.000000000E+00 -1.157944022E+02  1.157944022E+02  0.000000000E+00  0.00000E+00  9.000E+00
      -2     1     1     2     0   512  1.812522061E+01 -1.612187829E-01 -9.623187097E+01  9.792462154E+01  3.300000131E-01  0.00000E+00  9.000E+00
      21     1     1     2   512   515 -1.620213705E+01  4.089951235E+00  1.946779669E+00  1.682340326E+01  5.234529993E-07  0.00000E+00  9.000E+00
      21     1     1     2   515   514 -1.923083556E+00 -3.928732452E+00 -1.085371190E+01  1.170197638E+01  1.192092896E-07  0.00000E+00  9.000E+00
</event>
<event>
      5  10001  3.52971E+09  1.15810E+01 -1.00000E+00  1.88661E-01
      21    -1     0     0   511   515  0.000000000E+00  0.000000000E+00  5.123240421E+01  5.123240421E+01  0.000000000E+00  0.00000E+00  9.000E+00
      21    -1     0     0   514   511  0.000000000E+00  0.000000000E+00 -7.729966684E+00  7.729966684E+00  0.000000000E+00  0.00000E+00  9.000E+00
      21     1     1     2   516   515  3.647800092E-01  1.243308510E+01  3.513303514E+01  3.726989171E+01  4.768371582E-07  0.00000E+00  9.000E+00
      -2     1     1     2     0   516 -7.374232025E+00 -8.785041235E+00  2.250982143E+00  1.169324882E+01  3.300000131E-01  0.00000E+00  9.000E+00
       2     1     1     2   514     0  7.009452015E+00 -3.648043862E+00  6.118420237E+00  9.999230359E+00  3.300000131E-01  0.00000E+00  9.000E+00
</event>
<event>
      5  10001  3.52971E+09  3.21052E+01 -1.00000E+00  1.51019E-01
      21    -1     0     0   512   513  0.000000000E+00  0.000000000E+00  7.275460128E-01  7.275460128E-01  0.000000000E+00  0.00000E+00  9.000E+00
       1    -1     0     0   514     0  0.000000000E+00  0.000000000E+00 -5.908985271E+02  5.908985271E+02  0.000000000E+00  0.00000E+00  9.000E+00
      21     1     1     2   514   513 -2.540046373E+00 -5.326640265E+00 -6.267992674E+01  6.295711356E+01  1.507891493E-06  0.00000E+00  9.000E+00
       1     1     1     2   511     0 -1.678353155E+00  8.043587393E+00 -5.167316574E+02  5.167970886E+02  3.300000131E-01  0.00000E+00  9.000E+00
      21     1     1     2   512   511  4.218399527E+00 -2.716947128E+00 -1.075939697E+01  1.187187093E+01  7.633118912E-07  0.00000E+00  9.000E+00
</event>
<event>
      5  10001  3.52971E+09  3.28132E+00 -1.00000E+00  2.85525E-01
      21    -1     0     0   513   511  0.000000000E+00  0.000000000E+00  1.072695935E+02  1.072695935E+02  0.000000000E+00  0.00000E+00  9.000E+00
      -3    -1     0     0     0   515  0.000000000E+00  0.000000000E+00 -1.690148387E+01  1.690148387E+01  0.000000000E+00  0.00000E+00  9.000E+00
      -3     1     1     2     0   511 -1.177436689E+01  1.189463478E+00 -4.377674484E-01  1.185293969E+01  5.000000000E-01  0.00000E+00  9.000E+00
      21     1     1     2   514   515  1.462456814E+01  4.358406955E-01 -5.739850708E+00  1.571667384E+01  3.153981341E-07  0.00000E+00  9.000E+00
      21     1     1     2   513   514 -2.850201254E+00 -1.625304174E+00  9.654572774E+01  9.660146379E+01  1.907348633E-06  0.00000E+00  9.000E+00
</event>
<event>
      5  10001  3.52971E+09  7.28507E+00 -1.00000E+00  2.13127E-01
      21    -1     0     0   512   515  0.000000000E+00  0.000000000E+00  2.125174111E+02  2.125174111E+02  0.000000000E+00  0.00000E+00  9.000E+00
      21    -1     0     0   516   512  0.000000000E+00  0.000000000E+00 -4.925320857E+00  4.925320857E+00  0.000000000E+00  0.00000E+00  9.000E+00
      21     1     1     2   514   515  1.790209074E+01 -4.565514515E+00  1.899127256E+02  1.908092559E+02  3.814697266E-06  0.00000E+00  9.000E+00
      21     1     1     2   516   511 -7.354627748E+00 -4.266634766E-01  3.186377331E+00  8.026555396E+00  2.384185791E-07  0.00000E+00  9.000E+00
      21     1     1     2   511   514 -1.054746300E+01  4.992177991E+00  1.449298730E+01  1.860692069E+01  6.078504936E-07  0.00000E+00  9.000E+00
</event>
<event>
      5  10001  3.52971E+09  1.20523E+01 -1.00000E+00  1.86826E-01
      -1    -1     0     0     0   513  0.000000000E+00  0.000000000E+00  1.749240622E+02  1.749240622E+02  0.000000000E+00  0.00000E+00  9.000E+00
      21    -1     0     0   511   512  0.000000000E+00  0.000000000E+00 -6.660685067E+00  6.660685067E+00  0.000000000E+00  0.00000E+00  9.000E+00
      -1     1     1     2     0   515  8.252628837E+00 -8.990752587E+00  9.129770643E+01  9.211036649E+01  3.300000131E-01  0.00000E+00  9.000E+00
      21     1     1     2   511   513 -3.440506183E+00  1.215023866E+01  3.397537444E-01  1.263253003E+01  6.809948863E-07  0.00000E+00  9.000E+00
      21     1     1     2   515   512 -4.812122653E+00 -3.159486078E+00  7.662591700E+01  7.684185079E+01  0.000000000E+00  0.00000E+00  9.000E+00
</event>
<event>
      5  10001  3.52971E+09  1.11867E+01 -1.00000E+00  1.90286E-01
      21    -1     0     0   511   516  0.000000000E+00  0.000000000E+00  2.869719089E+02  2.869719089E+02  0.000000000E+00  0.00000E+00  9.000E+00
       2    -1     0     0   513     0  0.000000000E+00  0.000000000E+00 -5.072391148E+02  5.072391148E+02  0.000000000E+00  0.00000E+00  9.000E+00
      21     1     1     2   511   514 -5.685893647E+00  3.402166172E+00 -5.031976046E+00  8.320150489E+00  7.226679118E-07  0.00000E+00  9.000E+00
       2     1     1     2   514     0  9.709013369E+00 -1.384043662E+01 -5.003105119E+02  5.005961845E+02  3.300000131E-01  0.00000E+00  9.000E+00
      21     1     1     2   513   516 -4.023119722E+00  1.043827045E+01  2.850752821E+02  2.852946888E+02  3.814697266E-06  0.00000E+00  9.000E+00
</event>
<event>
      5  10001  3.52971E+09  3.49664E+00 -1.00000E+00  2.78029E-01
      21    -1     0     0   512   514  0.000000000E+00  0.000000000E+00  5.886022791E+01  5.886022791E+01  0.000000000E+00  0.00000E+00  9.000E+00
       3    -1     0     0   513     0  0.000000000E+00  0.000000000E+00 -9.173323177E+01  9.173323177E+01  0.000000000E+00  0.00000E+00  9.000E+00
      21     1     1     2   512   515 -6.338794864E+00 -8.129562005E+00 -9.394731659E+00  1.394743997E+01  2.665600750E-07  0.00000E+00  9.000E+00
      21     1     1     2   513   514  4.475651790E+00  1.108842392E+01  5.591242979E+01  5.717678208E+01  9.536743164E-07  0.00000E+00  9.000E+00
       3     1     1     2   515     0  1.863143074E+00 -2.958861911E+00 -7.939070200E+01  7.946923763E+01  5.000000000E-01  0.00000E+00  9.000E+00
</event>
<event>
      5  10001  3.52971E+09  5.52441E+00 -1.00000E+00  2.31184E-01
      21    -1     0     0   511   514  0.000000000E+00  0.000000000E+00  5.315164930E+00  5.315164930E+00  0.000000000E+00  0.00000E+00  9.000E+00
      21    -1     0     0   516   511  0.000000000E+00  0.000000000E+00 -5.723803790E+01  5.723803790E+01  0.000000000E+00  0.00000E+00  9.000E+00
      21     1     1     2   513   514 -7.570802812E+00  8.332525333E+00 -2.462595696E+00  1.152442672E+01  5.960464478E-08  0.00000E+00  9.000E+00
      21     1     1     2   516   512  4.202053175E+00 -1.790057847E+00 -2.727761350E+01  2.765736351E+01  3.371747881E-07  0.00000E+00  9.000E+00
      21     1     1     2   512   513  3.368749637E+00 -6.542467486E+00 -2.218266377E+01  2.337141260E+01  4.129530925E-07  0.00000E+00  9.000E+00
</event>
<event>
      5  10001  3.52971E+09  1.01210E+01 -1.00000E+00  1.95150E-01
      21    -1     0     0   515   516  0.000000000E+00  0.000000000E+00  5.720255768E+00  5.720255768E+00  0.000000000E+00  0.00000E+00  9.000E+00
      21    -1     0     0   514   513  0.000000000E+00  0.000000000E+00 -1.502596372E+02  1.502596372E+02  0.000000000E+00  0.00000E+00  9.000E+00
      21     1     1     2   515   513 -1.554618619E+01  8.029162040E+00 -1.302281357E+02  1.313983207E+02  0.000000000E+00  0.00000E+00  9.000E+00
      21     1     1     2   514   511  6.182810932E+00 -8.408122754E+00 -9.169731016E+00  1.389271918E+01  3.576278687E-07  0.00000E+00  9.000E+00
      21     1     1     2   511   516  9.363375259E+00  3.789607141E-01 -5.141514729E+00  1.068885313E+01  1.788139343E-07  0.00000E+00  9.000E+00
</event>
<event>
      5  10001  3.52971E+09  4.36507E+00 -1.00000E+00  2.54833E-01
      21    -1     0     0   512   513  0.000000000E+00  0.000000000E+00  2.388004023E+01  2.388004023E+01  0.000000000E+00  0.00000E+00  9.000E+00
      21    -1     0     0   517   516  0.000000000E+00  0.000000000E+00 -2.198679087E+01  2.198679087E+01  0.000000000E+00  0.00000E+00  9.000E+00
      21     1     1     2   512   516 -6.664513545E-01 -1.029535710E+01  2.105370364E+01  2.344561733E+01  3.371747881E-07  0.00000E+00  9.000E+00
      -4     1     1     2     0   513  1.462291631E+00  7.033907355E+00 -8.983241355E+00  1.160011960E+01  1.500000000E+00  0.00000E+00  9.000E+00
       4     1     1     2   517     0 -7.958402764E-01  3.261449744E+00 -1.017721292E+01  1.082109417E+01  1.500000000E+00  0.00000E+00  9.000E+00
</event>
<event>
      5  10001  3.52971E+09  7.28157E+00 -1.00000E+00  2.13156E-01
      21    -1     0     0   511   513  0.000000000E+00  0.000000000E+00  1.319776258E+02  1.319776258E+02  0.000000000E+00  0.00000E+00  9.000E+00
      21    -1     0     0   514   511  0.000000000E+00  0.000000000E+00 -2.876432968E+00  2.876432968E+00  0.000000000E+00  0.00000E+00  9.000E+00
      21     1     1     2   515   513 -8.511383300E+00 -1.243797961E+01  9.562378307E+01  9.680420895E+01  1.348699152E-06  0.00000E+00  9.000E+00
      21     1     1     2   514   512  3.309297562E+00  7.497550782E+00  7.532069679E+00  1.113089357E+01  8.429369702E-08  0.00000E+00  9.000E+00
      21     1     1     2   512   515  5.202085738E+00  4.940428832E+00  2.594534007E+01  2.691895623E+01  3.371747881E-07  0.00000E+00  9.000E+00
</event>
<event>
      5  10001  3.52971E+09  3.02018E+00 -1.00000E+00  2.95977E-01
       1    -1     0     0   511     0  0.000000000E+00  0.000000000E+00  6.039737735E+02  6.039737735E+02  0.000000000E+00  0.00000E+00  9.000E+00
      -2    -1     0     0     0   511  0.000000000E+00  0.000000000E+00 -6.454531963E-01  6.454531963E-01  0.000000000E+00  0.00000E+00  9.000E+00
      -2     1     1     2     0   512 -1.368630061E+01 -6.514458747E+00  1.161615043E+02  1.171467327E+02  3.300000131E-01  0.00000E+00  9.000E+00
       1     1     1     2   513     0  1.198625323E+01  5.357423184E+00  4.699238328E+02  4.701073173E+02  3.300000131E-01  0.00000E+00  9.000E+00
      21     1     1     2   512   513  1.700047377E+00  1.157035563E+00  1.724298321E+01  1.736517672E+01  0.000000000E+00  0.00000E+00  9.000E+00
</event>
<event>
      5  10001  3.52971E+09  5.67154E+00 -1.00000E+00  2.29331E-01
      21    -1     0     0   514   513  0.000000000E+00  0.000000000E+00  1.979310978E+01  1.979310978E+01  0.000000000E+00  0.00000E+00  9.000E+00
      -3    -1     0     0     0   515  0.000000000E+00  0.000000000E+00 -1.887446029E+02  1.887446029E+02  0.000000000E+00  0.00000E+00  9.000E+00
      21     1     1     2   514   515 -1.134374735E+01  1.149319641E+01  1.108605382E+01  1.958761744E+01  0.000000000E+00  0.00000E+00  9.000E+00
      21     1     1     2   512   513  1.501772693E+01 -7.172655523E+00 -1.129969290E+01  2.011621657E+01  2.920019320E-07  0.00000E+00  9.000E+00
      -3     1     1     2     0   512 -3.673979577E+00 -4.320540884E+00 -1.687378540E+02  1.688338786E+02  5.000000000E-01  0.00000E+00  9.000E+00
</event>
<event>
      5  10001  3.52971E+09  6.93273E+00 -1.00000E+00  2.16142E-01
      21    -1     0     0   511   513  0.000000000E+00  0.000000000E+00  1.502524625E+02  1.502524625E+02  0.000000000E+00  0.00000E+00  9.000E+00
      21    -1     0     0   517   516  0.000000000E+00  0.000000000E+00 -4.116735058E+01  4.116735058E+01  0.000000000E+00  0.00000E+00  9.000E+00
      21     1     1     2   511   516 -3.658514766E+00 -8.972226270E+00  1.727379929E+00  9.842226168E+00  5.575503985E-08  0.00000E+00  9.000E+00
      21     1     1     2   517   512  8.050803570E+00  1.433603967E+01 -3.520035396E+01  3.885102818E+01  4.768371582E-07  0.00000E+00  9.000E+00
      21     1     1     2   512   513 -4.392288804E+00 -5.363813400E+00  1.425580859E+02  1.427265587E+02  1.907348633E-06  0.00000E+00  9.000E+00
</event>
<event>
      5  10001  3.52971E+09  2.48857E+01 -1.00000E+00  1.58897E-01
      -2    -1     0     0     0   513  0.000000000E+00  0.000000000E+00  1.422638684E+01  1.422638684E+01  0.000000000E+00  0.00000E+00  9.000E+00
      21    -1     0     0   513   511  0.000000000E+00  0.000000000E+00 -2.221066710E+01  2.221066710E+01  0.000000000E+00  0.00000E+00  9.000E+00
      21     1     1     2   514   512 -8.573267830E+00  4.633863461E+00 -1.135474008E+00  9.811366525E+00  3.650024150E-08  0.00000E+00  9.000E+00
      21     1     1     2   512   511  3.974213917E+00  5.638105318E+00 -1.231063055E+01  1.411149291E+01  1.685873940E-07  0.00000E+00  9.000E+00
      -2     1     1     2     0   514  4.599053914E+00 -1.027196878E+01  5.461824292E+00  1.251419450E+01  3.300000131E-01  0.00000E+00  9.000E+00
</event>
<event>
      5  10001  3.52971E+09  2.55836E+00 -1.00000E+00  3.19553E-01
       1    -1     0     0   512     0  0.000000000E+00  0.000000000E+00  1.027543380E+03  1.027543380E+03  0.000000000E+00  0.00000E+00  9.000E+00
      21    -1     0     0   513   511  0.000000000E+00  0.000000000E+00 -1.243186791E+00  1.243186791E+00  0.000000000E+00  0.00000E+00  9.000E+00
      21     1     1     2   512   511 -1.555517983E+01 -3.826645933E+00  3.145967358E+02  3.150043064E+02  1.078959322E-05  0.00000E+00  9.000E+00
       1     1     1     2   515     0  1.314367894E+01  2.972546074E+00  7.110017070E+02  7.111294739E+02  3.300000131E-01  0.00000E+00  9.000E+00
      21     1     1     2   513   515  2.411500894E+00  8.540998591E-01  7.017504227E-01  2.652786608E+00  3.665201031E-07  0.00000E+00  9.000E+00
</event>
<event>
      5  10001  3.52971E+09  1.62337E+01 -1.00000E+00  1.74206E-01
       1    -1     0     0   511     0  0.000000000E+00  0.000000000E+00  1.088661751E+02  1.088661751E+02  0.000000000E+00  0.00000E+00  9.000E+00
      21    -1     0     0   515   511  0.000000000E+00  0.000000000E+00 -6.796235035E+00  6.796235035E+00  0.000000000E+00  0.00000E+00  9.000E+00
      21     1     1     2   512   514  7.423085564E+00  1.408947908E+00  7.797290519E+00  1.085748926E+01  0.000000000E+00  0.00000E+00  9.000E+00
       1     1     1     2   514     0 -1.269062742E+01 -1.055739260E+00  9.768933307E+01  9.851640120E+01  3.300000131E-01  0.00000E+00  9.000E+00
      21     1     1     2   515   512  5.267541860E+00 -3.532086487E-01 -3.416683516E+00  6.288519686E+00  3.097148194E-07  0.00000E+00  9.000E+00
</event>
<event>
      5  10001  3.52971E+09  1.58091E+01 -1.00000E+00  1.75257E-01
      -3    -1     0     0     0   512  0.000000000E+00  0.000000000E+00  1.813199825E+02  1.813199825E+02  0.000000000E+00  0.00000E+00  9.000E+00
      21    -1     0     0   512   511  0.000000000E+00  0.000000000E+00 -1.649697701E+00  1.649697701E+00  0.000000000E+00  0.00000E+00  9.000E+00
      -3     1     1     2     0   513  9.814871197E+00  5.320929247E-01  1.061407684E+02  1.065960953E+02  5.000000000E-01  0.00000E+00  9.000E+00
      21     1     1     2   513   514 -1.112706192E+01 -5.804537643E+00  6.541521939E+01  6.660822090E+01  9.536743164E-07  0.00000E+00  9.000E+00
      21     1     1     2   514   511  1.312190725E+00  5.272444718E+00  8.114297017E+00  9.765363991E+00  3.953724850E-07  0.00000E+00  9.000E+00
</event>
<event>
      5  10001  3.52971E+09  5.61582E+00 -1.00000E+00  2.30023E-01
      21    -1     0     0   514   513  0.000000000E+00  0.000000000E+00  9.690679142E+00  9.690679142E+00  0.000000000E+00  0.00000E+00  9.000E+00
      -5    -1     0     0     0   511  0.000000000E+00  0.000000000E+00 -3.671464853E+02  3.671464853E+02  0.000000000E+00  0.00000E+00  9.000E+00
      -5     1     1     2     0   512 -3.618426905E+00  1.379880842E+01 -2.791038082E+02  2.795093484E+02  4.800000191E+00  0.00000E+00  9.000E+00
      21     1     1     2   514   511 -8.345388723E-02 -1.800626574E+01 -8.598962435E+01  8.785469860E+01  1.348699152E-06  0.00000E+00  9.000E+00
      21     1     1     2   512   513  3.701880793E+00  4.207457324E+00  7.637626313E+00  9.473117451E+00  4.460403188E-07  0.00000E+00  9.000E+00
</event>
<event>
      5  10001  3.52971E+09  3.32389E+00 -1.00000E+00  2.83970E-01
      21    -1     0     0   515   511  0.000000000E+00  0.000000000E+00  1.137181763E+01  1.137181763E+01  0.000000000E+00  0.00000E+00  9.000E+00
      21    -1     0     0   514   515  0.000000000E+00  0.000000000E+00 -1.166886690E+02  1.166886690E+02  0.000000000E+00  0.00000E+00  9.000E+00
      21     1     1     2   516   511 -8.213633442E+00 -1.074773703E+01  6.437719533E+00  1.498071622E+01  7.817075878E-07  0.00000E+00  9.000E+00
      21     1     1     2   513   516  6.932726695E+00  7.680564313E+00 -1.054160238E+02  1.059225747E+02  1.348699152E-06  0.00000E+00  9.000E+00
      21     1     1     2   514   513  1.280906746E+00  3.067172716E+00 -6.338547114E+00  7.157195685E+00  1.192092896E-07  0.00000E+00  9.000E+00
</event>
<event>
      5  10001  3.52971E+09  1.80705E+01 -1.00000E+00  1.70085E-01
      21    -1     0     0   512   513  0.000000000E+00  0.000000000E+00  5.461321357E-01  5.461321357E-01  0.000000000E+00  0.00000E+00  9.000E+00
       2    -1     0     0   511     0  0.000000000E+00  0.000000000E+00 -1.246831146E+03  1.246831146E+03  0.000000000E+00  0.00000E+00  9.000E+00
      21     1     1     2   511   513  1.804777520E+01  1.440553754E+01 -7.280581521E+02  7.284242683E+02  1.078959322E-05  0.00000E+00  9.000E+00
       2     1     1     2   515     0 -3.059759515E+00 -1.091266738E+01 -2.800810168E+02  2.803104231E+02  3.300000131E-01  0.00000E+00  9.000E+00
      21     1     1     2   512   515 -1.498801569E+01 -3.492870151E+00 -2.381458450E+02  2.386425868E+02  5.394796609E-06  0.00000E+00  9.000E+00
</event>
<event>
      5  10001  3.52971E+09  5.84554E+00 -1.00000E+00  2.27239E-01
      21    -1     0     0   514   511  0.000000000E+00  0.000000000E+00  7.187374298E+02  7.187374298E+02  0.000000000E+00  0.00000E+00  9.000E+00
      21    -1     0     0   513   514  0.000000000E+00  0.000000000E+00 -1.124952117E+00  1.124952117E+00  0.000000000E+00  0.00000E+00  9.000E+00
      21     1     1     2   515   511 -3.300885995E+00 -8.954588849E+00  6.338418213E+02  6.339136652E+02  1.321449896E-05  0.00000E+00  9.000E+00
      21     1     1     2   516   515  9.015588159E+00  7.724723969E+00  6.983049008E+01  7.083254573E+01  4.862803949E-06  0.00000E+00  9.000E+00
      21     1     1     2   513   516 -5.714702164E+00  1.229864880E+00  1.394016632E+01  1.511617099E+01  3.769728732E-07  0.00000E+00  9.000E+00
</event>
<event>
      5  10001  3.52971E+09  1.09469E+01 -1.00000E+00  1.91318E-01
      21    -1     0     0   512   515  0.000000000E+00  0.000000000E+00  3.361591754E+01  3.361591754E+01  0.000000000E+00  0.00000E+00  9.000E+00
      21    -1     0     0   513   512  0.000000000E+00  0.000000000E+00 -5.836824885E+02  5.836824885E+02  0.000000000E+00  0.00000E+00  9.000E+00
      21     1     1     2   516   515  3.674956518E+00 -1.941758630E+01  3.028953636E+01  3.616633761E+01  1.011524364E-06  0.00000E+00  9.000E+00
      21     1     1     2   513   511  5.783378719E+00  1.597938502E+01 -4.730298306E+02  4.733349859E+02  0.000000000E+00  0.00000E+00  9.000E+00
      21     1     1     2   511   516 -9.458335236E+00  3.438201280E+00 -1.073262767E+02  1.077970826E+02  1.348699152E-06  0.00000E+00  9.000E+00
</event>
<event>
      5  10001  3.52971E+09  1.30585E+01 -1.00000E+00  1.83245E-01
      21    -1     0     0   514   513  0.000000000E+00  0.000000000E+00  3.316407283E+00  3.316407283E+00  0.000000000E+00  0.00000E+00  9.000E+00
      21    -1     0     0   517   514  0.000000000E+00  0.000000000E+00 -7.891807328E+01  7.891807328E+01  0.000000000E+00  0.00000E+00  9.000E+00
      21     1     1     2   517   516 -4.124653868E+00  1.122826640E+01 -3.743110224E+01  3.929598136E+01  0.000000000E+00  0.00000E+00  9.000E+00
      21     1     1     2   516   512  3.389879124E+00 -5.924835062E+00 -3.161931480E+00  7.522816073E+00  2.598106231E-07  0.00000E+00  9.000E+00
      21     1     1     2   512   513  7.347747436E-01 -5.303431339E+00 -3.500863228E+01  3.541568313E+01  8.259061849E-07  0.00000E+00  9.000E+00
</event>
<event>
      5  10001  3.52971E+09  5.52625E+00 -1.00000E+00  2.31160E-01
      21    -1     0     0   511   512  0.000000000E+00  0.000000000E+00  5.064449447E+01  5.064449447E+01  0.000000000E+00  0.00000E+00  9.000E+00
      21    -1     0     0   513   511  0.000000000E+00  0.000000000E+00 -1.304776154E+01  1.304776154E+01  0.000000000E+00  0.00000E+00  9.000E+00
      21     1     1     2   515   512  8.535422237E+00 -6.700370012E+00  4.519870464E+01  4.648302155E+01  6.743495762E-07  0.00000E+00  9.000E+00
      21     1     1     2   514   515 -3.449414511E+00  6.642937070E+00 -9.216209691E+00  1.187289326E+01  1.192092896E-07  0.00000E+00  9.000E+00
      21     1     1     2   513   514 -5.086007726E+00  5.743294162E-02  1.614237980E+00  5.336341198E+00  8.688795410E-08  0.00000E+00  9.000E+00
</event>
<event>
      5  10001  3.52971E+09  4.69746E+00 -1.00000E+00  2.48031E-01
      21    -1     0     0   511   515  0.000000000E+00  0.000000000E+00  8.591487368E+01  8.591487368E+01  0.000000000E+00  0.00000E+00  9.000E+00
      21    -1     0     0   513   516  0.000000000E+00  0.000000000E+00 -8.402500358E+00  8.402500358E+00  0.000000000E+00  0.00000E+00  9.000E+00
      21     1     1     2   514   515 -8.625912981E+00 -2.637969758E+00 -1.892580871E+00  9.216676275E+00  2.096779239E-07  0.00000E+00  9.000E+00
      21     1     1     2   513   514  1.288892401E+01  4.610998954E+00  1.418911027E+01  1.971589520E+01  5.840038640E-07  0.00000E+00  9.000E+00
      21     1     1     2   511   516 -4.263011027E+00 -1.973029196E+00  6.521584392E+01  6.538480256E+01  9.536743164E-07  0.00000E+00  9.000E+00
</event>
<event>
      5  10001  3.52971E+09  9.88818E+00 -1.00000E+00  1.96319E-01
      21    -1     0     0   514   513  0.000000000E+00  0.000000000E+00  1.409231648E+02  1.409231648E+02  0.000000000E+00  0.00000E+00  9.000E+00
      21    -1     0     0   515   517  0.000000000E+00  0.000000000E+00 -6.588361039E+00  6.588361039E+00  0.000000000E+00  0.00000E+00  9.000E+00
      21     1     1     2   512   517  9.847833259E-01  1.647394230E+01  5.974314682E+00  1.755143894E+01  3.371747881E-07  0.00000E+00  9.000E+00
      21     1     1     2   515   513  4.538160033E-01 -6.690971987E+00  1.891260185E+01  2.006642877E+01  4.129530925E-07  0.00000E+00  9.000E+00
      21     1     1     2   514   512 -1.438599329E+00 -9.782970312E+00  1.094478872E+02  1.098936581E+02  1.907348633E-06  0.00000E+00  9.000E+00
</event>
<event>
      5  10001  3.52971E+09  5.91389E+00 -1.00000E+00  2.26445E-01
      21    -1     0     0   513   515  0.000000000E+00  0.000000000E+00  3.573429558E+00  3.573429558E+00  0.000000000E+00  0.00000E+00  9.000E+00
      21    -1     0     0   516   511  0.000000000E+00  0.000000000E+00 -2.162983320E+02  2.162983320E+02  0.000000000E+00  0.00000E+00  9.000E+00
      21     1     1     2   516   512 -8.727307189E+00 -9.172959204E+00 -1.909506617E+02  1.913699670E+02  3.814697266E-06  0.00000E+00  9.000E+00
      21     1     1     2   512   515  3.040937408E+00  7.548358397E+00 -2.766433268E+00  8.595240999E+00  6.440336342E-07  0.00000E+00  9.000E+00
      21     1     1     2   513   511  5.686369780E+00  1.624600807E+00 -1.900780748E+01  1.990655355E+01  5.331201500E-07  0.00000E+00  9.000E+00
</event>
<event>
      5  10001  3.52971E+09  3.30639E+00 -1.00000E+00  2.84605E-01
      21    -1     0     0   512   511  0.000000000E+00  0.000000000E+00  3.174385178E+02  3.174385178E+02  0.000000000E+00  0.00000E+00  9.000E+00
      21    -1     0     0   516   517  0.000000000E+00  0.000000000E+00 -2.147473113E+01  2.147473113E+01  0.000000000E+00  0.00000E+00  9.000E+00
      21     1     1     2   514   517 -8.982258800E+00 -1.462169268E+01 -1.386978794E+01  2.206458446E+01  2.920019320E-07  0.00000E+00  9.000E+00
      21     1     1     2   516   511  7.657875588E+00  1.159213683E+01  1.029499427E+01  1.729183627E+01  3.769728732E-07  0.00000E+00  9.000E+00
      21     1     1     2   512   514  1.324383212E+00  3.029555854E+00  2.995385804E+02  2.995568282E+02  5.394796609E-06  0.00000E+00  9.000E+00
</event>
<event>
      5  10001  3.52971E+09  1.00693E+01 -1.00000E+00  1.95406E-01
      21    -1     0     0   513   516  0.000000000E+00  0.000000000E+00  7.020183805E+01  7.020183805E+01  0.000000000E+00  0.00000E+00  9.000E+00
      21    -1     0     0   515   511  0.000000000E+00  0.000000000E+00 -2.354515696E+02  2.354515696E+02  0.000000000E+00  0.00000E+00  9.000E+00
      21     1     1     2   513   514  8.503188801E+00 -6.604402987E+00  5.210099689E+01  5.320184428E+01  1.168007728E-06  0.00000E+00  9.000E+00
      21     1     1     2   515   516 -1.621206557E+01  1.308241259E+01  1.121836900E+01  2.366077751E+01  3.953724850E-07  0.00000E+00  9.000E+00
      21     1     1     2   514   511  7.708876767E+00 -6.478009602E+00 -2.285690974E+02  2.287907858E+02  3.814697266E-06  0.00000E+00  9.000E+00
</event>
<event>
      5  10001  3.52971E+09  6.52611E+00 -1.00000E+00  2.19942E-01
       1    -1     0     0   511     0  0.000000000E+00  0.000000000E+00  7.256025761E+02  7.256025761E+02  0.000000000E+00  0.00000E+00  9.000E+00
      21    -1     0     0   514   511  0.000000000E+00  0.000000000E+00 -2.924789243E+01  2.924789243E+01  0.000000000E+00  0.00000E+00  9.000E+00
      21     1     1     2   514   513  1.384991184E+01 -2.043024106E+00 -2.169577513E+01  2.582054732E+01  2.431401974E-06  0.00000E+00  9.000E+00
       1     1     1     2   512     0 -1.679236089E+01 -3.977880158E+00  7.213526097E+02  7.215590783E+02  3.300000131E-01  0.00000E+00  9.000E+00
      21     1     1     2   513   512  2.942449044E+00  6.020904264E+00 -3.302150904E+00  7.470842999E+00  2.493441184E-07  0.00000E+00  9.000E+00
</event>
<event>
      5  10001  3.52971E+09  4.38931E+00 -1.00000E+00  2.54307E-01
      21    -1     0     0   515   512  0.000000000E+00  0.000000000E+00  1.313365903E+01  1.313365903E+01  0.000000000E+00  0.00000E+00  9.000E+00
      21    -1     0     0   513   511  0.000000000E+00  0.000000000E+00 -9.455400266E+01  9.455400266E+01  0.000000000E+00  0.00000E+00  9.000E+00
      21     1     1     2   515   516 -3.322027163E-01 -1.814458826E+01 -3.286270460E+01  3.754056200E+01  6.743495762E-07  0.00000E+00  9.000E+00
      21     1     1     2   513   512  4.570240421E+00  1.700220616E+01  3.461757811E+00  1.794285035E+01  6.063875541E-07  0.00000E+00  9.000E+00
      21     1     1     2   516   511 -4.238037705E+00  1.142382102E+00 -5.201939685E+01  5.220424934E+01  6.743495762E-07  0.00000E+00  9.000E+00
</event>
<event>
      5  10001  3.52971E+09  1.21163E+01 -1.00000E+00  1.86584E-01
      21    -1     0     0   514   512  0.000000000E+00  0.000000000E+00  2.035694019E+01  2.035694019E+01  0.000000000E+00  0.00000E+00  9.000E+00
      -1    -1     0     0     0   511  0.000000000E+00  0.000000000E+00 -5.781431576E+00  5.781431576E+00  0.000000000E+00  0.00000E+00  9.000E+00
      -1     1     1     2     0   512 -2.469715344E+00 -6.173582455E+00  8.196300514E+00  1.055939659E+01  3.300000131E-01  0.00000E+00  9.000E+00
      21     1     1     2   513   511  3.071626457E+00  5.219277616E-01 -3.183687377E+00  4.454566533E+00  4.214684851E-08  0.00000E+00  9.000E+00
      21     1     1     2   514   513 -6.019111136E-01  5.651654693E+00  9.562895474E+00  1.112440864E+01  0.000000000E+00  0.00000E+00  9.000E+00
</event>
<event>
      5  10001  3.52971E+09  5.38244E+00 -1.00000E+00  2.33050E-01
      21    -1     0     0   515   511  0.000000000E+00  0.000000000E+00  1.419220575E+02  1.419220575E+02  0.000000000E+00  0.00000E+00  9.000E+00
      21    -1     0     0   516   515  0.000000000E+00  0.000000000E+00 -2.419993647E+00  2.419993647E+00  0.000000000E+00  0.00000E+00  9.000E+00
      21     1     1     2   513   511 -8.115936960E+00 -6.716531026E+00  1.263038034E+02  1.267423804E+02  0.000000000E+00  0.00000E+00  9.000E+00
      21     1     1     2   516   512  2.309407342E+00  1.598737966E+00  6.932005280E-01  2.893069706E+00  1.823490597E-07  0.00000E+00  9.000E+00
      21     1     1     2   512   513  5.806529619E+00  5.117793060E+00  1.250505990E+01  1.470660108E+01  4.129530925E-07  0.00000E+00  9.000E+00
</event>
<event>
      5  10001  3.52971E+09  3.22178E+00 -1.00000E+00  2.87765E-01
      21    -1     0     0   514   516  0.000000000E+00  0.000000000E+00  2.691504444E+01  2.691504444E+01  0.000000000E+00  0.00000E+00  9.000E+00
      21    -1     0     0   511   515  0.000000000E+00  0.000000000E+00 -1.169947309E+01  1.169947309E+01  0.000000000E+00  0.00000E+00  9.000E+00
      21     1     1     2   514   513 -6.121457588E+00 -9.479714502E+00 -5.385116996E+00  1.250346812E+01  2.230201594E-07  0.00000E+00  9.000E+00
      21     1     1     2   511   516  3.078217949E+00  1.053732007E+01  2.002731733E+01  2.283865100E+01  4.768371582E-07  0.00000E+00  9.000E+00
      21     1     1     2   513   515  3.043239639E+00 -1.057605566E+00  5.733710175E-01  3.272398411E+00  5.424104548E-08  0.00000E+00  9.000E+00
</event>
<event>
      5  10001  3.52971E+09  1.59579E+01 -1.00000E+00  1.74884E-01
      21    -1     0     0   512   511  0.000000000E+00  0.000000000E+00  2.080069670E+01  2.080069670E+01  0.000000000E+00  0.00000E+00  9.000E+00
      21    -1     0     0   513   517  0.000000000E+00  0.000000000E+00 -2.886917957E+02  2.886917957E+02  0.000000000E+00  0.00000E+00  9.000E+00
      21     1     1     2   512   517 -4.831599638E+00  1.784150781E+01 -2.562327575E+02  2.568985983E+02  3.814697266E-06  0.00000E+00  9.000E+00
      21     1     1     2   513   514 -1.343797699E-02 -1.672973209E+01  1.679734710E+01  2.370727706E+01  1.702649219E-06  0.00000E+00  9.000E+00
      21     1     1     2   514   511  4.845037615E+00 -1.111775720E+00 -2.845568852E+01  2.888661704E+01  3.371747881E-07  0.00000E+00  9.000E+00
</event>
<event>
      5  10001  3.52971E+09  1.44096E+01 -1.00000E+00  1.79039E-01
      21    -1     0     0   515   513  0.000000000E+00  0.000000000E+00  2.823877600E+01  2.823877600E+01  0.000000000E+00  0.00000E+00  9.000E+00
      21    -1     0     0   516   511  0.000000000E+00  0.000000000E+00 -3.632744640E+01  3.632744640E+01  0.000000000E+00  0.00000E+00  9.000E+00
      21     1     1     2   515   511  1.512911333E+00  9.107890431E+00 -2.762859305E+01  2.913042607E+01  5.840038640E-07  0.00000E+00  9.000E+00
      21     1     1     2   516   512 -6.821371265E+00 -5.556975720E+00  2.533043723E+01  2.681496103E+01  6.743495762E-07  0.00000E+00  9.000E+00
      21     1     1     2   512   513  5.308459932E+00 -3.550914711E+00 -5.790514573E+00  8.620835294E+00  1.460009660E-07  0.00000E+00  9.000E+00
</event>
<event>
      5  10001  3.52971E+09  3.55868E+00 -1.00000E+00  2.76028E-01
      21    -1     0     0   514   511  0.000000000E+00  0.000000000E+00  3.331702814E+00  3.331702814E+00  0.000000000E+00  0.00000E+00  9.000E+00
      21    -1     0     0   517   513  0.000000000E+00  0.000000000E+00 -9.480401534E+01  9.480401534E+01  0.000000000E+00  0.00000E+00  9.000E+00
      21     1     1     2   514   513 -5.999570193E+00  1.399761777E+01 -5.836661843E+01  6.032072855E+01  1.168007728E-06  0.00000E+00  9.000E+00
      21     1     1     2   515   511  8.082593375E+00 -1.400802826E+01 -2.874260027E+01  3.298014921E+01  4.768371582E-07  0.00000E+00  9.000E+00
      21     1     1     2   517   515 -2.083023182E+00  1.041048581E-02 -4.363093828E+00  4.834840401E+00  8.429369702E-08  0.00000E+00  9.000E+00
</event>
<event>
      5  10001  3.52971E+09  1.18971E+01 -1.00000E+00  1.87418E-01
      21    -1     0     0   512   511  0.000000000E+00  0.000000000E+00  1.906949071E+02  1.906949071E+02  0.000000000E+00  0.00000E+00  9.000E+00
      21    -1     0     0   516   512  0.000000000E+00  0.000000000E+00 -2.238186382E+00  2.238186382E+00  0.000000000E+00  0.00000E+00  9.000E+00
      21     1     1     2   515   511  1.537527226E+01  9.657594359E+00  8.970265315E+01  9.152176849E+01  1.348699152E-06  0.00000E+00  9.000E+00
      21     1     1     2   513   515 -1.065177019E+01 -3.999378726E+00  2.727186756E+01  2.955012688E+01  5.840038640E-07  0.00000E+00  9.000E+00
      21     1     1     2   516   513 -4.723502071E+00 -5.658215634E+00  7.148219997E+01  7.186119808E+01  9.536743164E-07  0.00000E+00  9.000E+00
</event>
<event>
      5  10001  3.52971E+09  1.62519E+01 -1.00000E+00  1.74162E-01
      -2    -1     0     0     0   514  0.000000000E+00  0.000000000E+00  1.325735845E+02  1.325735845E+02  0.000000000E+00  0.00000E+00  9.000E+00
      21    -1     0     0   515   512  0.000000000E+00  0.000000000E+00 -1.142323933E+00  1.142323933E+00  0.000000000E+00  0.00000E+00  9.000E+00
      21     1     1     2   511   512  1.295142187E+00  4.409656639E+00  3.137709712E+01  3.171190137E+01  3.371747881E-07  0.00000E+00  9.000E+00
      21     1     1     2   515   514 -8.452579511E+00  1.794026083E+00  2.729261829E+01  2.862781240E+01  5.840038640E-07  0.00000E+00  9.000E+00
      -2     1     1     2     0   511  7.157437324E+00 -6.203682722E+00  7.276154517E+01  7.337619467E+01  3.300000131E-01  0.00000E+00  9.000E+00
</event>
<event>
      5  10001  3.52971E+09  2.20638E+00 -1.00000E+00  3.44260E-01
      -3    -1     0     0     0   511  0.000000000E+00  0.000000000E+00  1.659353084E+02  1.659353084E+02  0.000000000E+00  0.00000E+00  9.000E+00
      21    -1     0     0   511   513  0.000000000E+00  0.000000000E+00 -1.051690402E+01  1.051690402E+01  0.000000000E+00  0.00000E+00  9.000E+00
      -3     1     1     2     0   512  8.179692433E+00 -4.289711914E+00  1.370003775E+02  1.373122807E+02  5.000000000E-01  0.00000E+00  9.000E+00
      21     1     1     2   514   513 -1.171841087E+01  4.451714323E+00 -6.396955745E+00  1.407337758E+01  5.717076687E-07  0.00000E+00  9.000E+00
      21     1     1     2   512   514  3.538718439E+00 -1.620024084E-01  2.481498257E+01  2.506655407E+01  0.000000000E+00  0.00000E+00  9.000E+00
</event>
<event>
      5  10001  3.52971E+09  6.00318E+00 -1.00000E+00  2.25430E-01
      21    -1     0     0   515   513  0.000000000E+00  0.000000000E+00  2.303988876E+01  2.303988876E+01  0.000000000E+00  0.00000E+00  9.000E+00
       3    -1     0     0   511     0  0.000000000E+00  0.000000000E+00 -8.986360300E+01  8.986360300E+01  0.000000000E+00  0.00000E+00  9.000E+00
      21     1     1     2   514   513  1.036286039E+01  9.580811564E-01  2.688227722E+00  1.074864471E+01  3.526258339E-07  0.00000E+00  9.000E+00
      21     1     1     2   511   514 -1.636173632E+01 -7.360223274E-01  1.207344150E+01  2.034738641E+01  2.384185791E-07  0.00000E+00  9.000E+00
       3     1     1     2   515     0  5.998875931E+00 -2.220588289E-01 -8.158538346E+01  8.180746064E+01  5.000000000E-01  0.00000E+00  9.000E+00
</event>
<event>
      5  10001  3.52971E+09  4.84473E+01 -1.00000E+00  1.39859E-01
      21    -1     0     0   512   511  0.000000000E+00  0.000000000E+00  1.102005328E+02  1.102005328E+02  0.000000000E+00  0.00000E+00  9.000E+00
      21    -1     0     0   513   516  0.000000000E+00  0.000000000E+00 -1.469207028E+02  1.469207028E+02  0.000000000E+00  0.00000E+00  9.000E+00
      21     1     1     2   512   516  1.013143993E+01 -1.186675014E+01  1.084313404E+02  1.095482607E+02  0.000000000E+00  0.00000E+00  9.000E+00
      21     1     1     2   513   514  1.885611268E+00  8.960450232E+00 -2.238370248E+01  2.418419597E+01  2.384185791E-07  0.00000E+00  9.000E+00
      21     1     1     2   514   511 -1.201705120E+01  2.906299906E+00 -1.227678080E+02  1.233887790E+02  0.000000000E+00  0.00000E+00  9.000E+00
</event>
<event>
      5  10001  3.52971E+09  1.49937E+01 -1.00000E+00  1.77397E-01
      21    -1     0     0   515   511  0.000000000E+00  0.000000000E+00  1.940501733E-01  1.940501733E-01  0.000000000E+00  0.00000E+00  9.000E+00
      21    -1     0     0   514   515  0.000000000E+00  0.000000000E+00 -1.512037066E+03  1.512037066E+03  0.000000000E+00  0.00000E+00  9.000E+00
      -2     1     1     2     0   511  1.201923298E+00 -1.106256793E+01 -2.029958598E+02  2.033008928E+02  3.300000131E-01  0.00000E+00  9.000E+00
       2     1     1     2   512     0 -2.418938511E+00  4.846025314E+00 -2.282121898E+02  2.282766911E+02  3.300000131E-01  0.00000E+00  9.000E+00
      21     1     1     2   514   512  1.217015213E+00  6.216542616E+00 -1.080634966E+03  1.080653532E+03  2.157918644E-05  0.00000E+00  9.000E+00
</event>
<event>
      5  10001  3.52971E+09  3.92799E+00 -1.00000E+00  2.65335E-01
       3    -1     0     0   514     0  0.000000000E+00  0.000000000E+00  3.061295864E+01  3.061295864E+01  0.000000000E+00  0.00000E+00  9.000E+00
      21    -1     0     0   513   511  0.000000000E+00  0.000000000E+00 -7.896697836E+01  7.896697836E+01  0.000000000E+00  0.00000E+00  9.000E+00
      21     1     1     2   514   512 -1.403769130E+01 -1.054285249E+00  1.337420768E+01  1.941745929E+01  4.460403188E-07  0.00000E+00  9.000E+00
       3     1     1     2   513     0  1.788675963E+01  2.717952069E-01  8.508847152E+00  1.981566357E+01  5.000000000E-01  0.00000E+00  9.000E+00
      21     1     1     2   512   511 -3.849068336E+00  7.824900419E-01 -7.023707455E+01  7.034681414E+01  0.000000000E+00  0.00000E+00  9.000E+00
</event>
<event>
      5  10001  3.52971E+09  5.88676E+00 -1.00000E+00  2.26758E-01
      21    -1     0     0   515   511  0.000000000E+00  0.000000000E+00  9.925184280E+00  9.925184280E+00  0.000000000E+00  0.00000E+00  9.000E+00
      21    -1     0     0   513   516  0.000000000E+00  0.000000000E+00 -5.484369966E+01  5.484369966E+01  0.000000000E+00  0.00000E+00  9.000E+00
      21     1     1     2   515   516  2.683520045E-01  1.721193411E+01 -1.178167915E+01  2.085978553E+01  2.384185791E-07  0.00000E+00  9.000E+00
      21     1     1     2   512   511 -4.044206962E-01 -1.132674637E+01 -1.158019739E+00  1.139296928E+01  2.091477640E-07  0.00000E+00  9.000E+00
      21     1     1     2   513   512  1.360686917E-01 -5.885187748E+00 -3.197881649E+01  3.251612913E+01  0.000000000E+00  0.00000E+00  9.000E+00
</event>
<event>
      5  10001  3.52971E+09  1.43136E+01 -1.00000E+00  1.79318E-01
      -1    -1     0     0     0   514  0.000000000E+00  0.000000000E+00  9.343289795E+00  9.343289795E+00  0.000000000E+00  0.00000E+00  9.000E+00
      21    -1     0     0   511   512  0.000000000E+00  0.000000000E+00 -4.845621363E+01  4.845621363E+01  0.000000000E+00  0.00000E+00  9.000E+00
      -1     1     1     2     0   515  1.466476611E+01 -2.540825995E+00 -2.327598800E+00  1.506777282E+01  3.300000131E-01  0.00000E+00  9.000E+00
      21     1     1     2   511   514 -1.540552971E+01 -1.837143548E+00 -1.968316464E+01  2.506256995E+01  2.384185791E-07  0.00000E+00  9.000E+00
      21     1     1     2   515   512  7.407636083E-01  4.377969543E+00 -1.710216040E+01  1.766916065E+01  2.384185791E-07  0.00000E+00  9.000E+00
</event>
<event>
      5  10001  3.52971E+09  2.35329E+01 -1.00000E+00  1.60740E-01
      21    -1     0     0   513   511  0.000000000E+00  0.000000000E+00  3.921783101E+01  3.921783101E+01  0.000000000E+00  0.00000E+00  9.000E+00
      21    -1     0     0   515   516  0.000000000E+00  0.000000000E+00 -6.795071581E+00  6.795071581E+00  0.000000000E+00  0.00000E+00  9.000E+00
      21     1     1     2   513   516 -9.138255405E+00  5.782275691E+00  1.051471489E+01  1.508315793E+01  2.064765462E-07  0.00000E+00  9.000E+00
      21     1     1     2   514   511  5.195224852E+00  6.844004314E+00  8.107770851E+00  1.181383530E+01  1.685873940E-07  0.00000E+00  9.000E+00
      21     1     1     2   515   514  3.943030553E+00 -1.262628001E+01  1.380027368E+01  1.911590935E+01  4.460403188E-07  0.00000E+00  9.000E+00
</event>
<event>
      5  10001  3.52971E+09  8.12736E+00 -1.00000E+00  2.06773E-01
      21    -1     0     0   512   514  0.000000000E+00  0.000000000E+00  3.994821648E+01  3.994821648E+01  0.000000000E+00  0.00000E+00  9.000E+00
       2    -1     0     0   515     0  0.000000000E+00  0.000000000E+00 -1.412894121E+02  1.412894121E+02  0.000000000E+00  0.00000E+00  9.000E+00
      21     1     1     2   512   517 -1.308553635E+01 -1.249683025E+01 -1.460667799E+01  2.325418392E+01  6.951036328E-07  0.00000E+00  9.000E+00
      21     1     1     2   515   514  4.983394621E+00  1.313602841E+01  3.409718184E+01  3.687827644E+01  4.768371582E-07  0.00000E+00  9.000E+00
       2     1     1     2   517     0  8.102141727E+00 -6.391981578E-01 -1.208316995E+02  1.211051682E+02  3.300000131E-01  0.00000E+00  9.000E+00
</event>
<event>
      5  10001  3.52971E+09  4.84983E+00 -1.00000E+00  2.45189E-01
       3    -1     0     0   511     0  0.000000000E+00  0.000000000E+00  1.579134583E+01  1.579134583E+01  0.000000000E+00  0.00000E+00  9.000E+00
      -3    -1     0     0     0   511  0.000000000E+00  0.000000000E+00 -3.368545595E+01  3.368545595E+01  0.000000000E+00  0.00000E+00  9.000E+00
      -3     1     1     2     0   512  1.613429579E+01 -1.331697377E+00 -2.591695878E+01  3.056186629E+01  5.000000000E-01  0.00000E+00  9.000E+00
       3     1     1     2   513     0 -7.771641812E+00 -9.269087727E-01  6.353421436E+00  1.009324231E+01  5.000000000E-01  0.00000E+00  9.000E+00
      21     1     1     2   512   513 -8.362653980E+00  2.258606150E+00  1.669427220E+00  8.821693180E+00  1.576990671E-07  0.00000E+00  9.000E+00
</event>
<event>
      5  10001  3.52971E+09  4.24469E+00 -1.00000E+00  2.57531E-01
      21    -1     0     0   514   512  0.000000000E+00  0.000000000E+00  6.298419679E-01  6.298419679E-01  0.000000000E+00  0.00000E+00  9.000E+00
      21    -1     0     0   515   514  0.000000000E+00  0.000000000E+00 -3.895535785E+02  3.895535785E+02  0.000000000E+00  0.00000E+00  9.000E+00
      21     1     1     2   515   516  1.401283213E+01  5.470957260E+00 -2.132706294E+02  2.138004963E+02  2.697398305E-06  0.00000E+00  9.000E+00
      21     1     1     2   516   511 -1.007420513E+01 -1.122080312E+00 -1.159238896E+02  1.163662187E+02  1.348699152E-06  0.00000E+00  9.000E+00
      21     1     1     2   511   512 -3.938626994E+00 -4.348876948E+00 -5.972921754E+01  6.001670552E+01  6.743495762E-07  0.00000E+00  9.000E+00
</event>
<event>
      5  10001  3.52971E+09  4.71718E+00 -1.00000E+00  2.47654E-01
      21    -1     0     0   513   516  0.000000000E+00  0.000000000E+00  2.345541716E+02  2.345541716E+02  0.000000000E+00  0.00000E+00  9.000E+00
      21    -1     0     0   512   513  0.000000000E+00  0.000000000E+00 -8.211196049E-01  8.211196049E-01  0.000000000E+00  0.00000E+00  9.000E+00
      21     1     1     2   512   515 -2.035136975E+00 -9.531149430E+00  4.150118879E+01  4.263019192E+01  4.768371582E-07  0.00000E+00  9.000E+00
      21     1     1     2   515   514  3.563168382E+00  8.427761952E+00  1.862212016E+02  1.864458615E+02  2.697398305E-06  0.00000E+00  9.000E+00
      21     1     1     2   514   516 -1.528031407E+00  1.103387478E+00  6.010661572E+00  6.299237766E+00  1.460009660E-07  0.00000E+00  9.000E+00
</event>
<event>
      5  10001  3.52971E+09  9.81845E+00 -1.00000E+00  1.96677E-01
      21    -1     0     0   511   515  0.000000000E+00  0.000000000E+00  3.954981952E+01  3.954981952E+01  0.000000000E+00  0.00000E+00  9.000E+00
      21    -1     0     0   512   516  0.000000000E+00  0.000000000E+00 -1.585610075E+01  1.585610075E+01  0.000000000E+00  0.00000E+00  9.000E+00
      21     1     1     2   511   516 -1.765786549E+01 -2.326704614E+00 -5.923095325E+00  1.876957182E+01  3.576278687E-07  0.00000E+00  9.000E+00
      21     1     1     2   513   515  1.062022296E+01 -4.210804870E+00  2.006791762E+01  2.309201877E+01  2.384185791E-07  0.00000E+00  9.000E+00
      21     1     1     2   512   513  7.037642534E+00  6.537509484E+00  9.548896472E+00  1.354432968E+01  2.665600750E-07  0.00000E+00  9.000E+00
</event>
<event>
      5  10001  3.52971E+09  5.07702E+00 -1.00000E+00  2.37355E-01
      -1    -1     0     0     0   514  0.000000000E+00  0.000000000E+00  4.233839585E+01  4.233839585E+01  0.000000000E+00  0.00000E+00  9.000E+00
      21    -1     0     0   511   515  0.000000000E+00  0.000000000E+00 -1.030408918E+02  1.030408918E+02  0.000000000E+00  0.00000E+00  9.000E+00
      -1     1     1     2     0   513 -1.521200594E+01  5.134471988E+00  3.730247303E+01  4.061220655E+01  3.300000131E-01  0.00000E+00  9.000E+00
      21     1     1     2   511   514  1.430927604E+01 -1.013055543E+01 -1.999843378E+01  2.659550502E+01  6.743495762E-07  0.00000E+00  9.000E+00
      21     1     1     2   513   515  9.027299020E-01  4.996083439E+00 -7.800653515E+01  7.817157602E+01  9.536743164E-07  0.00000E+00  9.000E+00
</event>
<event>
      5  10001  3.52971E+09  5.16070E+00 -1.00000E+00  2.36134E-01
      21    -1     0     0   514   511  0.000000000E+00  0.000000000E+00  7.974316640E+01  7.974316640E+01  0.000000000E+00  0.00000E+00  9.000E+00
      21    -1     0     0   516   512  0.000000000E+00  0.000000000E+00 -1.782368975E+02  1.782368975E+02  0.000000000E+00  0.00000E+00  9.000E+00
      21     1     1     2   516   515 -2.411207855E+00  9.358365800E+00 -1.751087210E+02  1.753751895E+02  3.303624740E-06  0.00000E+00  9.000E+00
      21     1     1     2   515   511  5.732209186E+00 -1.330853019E+01  7.604442906E+01  7.741272756E+01  0.000000000E+00  0.00000E+00  9.000E+00
      21     1     1     2   514   512 -3.321001331E+00  3.950164394E+00  5.705608460E-01  5.192146787E+00  5.771194914E-08  0.00000E+00  9.000E+00
</event>
<event>
      5  10001  3.52971E+09  3.70765E+00 -1.00000E+00  2.71478E-01
       4    -1     0     0   514     0  0.000000000E+00  0.000000000E+00  6.052942754E+00  6.052942754E+00  0.000000000E+00  0.00000E+00  9.000E+00
      21    -1     0     0   513   511  0.000000000E+00  0.000000000E+00 -1.717319584E+02  1.717319584E+02  0.000000000E+00  0.00000E+00  9.000E+00
      21     1     1     2   514   512  1.179351076E+01 -9.826244154E+00 -6.972225561E+01  7.139212070E+01  9.536743164E-07  0.00000E+00  9.000E+00
       4     1     1     2   513     0 -1.012242902E+01  6.519044306E+00 -1.921193574E+00  1.228423757E+01  1.500000000E+00  0.00000E+00  9.000E+00
      21     1     1     2   512   511 -1.671081740E+00  3.307199848E+00 -9.403556642E+01  9.410854285E+01  1.907348633E-06  0.00000E+00  9.000E+00
</event>
<event>
      5  10001  3.52971E+09  2.41759E+00 -1.00000E+00  3.28540E-01
      -1    -1     0     0     0   515  0.000000000E+00  0.000000000E+00  1.411020293E+01  1.411020293E+01  0.000000000E+00  0.00000E+00  9.000E+00
      21    -1     0     0   514   511  0.000000000E+00  0.000000000E+00 -1.244333229E+01  1.244333229E+01  0.000000000E+00  0.00000E+00  9.000E+00
      -1     1     1     2     0   511 -2.874034048E+00  1.099873110E+01  6.816795854E+00  1.325932740E+01  3.300000131E-01  0.00000E+00  9.000E+00
      21     1     1     2   513   515  3.772330297E+00 -9.243162941E+00 -3.109051966E+00  1.045622978E+01  3.371747881E-07  0.00000E+00  9.000E+00
      21     1     1     2   514   513 -8.982962493E-01 -1.755568158E+00 -2.040873250E+00  2.837978036E+00  5.161913656E-08  0.00000E+00  9.000E+00
</event>
<event>
      5  10001  3.52971E+09  6.78861E+00 -1.00000E+00  2.17447E-01
      21    -1     0     0   512   515  0.000000000E+00  0.000000000E+00  1.774265039E+01  1.774265039E+01  0.000000000E+00  0.00000E+00  9.000E+00
      21    -1     0     0   514   512  0.000000000E+00  0.000000000E+00 -2.219184674E+02  2.219184674E+02  0.000000000E+00  0.00000E+00  9.000E+00
      21     1     1     2   513   515  1.242750493E+01 -2.954688647E+00  1.510200355E+01  1.977987804E+01  1.052827938E-06  0.00000E+00  9.000E+00
      21     1     1     2   511   513 -1.127351211E+01 -1.767190372E+00 -1.508504700E+02  1.512814573E+02  1.907348633E-06  0.00000E+00  9.000E+00
      21     1     1     2   514   511 -1.153992828E+00  4.721879019E+00 -6.842735061E+01  6.859978246E+01  0.000000000E+00  0.00000E+00  9.000E+00
</event>
<event>
      5  10001  3.52971E+09  5.30444E+00 -1.00000E+00  2.34110E-01
      21    -1     0     0   512   513  0.000000000E+00  0.000000000E+00  3.424170086E+02  3.424170086E+02  0.000000000E+00  0.00000E+00  9.000E+00
      21    -1     0     0   516   511  0.000000000E+00  0.000000000E+00 -7.147326274E+00  7.147326274E+00  0.000000000E+00  0.00000E+00  9.000E+00
      21     1     1     2   512   511  8.366780572E+00 -4.674857992E+00 -1.423267675E+00  9.689324293E+00  8.429369702E-08  0.00000E+00  9.000E+00
       1     1     1     2   516     0 -1.050265743E+01  9.530003283E+00  3.051739943E+01  3.365334075E+01  3.300000131E-01  0.00000E+00  9.000E+00
      -1     1     1     2     0   513  2.135876863E+00 -4.855145291E+00  3.061755506E+02  3.062216698E+02  3.300000131E-01  0.00000E+00  9.000E+00
</event>
<event>
      5  10001  3.52971E+09  4.82079E+00 -1.00000E+00  2.45719E-01
      21    -1     0     0   515   513  0.000000000E+00  0.000000000E+00  4.474280688E+01  4.474280688E+01  0.000000000E+00  0.00000E+00  9.000E+00
      -1    -1     0     0     0   511  0.000000000E+00  0.000000000E+00 -4.605274835E+01  4.605274835E+01  0.000000000E+00  0.00000E+00  9.000E+00
      -1     1     1     2     0   513 -1.246248328E+01  8.863390632E+00 -3.419841661E+01  3.746349933E+01  3.300000131E-01  0.00000E+00  9.000E+00
      21     1     1     2   515   514  8.257198155E+00 -6.506529202E+00  4.185324586E+01  4.315333629E+01  6.743495762E-07  0.00000E+00  9.000E+00
      21     1     1     2   514   511  4.205285126E+00 -2.356861430E+00 -8.964770729E+00  1.017871962E+01  0.000000000E+00  0.00000E+00  9.000E+00
</event>
<event>
      5  10001  3.52971E+09  7.26679E+00 -1.00000E+00  2.13278E-01
      21    -1     0     0   512   511  0.000000000E+00  0.000000000E+00  1.081954178E+01  1.081954178E+01  0.000000000E+00  0.00000E+00  9.000E+00
       2    -1     0     0   513     0  0.000000000E+00  0.000000000E+00 -2.924082218E+02  2.924082218E+02  0.000000000E+00  0.00000E+00  9.000E+00
      21     1     1     2   512   516 -1.012249306E+01 -7.459661733E+00 -1.231868066E+01  1.760287795E+01  3.371747881E-07  0.00000E+00  9.000E+00
      21     1     1     2   513   511  4.548459617E+00  1.212178175E+01  2.973585365E+00  1.328413669E+01  3.125693942E-07  0.00000E+00  9.000E+00
       2     1     1     2   516     0  5.574033445E+00 -4.662120020E+00 -2.722435847E+02  2.723407489E+02  3.300000131E-01  0.00000E+00  9.000E+00
</event>
<event>
      5  10001  3.52971E+09  4.48832E+00 -1.00000E+00  2.52207E-01
      21    -1     0     0   514   513  0.000000000E+00  0.000000000E+00  2.764120194E+01  2.764120194E+01  0.000000000E+00  0.00000E+00  9.000E+00
      21    -1     0     0   515   511  0.000000000E+00  0.000000000E+00 -3.989502346E+02  3.989502346E+02  0.000000000E+00  0.00000E+00  9.000E+00
      21     1     1     2   515   517  8.047352910E+00 -1.971512253E+00 -5.178678790E+00  9.770642939E+00  5.960464478E-08  0.00000E+00  9.000E+00
      21     1     1     2   517   513 -1.250531459E+01  2.492676998E+00  2.372766773E+01  2.693693649E+01  6.743495762E-07  0.00000E+00  9.000E+00
      21     1     1     2   514   511  4.457961675E+00 -5.211647443E-01 -3.898580216E+02  3.898838571E+02  7.629394531E-06  0.00000E+00  9.000E+00
</event>
<event>
      5  10001  3.52971E+09  1.34616E+01 -1.00000E+00  1.81924E-01
      21    -1     0     0   516   513  0.000000000E+00  0.000000000E+00  6.489338188E+01  6.489338188E+01  0.000000000E+00  0.00000E+00  9.000E+00
       2    -1     0     0   513     0  0.000000000E+00  0.000000000E+00 -2.139625178E+01  2.139625178E+01  0.000000000E+00  0.00000E+00  9.000E+00
      21     1     1     2   516   512 -1.141107419E+01  5.810229033E+00  5.822259058E+01  5.961410429E+01  6.743495762E-07  0.00000E+00  9.000E+00
       2     1     1     2   515     0  1.070898811E+01  4.092005113E+00 -1.149020347E+01  1.623454983E+01  3.300000131E-01  0.00000E+00  9.000E+00
      21     1     1     2   512   515  7.020860820E-01 -9.902234146E+00 -3.235257017E+00  1.044097955E+01  2.269677253E-07  0.00000E+00  9.000E+00
</event>
<event>
      5  10001  3.52971E+09  5.94149E+00 -1.00000E+00  2.26128E-01
       2    -1     0     0   512     0  0.000000000E+00  0.000000000E+00  6.031181525E+01  6.031181525E+01  0.000000000E+00  0.00000E+00  9.000E+00
      21    -1     0     0   513   514  0.000000000E+00  0.000000000E+00 -3.365324850E+01  3.365324850E+01  0.000000000E+00  0.00000E+00  9.000E+00
      21     1     1     2   512   514  9.111738021E-02 -1.021786245E+01 -2.890249742E+01  3.065562546E+01  6.743495762E-07  0.00000E+00  9.000E+00
       2     1     1     2   511     0 -5.959399994E+00  9.288562971E+00  5.625446566E+01  5.732770410E+01  3.300000131E-01  0.00000E+00  9.000E+00
      21     1     1     2   513   511  5.868282614E+00  9.292994809E-01 -6.934014888E-01  5.981734195E+00  8.363255978E-08  0.00000E+00  9.000E+00
</event>
<event>
      5  10001  3.52971E+09  4.52429E+00 -1.00000E+00  2.51464E-01
      21    -1     0     0   515   511  0.000000000E+00  0.000000000E+00  1.656669078E+00  1.656669078E+00  0.000000000E+00  0.00000E+00  9.000E+00
      21    -1     0     0   513   516  0.000000000E+00  0.000000000E+00 -1.840175950E+02  1.840175950E+02  0.000000000E+00  0.00000E+00  9.000E+00
      21     1     1     2   515   516  6.711419591E+00 -7.728818864E+00 -1.620195789E+01  1.916458279E+01  2.384185791E-07  0.00000E+00  9.000E+00
       3     1     1     2   513     0 -1.421661453E+00  3.895406494E+00 -5.551781908E+01  5.567471193E+01  5.000000000E-01  0.00000E+00  9.000E+00
      -3     1     1     2     0   511 -5.289758138E+00  3.833412370E+00 -1.106411489E+02  1.108349693E+02  5.000000000E-01  0.00000E+00  9.000E+00
</event>
<event>
      5  10001  3.52971E+09  8.57290E+00 -1.00000E+00  2.03814E-01
      21    -1     0     0   512   513  0.000000000E+00  0.000000000E+00  1.399160814E+01  1.399160814E+01  0.000000000E+00  0.00000E+00  9.000E+00
      21    -1     0     0   514   511  0.000000000E+00  0.000000000E+00 -4.347572506E+02  4.347572506E+02  0.000000000E+00  0.00000E+00  9.000E+00
      21     1     1     2   512   511 -1.283074645E+01  3.349224298E+00 -4.180233594E+02  4.182336361E+02  7.629394531E-06  0.00000E+00  9.000E+00
      21     1     1     2   514   515  7.359605134E+00 -7.573334253E+00  1.092806739E+01  1.519677059E+01  2.559531993E-06  0.00000E+00  9.000E+00
      21     1     1     2   515   513  5.471141317E+00  4.224109954E+00 -1.367035043E+01  1.531845205E+01  2.920019320E-07  0.00000E+00  9.000E+00
</event>
<event>
      5  10001  3.52971E+09  1.23110E+01 -1.00000E+00  1.85863E-01
      21    -1     0     0   516   511  0.000000000E+00  0.000000000E+00  4.494297941E+00  4.494297941E+00  0.000000000E+00  0.00000E+00  9.000E+00
      21    -1     0     0   517   513  0.000000000E+00  0.000000000E+00 -4.344544124E+01  4.344544124E+01  0.000000000E+00  0.00000E+00  9.000E+00
      21     1     1     2   516   513 -1.111127722E+01  9.709811039E-01 -1.423889030E+01  1.808726852E+01  0.000000000E+00  0.00000E+00  9.000E+00
      21     1     1     2   512   511  5.801532089E+00  3.840754561E+00 -2.024779365E+01  2.140986497E+01  4.129530925E-07  0.00000E+00  9.000E+00
      21     1     1     2   517   512  5.309745132E+00 -4.811735665E+00 -4.464459348E+00  8.442605685E+00  1.685873940E-07  0.00000E+00  9.000E+00
</event>
<event>
      5  10001  3.52971E+09  5.90802E+00 -1.00000E+00  2.26513E-01
      -3    -1     0     0     0   514  0.000000000E+00  0.000000000E+00  3.315566961E+01  3.315566961E+01  0.000000000E+00  0.00000E+00  9.000E+00
      21    -1     0     0   513   515  0.000000000E+00  0.000000000E+00 -1.010552078E+01  1.010552078E+01  0.000000000E+00  0.00000E+00  9.000E+00
      -3     1     1     2     0   511  1.106240617E+01 -4.799930265E-01  2.334907880E+01  2.584640603E+01  5.000000000E-01  0.00000E+00  9.000E+00
      21     1     1     2   511   515 -9.842589628E+00 -5.299428702E+00  1.406632902E+00  1.126672673E+01  2.885597457E-07  0.00000E+00  9.000E+00
      21     1     1     2   513   514 -1.219816545E+00  5.779421728E+00 -1.705562868E+00  6.148057630E+00  3.650024150E-08  0.00000E+00  9.000E+00
</event>
<event>
      5  10001  3.52971E+09  2.50315E+01 -1.00000E+00  1.58707E-01
      -2    -1     0     0     0   512  0.000000000E+00  0.000000000E+00  1.492324014E+02  1.492324014E+02  0.000000000E+00  0.00000E+00  9.000E+00
      21    -1     0     0   514   515  0.000000000E+00  0.000000000E+00 -3.613778448E+00  3.613778448E+00  0.000000000E+00  0.00000E+00  9.000E+00
      21     1     1     2   511   515 -7.519338056E+00  3.642131342E+00  1.532616338E+01  1.745556786E+01  2.920019320E-07  0.00000E+00  9.000E+00
      21     1     1     2   514   512  1.400601095E+01 -7.534358662E+00  2.377251356E+01  2.860187588E+01  4.768371582E-07  0.00000E+00  9.000E+00
      -2     1     1     2     0   511 -6.486672896E+00  3.892227320E+00  1.065199460E+02  1.067887361E+02  3.300000131E-01  0.00000E+00  9.000E+00
</event>
<event>
      5  10001  3.52971E+09  1.05741E+01 -1.00000E+00  1.92991E-01
      21    -1     0     0   513   511  0.000000000E+00  0.000000000E+00  5.073726883E+01  5.073726883E+01  0.000000000E+00  0.00000E+00  9.000E+00
      21    -1     0     0   516   513  0.000000000E+00  0.000000000E+00 -9.120665984E+00  9.120665984E+00  0.000000000E+00  0.00000E+00  9.000E+00
      21     1     1     2   514   511  9.378670812E+00  3.340718795E+00  4.683351502E+01  4.788003757E+01  0.000000000E+00  0.00000E+00  9.000E+00
      21     1     1     2   516   512 -1.661863188E+00  8.621923105E-01 -2.631517418E-01  1.890611984E+00  5.783205739E-08  0.00000E+00  9.000E+00
      21     1     1     2   512   514 -7.716807625E+00 -4.202911105E+00 -4.953760429E+00  1.008728527E+01  3.674277069E-07  0.00000E+00  9.000E+00
</event>
<event>
      5  10001  3.52971E+09  7.82852E+00 -1.00000E+00  2.08903E-01
       1    -1     0     0   515     0  0.000000000E+00  0.000000000E+00  5.801294227E+02  5.801294227E+02  0.000000000E+00  0.00000E+00  9.000E+00
      21    -1     0     0   512   513  0.000000000E+00  0.000000000E+00 -7.851368666E-01  7.851368666E-01  0.000000000E+00  0.00000E+00  9.000E+00
      21     1     1     2   515   511  9.253918560E+00  4.215847974E+00  6.389441850E+01  6.469857107E+01  2.023048729E-06  0.00000E+00  9.000E+00
       1     1     1     2   512     0 -8.242344712E+00 -7.079152997E+00  5.086810785E+02  5.087972083E+02  3.300000131E-01  0.00000E+00  9.000E+00
      21     1     1     2   511   513 -1.011573847E+00  2.863305023E+00  6.768788831E+00  7.418780192E+00  2.795705652E-07  0.00000E+00  9.000E+00
</event>
<event>
      5  10001  3.52971E+09  6.91966E+00 -1.00000E+00  2.16259E-01
      21    -1     0     0   512   514  0.000000000E+00  0.000000000E+00  1.981149189E+02  1.981149189E+02  0.000000000E+00  0.00000E+00  9.000E+00
      21    -1     0     0   515   513  0.000000000E+00  0.000000000E+00 -4.039319988E+02  4.039319988E+02  0.000000000E+00  0.00000E+00  9.000E+00
      -3     1     1     2     0   513  1.598336121E+01  7.019428875E+00  1.037183335E+02  1.051783386E+02  5.000000000E-01  0.00000E+00  9.000E+00
      21     1     1     2   515   514 -1.385221937E+01 -4.361480175E-01 -4.029542370E+02  4.031924991E+02  5.394796609E-06  0.00000E+00  9.000E+00
       3     1     1     2   512     0 -2.131141841E+00 -6.583280857E+00  9.341882357E+01  9.367607992E+01  5.000000000E-01  0.00000E+00  9.000E+00
</event>
<event>
      5  10001  3.52971E+09  1.11990E+01 -1.00000E+00  1.90234E-01
      21    -1     0     0   511   514  0.000000000E+00  0.000000000E+00  2.662710854E+02  2.662710854E+02  0.000000000E+00  0.00000E+00  9.000E+00
      21    -1     0     0   516   511  0.000000000E+00  0.000000000E+00 -1.443190998E+00  1.443190998E+00  0.000000000E+00  0.00000E+00  9.000E+00
      21     1     1     2   515   514 -3.719935385E+00  8.803274338E+00  1.833603906E+02  1.836092819E+02  2.697398305E-06  0.00000E+00  9.000E+00
      21     1     1     2   516   513  6.046015477E-01 -1.420447714E+01  4.798684878E+01  5.004868000E+01  1.168007728E-06  0.00000E+00  9.000E+00
      21     1     1     2   513   515  3.115333837E+00  5.401202799E+00  3.348065499E+01  3.405631447E+01  6.743495762E-07  0.00000E+00  9.000E+00
</event>
<event>
      5  10001  3.52971E+09  4.04435E+00 -1.00000E+00  2.62338E-01
      21    -1     0     0   512   511  0.000000000E+00  0.000000000E+00  1.083472086E+03  1.083472086E+03  0.000000000E+00  0.00000E+00  9.000E+00
      21    -1     0     0   514   515  0.000000000E+00  0.000000000E+00 -2.476225268E+00  2.476225268E+00  0.000000000E+00  0.00000E+00  9.000E+00
      21     1     1     2   512   515  1.936645596E+00  1.264131557E+01  6.279893888E+01  6.408790978E+01  1.507891493E-06  0.00000E+00  9.000E+00
      21     1     1     2   514   516 -5.798468586E+00 -1.144001651E+01  2.067353209E+01  2.432881306E+01  4.768371582E-07  0.00000E+00  9.000E+00
      21     1     1     2   516   511  3.861822991E+00 -1.201299061E+00  9.975233902E+02  9.975315889E+02  1.078959322E-05  0.00000E+00  9.000E+00
</event>
<event>
      5  10001  3.52971E+09  1.41975E+01 -1.00000E+00  1.79659E-01
      21    -1     0     0   513   514  0.000000000E+00  0.000000000E+00  5.029071946E+01  5.029071946E+01  0.000000000E+00  0.00000E+00  9.000E+00
      21    -1     0     0   517   511  0.000000000E+00  0.000000000E+00 -6.905268805E+01  6.905268805E+01  0.000000000E+00  0.00000E+00  9.000E+00
      21     1     1     2   513   511 -4.843428191E+00  9.843640090E+00 -6.167963913E+01  6.264769692E+01  6.743495762E-07  0.00000E+00  9.000E+00
      21     1     1     2   517   512  1.369073263E+01 -8.883203401E+00  4.472953957E+01  4.761385484E+01  1.261592536E-06  0.00000E+00  9.000E+00
      21     1     1     2   512   514 -8.847304435E+00 -9.604366898E-01 -1.811869027E+00  9.081855745E+00  1.562846971E-07  0.00000E+00  9.000E+00
</event>
<event>
      5  10001  3.52971E+09  6.05606E+01 -1.00000E+00  1.34486E-01
      21    -1     0     0   512   514  0.000000000E+00  0.000000000E+00  2.819349515E+01  2.819349515E+01  0.000000000E+00  0.00000E+00  9.000E+00
       2    -1     0     0   515     0  0.000000000E+00  0.000000000E+00 -4.061376766E+01  4.061376766E+01  0.000000000E+00  0.00000E+00  9.000E+00
      21     1     1     2   515   511 -3.169047228E+00 -3.610663320E+00 -6.221683282E+00  7.860603845E+00  0.000000000E+00  0.00000E+00  9.000E+00
       2     1     1     2   512     0  9.098161139E+00 -3.839458362E+00 -3.197557595E+01  3.346736222E+01  3.300000131E-01  0.00000E+00  9.000E+00
      21     1     1     2   511   514 -5.929113911E+00  7.450121683E+00  2.577698672E+01  2.747929674E+01  7.539457465E-07  0.00000E+00  9.000E+00
</event>
<event>
      5  10001  3.52971E+09  8.00909E+00 -1.00000E+00  2.07601E-01
      -1    -1     0     0     0   513  0.000000000E+00  0.000000000E+00  1.931940525E+01  1.931940525E+01  0.000000000E+00  0.00000E+00  9.000E+00
      21    -1     0     0   513   514  0.000000000E+00  0.000000000E+00 -1.254790484E+01  1.254790484E+01  0.000000000E+00  0.00000E+00  9.000E+00
      -1     1     1     2     0   512  3.375700151E+00 -1.032921051E+01  5.638916071E+00  1.224721257E+01  3.300000131E-01  0.00000E+00  9.000E+00
      21     1     1     2   515   514 -2.773054793E+00  1.319199901E+01  5.336705767E+00  1.449824469E+01  3.097148194E-07  0.00000E+00  9.000E+00
      21     1     1     2   512   515 -6.026453571E-01 -2.862788496E+00 -4.204121426E+00  5.121852825E+00  1.576990671E-07  0.00000E+00  9.000E+00
</event>
<event>
      5  10001  3.52971E+09  4.63289E+00 -1.00000E+00  2.49284E-01
      21    -1     0     0   511   513  0.000000000E+00  0.000000000E+00  3.978785314E+01  3.978785314E+01  0.000000000E+00  0.00000E+00  9.000E+00
      21    -1     0     0   512   516  0.000000000E+00  0.000000000E+00 -4.636157389E+01  4.636157389E+01  0.000000000E+00  0.00000E+00  9.000E+00
      21     1     1     2   511   516  7.484315120E+00 -8.720692145E+00 -4.476578688E+01  4.621732488E+01  9.536743164E-07  0.00000E+00  9.000E+00
      21     1     1     2   512   514 -8.496386974E-01  1.967316333E+00  5.725386992E+00  6.113286814E+00  1.192092896E-07  0.00000E+00  9.000E+00
      21     1     1     2   514   513 -6.634676423E+00  6.753375812E+00  3.246667914E+01  3.381881533E+01  1.066240300E-06  0.00000E+00  9.000E+00
</event>
<event>
      5  10001  3.52971E+09  5.08328E+00 -1.00000E+00  2.37263E-01
      21    -1     0     0   515   512  0.000000000E+00  0.000000000E+00  1.791487638E+01  1.791487638E+01  0.000000000E+00  0.00000E+00  9.000E+00
      21    -1     0     0   517   511  0.000000000E+00  0.000000000E+00 -1.242161019E+01  1.242161019E+01  0.000000000E+00  0.00000E+00  9.000E+00
      21     1     1     2   515   513 -7.799066060E-01 -1.269010888E+01  1.007310961E+01  1.622080932E+01  1.192092896E-07  0.00000E+00  9.000E+00
      21     1     1     2   517   512  1.515117993E+00  7.660282705E+00 -4.539367977E+00  9.032240878E+00  1.576990671E-07  0.00000E+00  9.000E+00
      21     1     1     2   513   511 -7.352113873E-01  5.029826178E+00 -4.047543878E-02  5.083436379E+00  1.636015959E-07  0.00000E+00  9.000E+00
</event>
<event>
      5  10001  3.52971E+09  6.24387E+00 -1.00000E+00  2.22812E-01
      21    -1     0     0   514   511  0.000000000E+00  0.000000000E+00  5.781769661E+01  5.781769661E+01  0.000000000E+00  0.00000E+00  9.000E+00
      21    -1     0     0   513   516  0.000000000E+00  0.000000000E+00 -2.796681378E+02  2.796681378E+02  0.000000000E+00  0.00000E+00  9.000E+00
      21     1     1     2   514   516  6.214709092E+00 -8.175069008E+00  5.722540994E+01  5.813950383E+01  0.000000000E+00  0.00000E+00  9.000E+00
      21     1     1     2   512   511 -2.005967450E+00  7.489946965E+00 -1.502718166E+02  1.504717319E+02  1.907348633E-06  0.00000E+00  9.000E+00
      21     1     1     2   513   512 -4.208741641E+00  6.851220427E-01 -1.288040345E+02  1.288745987E+02  0.000000000E+00  0.00000E+00  9.000E+00
</event>
<event>
      5  10001  3.52971E+09  9.26889E+00 -1.00000E+00  1.99643E-01
      21    -1     0     0   515   512  0.000000000E+00  0.000000000E+00  6.190780950E-01  6.190780950E-01  0.000000000E+00  0.00000E+00  9.000E+00
      21    -1     0     0   513   517  0.000000000E+00  0.000000000E+00 -6.338819396E+02  6.338819396E+02  0.000000000E+00  0.00000E+00  9.000E+00
      21     1     1     2   515   517  9.700469078E+00 -1.241532819E+01 -4.670024854E+02  4.672681894E+02  5.394796609E-06  0.00000E+00  9.000E+00
      21     1     1     2   513   511 -1.605576214E+00  5.315952973E+00 -2.748361510E+01  2.803901442E+01  5.840038640E-07  0.00000E+00  9.000E+00
      21     1     1     2   511   512 -8.094892865E+00  7.099375212E+00 -1.387767611E+02  1.391938139E+02  0.000000000E+00  0.00000E+00  9.000E+00
</event>
<event>
      5  10001  3.52971E+09  3.29792E+00 -1.00000E+00  2.84914E-01
      21    -1     0     0   515   513  0.000000000E+00  0.000000000E+00  1.423430528E+01  1.423430528E+01  0.000000000E+00  0.00000E+00  9.000E+00
      21    -1     0     0   516   512  0.000000000E+00  0.000000000E+00 -2.014900958E+01  2.014900958E+01  0.000000000E+00  0.00000E+00  9.000E+00
      21     1     1     2   514   512 -1.539023495E+00 -1.417888931E+01 -5.590254279E+00  1.531863043E+01  1.460009660E-07  0.00000E+00  9.000E+00
      21     1     1     2   516   513  1.804881530E-01  1.117378273E+01 -5.862061996E+00  1.261942025E+01  2.384185791E-07  0.00000E+00  9.000E+00
      21     1     1     2   515   514  1.358535342E+00  3.005106579E+00  5.537611974E+00  6.445264168E+00  1.032382731E-07  0.00000E+00  9.000E+00
</event>
<event>
      5  10001  3.52971E+09  9.56108E+00 -1.00000E+00  1.98033E-01
      21    -1     0     0   511   512  0.000000000E+00  0.000000000E+00  2.946524149E+02  2.946524149E+02  0.000000000E+00  0.00000E+00  9.000E+00
      21    -1     0     0   517   514  0.000000000E+00  0.000000000E+00 -7.980751815E+00  7.980751815E+00  0.000000000E+00  0.00000E+00  9.000E+00
      21     1     1     2   511   514 -6.826391854E+00 -7.796198367E+00  2.888011589E+02  2.889870062E+02  5.394796609E-06  0.00000E+00  9.000E+00
      21     1     1     2   517   513  5.186188309E+00 -2.204550367E-01 -1.660555642E+00  5.450008682E+00  2.889442359E-07  0.00000E+00  9.000E+00
      21     1     1     2   513   512  1.640203546E+00  8.016653403E+00 -4.689402619E-01  8.196151806E+00  4.342800206E-07  0.00000E+00  9.000E+00
</event>
<event>
      5  10001  3.52971E+09  9.35059E+00 -1.00000E+00  1.99185E-01
      -2    -1     0     0     0   512  0.000000000E+00  0.000000000E+00  8.202442024E+00  8.202442024E+00  0.000000000E+00  0.00000E+00  9.000E+00
      21    -1     0     0   511   513  0.000000000E+00  0.000000000E+00 -3.139469089E+01  3.139469089E+01  0.000000000E+00  0.00000E+00  9.000E+00
      -2     1     1     2     0   513  9.689544343E+00 -7.260215665E-01  3.227469779E+00  1.024401474E+01  3.300000131E-01  0.00000E+00  9.000E+00
      21     1     1     2   514   512 -2.854876721E+00  4.148278488E+00 -1.243270904E+01  1.341382830E+01  2.920019320E-07  0.00000E+00  9.000E+00
      21     1     1     2   511   514 -6.834667623E+00 -3.422256921E+00 -1.398700960E+01  1.593928987E+01  1.685873940E-07  0.00000E+00  9.000E+00
</event>
<event>
      5  10001  3.52971E+09  5.14979E+00 -1.00000E+00  2.36291E-01
      21    -1     0     0   515   513  0.000000000E+00  0.000000000E+00  1.040117970E+02  1.040117970E+02  0.000000000E+00  0.00000E+00  9.000E+00
      21    -1     0     0   511   516  0.000000000E+00  0.000000000E+00 -1.365398880E+01  1.365398880E+01  0.000000000E+00  0.00000E+00  9.000E+00
      21     1     1     2   515   516 -1.177485117E+01 -2.132590442E+00  9.980618110E+01  1.005209871E+02  0.000000000E+00  0.00000E+00  9.000E+00
      21     1     1     2   511   512  5.234818600E+00  9.121958876E-02 -8.830293203E+00  1.026575496E+01  3.953724850E-07  0.00000E+00  9.000E+00
      21     1     1     2   512   513  6.540032569E+00  2.041370853E+00 -6.180796564E-01  6.879043787E+00  6.365778852E-08  0.00000E+00  9.000E+00
</event>
<event>
      5  10001  3.52971E+09  1.88537E+01 -1.00000E+00  1.68509E-01
      21    -1     0     0   514   511  0.000000000E+00  0.000000000E+00  1.653713012E+02  1.653713012E+02  0.000000000E+00  0.00000E+00  9.000E+00
      21    -1     0     0   515   513  0.000000000E+00  0.000000000E+00 -4.343947375E+01  4.343947375E+01  0.000000000E+00  0.00000E+00  9.000E+00
      21     1     1     2   514   513 -1.148049770E+01 -7.174358633E+00  3.851658385E+01  4.082646790E+01  0.000000000E+00  0.00000E+00  9.000E+00
      21     1     1     2   517   511  1.594453901E+01 -1.114323310E+01  1.227937906E+02  1.243250376E+02  1.907348633E-06  0.00000E+00  9.000E+00
      21     1     1     2   515   517 -4.464041313E+00  1.831759174E+01 -3.937854707E+01  4.365926937E+01  6.743495762E-07  0.00000E+00  9.000E+00
</event>
<event>
      5  10001  3.52971E+09  8.51764E+00 -1.00000E+00  2.04168E-01
      21    -1     0     0   515   511  0.000000000E+00  0.000000000E+00  1.531870752E+00  1.531870752E+00  0.000000000E+00  0.00000E+00  9.000E+00
       2    -1     0     0   511     0  0.000000000E+00  0.000000000E+00 -2.375659175E+02  2.375659175E+02  0.000000000E+00  0.00000E+00  9.000E+00
      21     1     1     2   515   512 -1.203688054E+01 -6.223652327E+00 -3.729955794E+01  3.968472457E+01  4.768371582E-07  0.00000E+00  9.000E+00
      21     1     1     2   512   513  9.805472119E+00  4.506999480E-01 -9.874902978E+01  9.923568560E+01  2.336015456E-06  0.00000E+00  9.000E+00
       2     1     1     2   513     0  2.231408424E+00  5.772952379E+00 -9.998545908E+01  1.001773781E+02  3.300000131E-01  0.00000E+00  9.000E+00
</event>
<event>
      5  10001  3.52971E+09  4.92058E+00 -1.00000E+00  2.43923E-01
       1    -1     0     0   512     0  0.000000000E+00  0.000000000E+00  6.617946938E+02  6.617946938E+02  0.000000000E+00  0.00000E+00  9.000E+00
      21    -1     0     0   513   514  0.000000000E+00  0.000000000E+00 -4.059709961E-01  4.059709961E-01  0.000000000E+00  0.00000E+00  9.000E+00
      21     1     1     2   511   514 -4.466441487E+00  6.237958675E+00  6.947061514E+01  6.989297244E+01  0.000000000E+00  0.00000E+00  9.000E+00
       1     1     1     2   513     0  1.059747994E+01 -7.095998083E+00  5.085641833E+02  5.087241858E+02  3.300000131E-01  0.00000E+00  9.000E+00
      21     1     1     2   512   511 -6.131038449E+00  8.580394080E-01  8.335392433E+01  8.358350654E+01  2.132480600E-06  0.00000E+00  9.000E+00
</event>
<event>
      5  10001  3.52971E+09  7.62420E+00 -1.00000E+00  2.10435E-01
      21    -1     0     0   515   513  0.000000000E+00  0.000000000E+00  1.103499921E+02  1.103499921E+02  0.000000000E+00  0.00000E+00  9.000E+00
      21    -1     0     0   516   511  0.000000000E+00  0.000000000E+00 -2.401067364E+01  2.401067364E+01  0.000000000E+00  0.00000E+00  9.000E+00
      21     1     1     2   515   511 -1.978743188E+00 -1.017627486E+01  1.033310583E+02  1.038497935E+02  0.000000000E+00  0.00000E+00  9.000E+00
      21     1     1     2   516   514  2.083076791E-01  5.231535668E+00 -2.238123760E+01  2.298547703E+01  8.920806376E-07  0.00000E+00  9.000E+00
      21     1     1     2   514   513  1.770435509E+00  4.944739192E+00  5.389497783E+00  7.525395267E+00  8.429369702E-08  0.00000E+00  9.000E+00
</event>
<event>
      5  10001  3.52971E+09  4.71816E+00 -1.00000E+00  2.47635E-01
      21    -1     0     0   512   511  0.000000000E+00  0.000000000E+00  2.989827080E+02  2.989827080E+02  0.000000000E+00  0.00000E+00  9.000E+00
      21    -1     0     0   513   515  0.000000000E+00  0.000000000E+00 -2.068623672E+00  2.068623672E+00  0.000000000E+00  0.00000E+00  9.000E+00
      21     1     1     2   513   517  1.094763711E+01 -3.265655105E+00  5.999922364E+01  6.107718149E+01  1.348699152E-06  0.00000E+00  9.000E+00
      21     1     1     2   517   511 -7.903078871E+00  6.870057268E+00  2.343882722E+02  2.346220758E+02  4.672030912E-06  0.00000E+00  9.000E+00
      21     1     1     2   512   515 -3.044558244E+00 -3.604402163E+00  2.526588465E+00  5.352074282E+00  2.580956828E-07  0.00000E+00  9.000E+00
</event>
<event>
      5  10001  3.52971E+09  7.61889E+00 -1.00000E+00  2.10476E-01
      21    -1     0     0   516   511  0.000000000E+00  0.000000000E+00  9.475000345E+01  9.475000345E+01  0.000000000E+00  0.00000E+00  9.000E+00
       1    -1     0     0   513     0  0.000000000E+00  0.000000000E+00 -9.321110172E+02  9.321110172E+02  0.000000000E+00  0.00000E+00  9.000E+00
      21     1     1     2   516   514 -9.169690117E+00 -5.267162088E+00  9.432030318E+01  9.491125226E+01  1.348699152E-06  0.00000E+00  9.000E+00
       1     1     1     2   514     0  6.646468779E+00  1.245610029E+01 -7.022436719E+02  7.023856588E+02  3.300000131E-01  0.00000E+00  9.000E+00
      21     1     1     2   513   511  2.523221338E+00 -7.188938202E+00 -2.294376450E+02  2.295641096E+02  3.814697266E-06  0.00000E+00  9.000E+00
</event>
<event>
      5  10001  3.52971E+09  1.08102E+01 -1.00000E+00  1.91921E-01
      21    -1     0     0   512   514  0.000000000E+00  0.000000000E+00  1.122459198E+01  1.122459198E+01  0.000000000E+00  0.00000E+00  9.000E+00
      21    -1     0     0   513   511  0.000000000E+00  0.000000000E+00 -1.494760216E+01  1.494760216E+01  0.000000000E+00  0.00000E+00  9.000E+00
      21     1     1     2   512   511  6.448748819E+00 -6.775148556E+00  4.717773945E+00  1.047599114E+01  3.264680848E-07  0.00000E+00  9.000E+00
      21     1     1     2   513   515 -6.078516686E+00  1.541321900E+00 -6.516108978E-01  6.304651859E+00  7.670842216E-08  0.00000E+00  9.000E+00
      21     1     1     2   515   514 -3.702321331E-01  5.233826656E+00 -7.789173232E+00  9.391551147E+00  1.884864366E-07  0.00000E+00  9.000E+00
</event>
<event>
      5  10001  3.52971E+09  9.09598E+00 -1.00000E+00  2.00633E-01
      21    -1     0     0   516   511  0.000000000E+00  0.000000000E+00  3.889960747E+02  3.889960747E+02  0.000000000E+00  0.00000E+00  9.000E+00
      21    -1     0     0   514   516  0.000000000E+00  0.000000000E+00 -1.180282204E+03  1.180282204E+03  0.000000000E+00  0.00000E+00  9.000E+00
      21     1     1     2   513   515  1.854011902E+01  2.490268568E-01 -6.543348865E+00  1.966248820E+01  1.638856779E-06  0.00000E+00  9.000E+00
      21     1     1     2   514   513 -1.445606328E+01  7.878540553E+00 -1.167067133E+03  1.167183251E+03  1.525878906E-05  0.00000E+00  9.000E+00
      21     1     1     2   515   511 -4.084055741E+00 -8.127567410E+00  3.823243524E+02  3.824325395E+02  5.394796609E-06  0.00000E+00  9.000E+00
</event>
<event>
      5  10001  3.52971E+09  2.37043E+01 -1.00000E+00  1.60499E-01
      21    -1     0     0   512   514  0.000000000E+00  0.000000000E+00  1.361036274E+02  1.361036274E+02  0.000000000E+00  0.00000E+00  9.000E+00
      21    -1     0     0   513   511  0.000000000E+00  0.000000000E+00 -2.655159859E+01  2.655159859E+01  0.000000000E+00  0.00000E+00  9.000E+00
      21     1     1     2   512   511 -1.237167617E+01  5.979019874E+00 -2.572843163E+00  1.397950542E+01  5.885487097E-07  0.00000E+00  9.000E+00
      21     1     1     2   515   514 -2.022526857E+00 -2.481257363E+01  1.208719451E+02  1.234090010E+02  1.348699152E-06  0.00000E+00  9.000E+00
      21     1     1     2   513   515  1.439420303E+01  1.883355376E+01 -8.747073121E+00  2.526671953E+01  6.078504936E-07  0.00000E+00  9.000E+00
</event>
<event>
      5  10001  3.52971E+09  5.18147E+00 -1.00000E+00  2.35836E-01
      21    -1     0     0   512   511  0.000000000E+00  0.000000000E+00  6.785607947E+00  6.785607947E+00  0.000000000E+00  0.00000E+00  9.000E+00
      21    -1     0     0   513   517  0.000000000E+00  0.000000000E+00 -2.052846197E+02  2.052846197E+02  0.000000000E+00  0.00000E+00  9.000E+00
      21     1     1     2   516   517 -1.583856152E+00  1.227682320E+01 -1.910554190E+02  1.914560057E+02  2.697398305E-06  0.00000E+00  9.000E+00
      21     1     1     2   513   511 -3.424467622E+00 -1.360508762E+01 -5.103977356E+00  1.492903120E+01  7.372687386E-07  0.00000E+00  9.000E+00
      21     1     1     2   512   516  5.008323774E+00  1.328264423E+00 -2.339615352E+00  5.685190709E+00  1.228781231E-07  0.00000E+00  9.000E+00
</event>
<event>
      5  10001  3.52971E+09  1.58957E+01 -1.00000E+00  1.75039E-01
      21    -1     0     0   514   513  0.000000000E+00  0.000000000E+00  8.605921534E+00  8.605921534E+00  0.000000000E+00  0.00000E+00  9.000E+00
      21    -1     0     0   516   515  0.000000000E+00  0.000000000E+00 -6.368645148E+01  6.368645148E+01  0.000000000E+00  0.00000E+00  9.000E+00
      21     1     1     2   514   515  1.948519932E+01 -5.457197276E+00 -2.874147481E+01  3.515005503E+01  6.743495762E-07  0.00000E+00  9.000E+00
      21     1     1     2   516   511 -8.104425425E+00  7.936420192E+00 -4.143723243E+00  1.207637857E+01  2.980232239E-07  0.00000E+00  9.000E+00
      21     1     1     2   511   513 -1.138077390E+01 -2.479222916E+00 -2.219533189E+01  2.506593941E+01  4.129530925E-07  0.00000E+00  9.000E+00
</event>
<event>
      5  10001  3.52971E+09  6.13894E+00 -1.00000E+00  2.23933E-01
       3    -1     0     0   512     0  0.000000000E+00  0.000000000E+00  1.743508887E+01  1.743508887E+01  0.000000000E+00  0.00000E+00  9.000E+00
       2    -1     0     0   513     0  0.000000000E+00  0.000000000E+00 -5.909669345E+02  5.909669345E+02  0.000000000E+00  0.00000E+00  9.000E+00
      21     1     1     2   512   511 -2.225126597E+01 -7.796113240E+00 -6.026897925E+01  6.471667543E+01  1.348699152E-06  0.00000E+00  9.000E+00
       2     1     1     2   511     0  1.632409105E+01  9.394358519E+00 -5.276755983E+02  5.280117194E+02  3.300000131E-01  0.00000E+00  9.000E+00
       3     1     1     2   513     0  5.927174918E+00 -1.598245279E+00  1.441273190E+01  1.567362853E+01  5.000000000E-01  0.00000E+00  9.000E+00
</event>
<event>
      5  10001  3.52971E+09  4.75483E+00 -1.00000E+00  2.46942E-01
      21    -1     0     0   514   511  0.000000000E+00  0.000000000E+00  2.751721287E+00  2.751721287E+00  0.000000000E+00  0.00000E+00  9.000E+00
      21    -1     0     0   513   514  0.000000000E+00  0.000000000E+00 -2.408654937E+02  2.408654937E+02  0.000000000E+00  0.00000E+00  9.000E+00
      21     1     1     2   513   515 -2.790484668E+00  1.213976872E+01 -2.138143137E+02  2.141768464E+02  3.814697266E-06  0.00000E+00  9.000E+00
      21     1     1     2   515   512  4.126391734E-01 -1.373035521E+01 -1.948911532E+01  2.384362685E+01  1.039242493E-06  0.00000E+00  9.000E+00
      21     1     1     2   512   511  2.377845494E+00  1.590586486E+00 -4.810343380E+00  5.596741730E+00  2.308477966E-07  0.00000E+00  9.000E+00
</event>
<event>
      5  10001  3.52971E+09  3.63491E+00 -1.00000E+00  2.73656E-01
       3    -1     0     0   515     0  0.000000000E+00  0.000000000E+00  5.688620346E+01  5.688620346E+01  0.000000000E+00  0.00000E+00  9.000E+00
      21    -1     0     0   512   514  0.000000000E+00  0.000000000E+00 -8.043292698E+00  8.043292698E+00  0.000000000E+00  0.00000E+00  9.000E+00
      21     1     1     2   513   514  4.760322616E+00  4.588751763E+00 -1.484400111E+00  6.776485656E+00  2.842960362E-07  0.00000E+00  9.000E+00
       3     1     1     2   512     0 -5.156863170E+00 -9.475012261E+00  5.189455258E+01  5.300626079E+01  5.000000000E-01  0.00000E+00  9.000E+00
      21     1     1     2   515   513  3.965405543E-01  4.886260498E+00 -1.567241708E+00  5.146749715E+00  2.874031890E-07  0.00000E+00  9.000E+00
</event>
<event>
      5  10001  3.52971E+09  1.21632E+01 -1.00000E+00  1.86409E-01
       2    -1     0     0   513     0  0.000000000E+00  0.000000000E+00  4.159509584E+01  4.159509584E+01  0.000000000E+00  0.00000E+00  9.000E+00
      21    -1     0     0   515   512  0.000000000E+00  0.000000000E+00 -4.867223115E+01  4.867223115E+01  0.000000000E+00  0.00000E+00  9.000E+00
      21     1     1     2   515   511 -9.420076326E+00  8.550999484E+00 -3.538887422E+01  3.760624747E+01  0.000000000E+00  0.00000E+00  9.000E+00
       2     1     1     2   511     0  6.820643665E+00 -2.043297886E+01  3.317941514E+01  3.956021100E+01  3.300000131E-01  0.00000E+00  9.000E+00
      21     1     1     2   513   512  2.599432661E+00  1.188197937E+01 -4.867676231E+00  1.310086852E+01  2.149076030E-07  0.00000E+00  9.000E+00
</event>
<event>
      5  10001  3.52971E+09  5.63092E+00 -1.00000E+00  2.29834E-01
      -3    -1     0     0     0   511  0.000000000E+00  0.000000000E+00  1.628195640E+02  1.628195640E+02  0.000000000E+00  0.00000E+00  9.000E+00
      21    -1     0     0   514   512  0.000000000E+00  0.000000000E+00 -1.841047217E+00  1.841047217E+00  0.000000000E+00  0.00000E+00  9.000E+00
      -3     1     1     2     0   513  3.560743254E+00  9.087174137E+00  9.388243163E+01  9.438970599E+01  5.000000000E-01  0.00000E+00  9.000E+00
      21     1     1     2   513   512 -2.207579963E+00 -1.455139304E+01  4.065121256E+01  4.323352323E+01  6.743495762E-07  0.00000E+00  9.000E+00
      21     1     1     2   514   511 -1.353163291E+00  5.464218900E+00  2.644487259E+01  2.703738200E+01  4.768371582E-07  0.00000E+00  9.000E+00
</event>
<event>
      5  10001  3.52971E+09  1.27500E+01 -1.00000E+00  1.84298E-01
      21    -1     0     0   515   512  0.000000000E+00  0.000000000E+00  5.230903786E+01  5.230903786E+01  0.000000000E+00  0.00000E+00  9.000E+00
      21    -1     0     0   511   513  0.000000000E+00  0.000000000E+00 -1.403240999E+02  1.403240999E+02  0.000000000E+00  0.00000E+00  9.000E+00
      21     1     1     2   514   512  1.864554827E+00  7.133498616E+00  4.994227696E+01  5.048360521E+01  1.507891493E-06  0.00000E+00  9.000E+00
      21     1     1     2   511   514 -5.948123692E+00 -1.921181393E+01 -1.028690806E+02  1.048166099E+02  1.348699152E-06  0.00000E+00  9.000E+00
      21     1     1     2   515   513  4.083568865E+00  1.207831531E+01 -3.508825845E+01  3.733292269E+01  4.768371582E-07  0.00000E+00  9.000E+00
</event>
<event>
      5  10001  3.52971E+09  5.09391E+00 -1.00000E+00  2.37106E-01
      21    -1     0     0   516   511  0.000000000E+00  0.000000000E+00  8.463041953E+00  8.463041953E+00  0.000000000E+00  0.00000E+00  9.000E+00
      21    -1     0     0   512   517  0.000000000E+00  0.000000000E+00 -4.482395668E+01  4.482395668E+01  0.000000000E+00  0.00000E+00  9.000E+00
      21     1     1     2   516   517 -4.391829053E+00  1.620457550E+01 -5.210571670E+00  1.757914920E+01  4.298152060E-07  0.00000E+00  9.000E+00
      21     1     1     2   514   511  4.336718668E+00 -7.277005828E+00 -1.372971052E+01  1.613278939E+01  2.920019320E-07  0.00000E+00  9.000E+00
      21     1     1     2   512   514  5.511038478E-02 -8.927569674E+00 -1.742063254E+01  1.957506003E+01  4.129530925E-07  0.00000E+00  9.000E+00
</event>
<event>
      5  10001  3.52971E+09  6.13607E+00 -1.00000E+00  2.23964E-01
      21    -1     0     0   513   514  0.000000000E+00  0.000000000E+00  6.181561218E+02  6.181561218E+02  0.000000000E+00  0.00000E+00  9.000E+00
      21    -1     0     0   512   515  0.000000000E+00  0.000000000E+00 -1.161054240E+01  1.161054240E+01  0.000000000E+00  0.00000E+00  9.000E+00
      21     1     1     2   513   515 -2.128853661E+01  3.107637680E-01  6.047759968E+02  6.051506463E+02  0.000000000E+00  0.00000E+00  9.000E+00
      21     1     1     2   511   514  1.250822534E+01 -1.165881565E+00 -4.974618906E+00  1.351154374E+01  1.023743393E-06  0.00000E+00  9.000E+00
      21     1     1     2   512   511  8.780311267E+00  8.551177975E-01  6.744201421E+00  1.110447411E+01  3.475518164E-07  0.00000E+00  9.000E+00
</event>
<event>
      5  10001  3.52971E+09  4.26982E+00 -1.00000E+00  2.56956E-01
      21    -1     0     0   516   511  0.000000000E+00  0.000000000E+00  2.212821061E+02  2.212821061E+02  0.000000000E+00  0.00000E+00  9.000E+00
      21    -1     0     0   512   513  0.000000000E+00  0.000000000E+00 -1.371333084E+01  1.371333084E+01  0.000000000E+00  0.00000E+00  9.000E+00
      21     1     1     2   516   517 -2.253515886E+00  1.215277883E+01  2.132534782E+02  2.136113628E+02  4.672030912E-06  0.00000E+00  9.000E+00
      21     1     1     2   512   511  5.905356879E-03 -8.522404789E+00  4.997869076E+00  9.879783072E+00  7.679521279E-07  0.00000E+00  9.000E+00
      21     1     1     2   517   513  2.247610529E+00 -3.630374040E+00 -1.068257198E+01  1.150429106E+01  5.591411304E-07  0.00000E+00  9.000E+00
</event>
<event>
      5  10001  3.52971E+09  9.16392E+00 -1.00000E+00  2.00240E-01
      21    -1     0     0   514   512  0.000000000E+00  0.000000000E+00  1.745582898E+01  1.745582898E+01  0.000000000E+00  0.00000E+00  9.000E+00
      21    -1     0     0   515   514  0.000000000E+00  0.000000000E+00 -1.337128866E+02  1.337128866E+02  0.000000000E+00  0.00000E+00  9.000E+00
      21     1     1     2   515   513  6.050715903E-01 -1.280060043E+01 -1.298116044E+02  1.304426085E+02  1.907348633E-06  0.00000E+00  9.000E+00
      21     1     1     2   511   512  5.221642266E-01  2.028805802E+00  8.535927499E+00  8.789241533E+00  5.591411304E-07  0.00000E+00  9.000E+00
      21     1     1     2   513   511 -1.127235817E+00  1.077179462E+01  5.018619255E+00  1.193686555E+01  7.586432732E-07  0.00000E+00  9.000E+00
</event>
<event>
      5  10001  3.52971E+09  3.97790E+00 -1.00000E+00  2.64030E-01
      21    -1     0     0   516   511  0.000000000E+00  0.000000000E+00  1.120211291E+00  1.120211291E+00  0.000000000E+00  0.00000E+00  9.000E+00
       1    -1     0     0   514     0  0.000000000E+00  0.000000000E+00 -7.710402523E+02  7.710402523E+02  0.000000000E+00  0.00000E+00  9.000E+00
      21     1     1     2   512   511  1.015679444E+01  2.431086571E+01 -2.340923783E+02  2.355704146E+02  4.672030912E-06  0.00000E+00  9.000E+00
       1     1     1     2   516     0 -6.214772891E+00 -2.377882398E+01 -4.700527637E+02  4.706949814E+02  3.300000131E-01  0.00000E+00  9.000E+00
      21     1     1     2   514   512 -3.942021552E+00 -5.320417277E-01 -6.577489893E+01  6.589506758E+01  9.536743164E-07  0.00000E+00  9.000E+00
</event>
<event>
      5  10001  3.52971E+09  7.44272E+00 -1.00000E+00  2.11851E-01
      21    -1     0     0   513   514  0.000000000E+00  0.000000000E+00  4.687204040E+00  4.687204040E+00  0.000000000E+00  0.00000E+00  9.000E+00
      -1    -1     0     0     0   512  0.000000000E+00  0.000000000E+00 -3.119174538E+01  3.119174538E+01  0.000000000E+00  0.00000E+00  9.000E+00
      -1     1     1     2     0   514  1.027165755E+00  1.044069131E+01 -1.345399709E+01  1.706405703E+01  3.300000131E-01  0.00000E+00  9.000E+00
      21     1     1     2   511   512 -3.016265057E+00 -5.799191859E+00 -2.286262510E+00  6.924989341E+00  1.154238983E-07  0.00000E+00  9.000E+00
      21     1     1     2   513   511  1.989099301E+00 -4.641499453E+00 -1.076428174E+01  1.188990305E+01  1.192092896E-07  0.00000E+00  9.000E+00
</event>
<event>
      5  10001  3.52971E+09  1.00044E+01 -1.00000E+00  1.95731E-01
      21    -1     0     0   515   511  0.000000000E+00  0.000000000E+00  4.330750341E+00  4.330750341E+00  0.000000000E+00  0.00000E+00  9.000E+00
      21    -1     0     0   516   515  0.000000000E+00  0.000000000E+00 -9.605906485E+01  9.605906485E+01  0.000000000E+00  0.00000E+00  9.000E+00
      21     1     1     2   516   517  8.534422211E+00 -5.258567724E+00 -8.474127197E+01  8.533212802E+01  9.536743164E-07  0.00000E+00  9.000E+00
      21     1     1     2   512   511 -7.519282350E+00  1.420862565E+00 -7.884893775E+00  1.098772075E+01  1.685873940E-07  0.00000E+00  9.000E+00
      21     1     1     2   517   512 -1.015139861E+00  3.837705159E+00  8.978512356E-01  4.069966421E+00  1.559291000E-07  0.00000E+00  9.000E+00
</event>
<event>
      5  10001  3.52971E+09  1.25589E+01 -1.00000E+00  1.84969E-01
      21    -1     0     0   513   511  0.000000000E+00  0.000000000E+00  8.323409179E-01  8.323409179E-01  0.000000000E+00  0.00000E+00  9.000E+00
      21    -1     0     0   514   513  0.000000000E+00  0.000000000E+00 -4.787029191E+02  4.787029191E+02  0.000000000E+00  0.00000E+00  9.000E+00
      21     1     1     2   512   511 -3.126481162E+00 -1.529188123E+01 -1.151479232E+02  1.162009498E+02  1.348699152E-06  0.00000E+00  9.000E+00
      21     1     1     2   514   515 -4.045128399E+00  1.174257105E+01 -1.743643121E+02  1.748060765E+02  1.907348633E-06  0.00000E+00  9.000E+00
      21     1     1     2   515   512  7.171609561E+00  3.549310182E+00 -1.883583429E+02  1.885282337E+02  3.814697266E-06  0.00000E+00  9.000E+00
</event>
<event>
      5  10001  3.52971E+09  1.57580E+01 -1.00000E+00  1.75386E-01
      -3    -1     0     0     0   512  0.000000000E+00  0.000000000E+00  2.755350242E+01  2.755350242E+01  0.000000000E+00  0.00000E+00  9.000E+00
       2    -1     0     0   512     0  0.000000000E+00  0.000000000E+00 -1.343965393E+01  1.343965393E+01  0.000000000E+00  0.00000E+00  9.000E+00
      -3     1     1     2     0   513  1.279284185E+01  4.190345525E+00  1.167289396E+01  1.782476512E+01  5.000000000E-01  0.00000E+00  9.000E+00
      21     1     1     2   513   511 -8.073340840E+00 -1.128150187E+01  4.137863044E+00  1.447663729E+01  1.576990671E-07  0.00000E+00  9.000E+00
       2     1     1     2   511     0 -4.719501008E+00  7.091156341E+00 -1.696908522E+00  8.691753940E+00  3.300000131E-01  0.00000E+00  9.000E+00
</event>
<event>
      5  10001  3.52971E+09  9.50106E+00 -1.00000E+00  1.98358E-01
      21    -1     0     0   513   512  0.000000000E+00  0.000000000E+00  3.586561232E+01  3.586561232E+01  0.000000000E+00  0.00000E+00  9.000E+00
       3    -1     0     0   512     0  0.000000000E+00  0.000000000E+00 -4.839080725E+01  4.839080725E+01  0.000000000E+00  0.00000E+00  9.000E+00
      21     1     1     2   513   511 -1.199970180E+01  5.243703621E+00  3.096103407E+01  3.361658670E+01  6.743495762E-07  0.00000E+00  9.000E+00
       3     1     1     2   514     0  5.259984497E+00 -4.696632642E+00 -4.330218051E+01  4.387544452E+01  5.000000000E-01  0.00000E+00  9.000E+00
      21     1     1     2   511   514  6.739717300E+00 -5.470709790E-01 -1.840484926E-01  6.764388353E+00  5.612715771E-08  0.00000E+00  9.000E+00
</event>
<event>
      5  10001  3.52971E+09  3.28700E+00 -1.00000E+00  2.85315E-01
       4    -1     0     0   511     0  0.000000000E+00  0.000000000E+00  1.033762960E+02  1.033762960E+02  0.000000000E+00  0.00000E+00  9.000E+00
      21    -1     0     0   515   514  0.000000000E+00  0.000000000E+00 -1.396449257E+02  1.396449257E+02  0.000000000E+00  0.00000E+00  9.000E+00
      21     1     1     2   511   512 -7.748817167E+00  9.769997626E+00 -1.235034027E+02  1.241313316E+02  1.348699152E-06  0.00000E+00  9.000E+00
       4     1     1     2   515     0  6.570168263E+00 -1.343632577E+01  1.022702567E+02  1.033690348E+02  1.500000000E+00  0.00000E+00  9.000E+00
      21     1     1     2   512   514  1.178648904E+00  3.666328145E+00 -1.503548372E+01  1.552085519E+01  0.000000000E+00  0.00000E+00  9.000E+00
</event>
<event>
      5  10001  3.52971E+09  2.21534E+01 -1.00000E+00  1.62783E-01
      21    -1     0     0   513   515  0.000000000E+00  0.000000000E+00  8.487293831E+01  8.487293831E+01  0.000000000E+00  0.00000E+00  9.000E+00
      21    -1     0     0   516   513  0.000000000E+00  0.000000000E+00 -3.469168262E+01  3.469168262E+01  0.000000000E+00  0.00000E+00  9.000E+00
      21     1     1     2   514   515 -3.391722214E+01 -7.037583710E+00  6.461336378E+01  7.331297512E+01  1.348699152E-06  0.00000E+00  9.000E+00
      21     1     1     2   511   514  2.439333979E+01  1.614552121E+01 -4.167964935E+00  2.954800861E+01  8.840797528E-07  0.00000E+00  9.000E+00
      21     1     1     2   516   511  9.523882357E+00 -9.107937503E+00 -1.026414316E+01  1.670363719E+01  5.057621821E-07  0.00000E+00  9.000E+00
</event>
<event>
      5  10001  3.52971E+09  3.97525E+00 -1.00000E+00  2.64098E-01
      21    -1     0     0   513   514  0.000000000E+00  0.000000000E+00  3.279812338E+02  3.279812338E+02  0.000000000E+00  0.00000E+00  9.000E+00
      21    -1     0     0   516   512  0.000000000E+00  0.000000000E+00 -7.398709195E+01  7.398709195E+01  0.000000000E+00  0.00000E+00  9.000E+00
      21     1     1     2   511   514  6.594871999E+00  1.651533989E+01  4.745676148E+01  5.067931529E+01  1.348699152E-06  0.00000E+00  9.000E+00
      21     1     1     2   516   511 -9.441918650E+00 -1.928967155E+01 -7.076803946E+01  7.395509898E+01  0.000000000E+00  0.00000E+00  9.000E+00
      21     1     1     2   513   512  2.847046651E+00  2.774331668E+00  2.773054199E+02  2.773339115E+02  5.394796609E-06  0.00000E+00  9.000E+00
</event>
<event>
      5  10001  3.52971E+09  1.73434E+01 -1.00000E+00  1.71640E-01
      21    -1     0     0   511   515  0.000000000E+00  0.000000000E+00  3.810282089E-01  3.810282089E-01  0.000000000E+00  0.00000E+00  9.000E+00
      21    -1     0     0   515   512  0.000000000E+00  0.000000000E+00 -4.103544874E+02  4.103544874E+02  0.000000000E+00  0.00000E+00  9.000E+00
      -1     1     1     2     0   514  1.393975438E+00 -7.979957142E+00 -7.625480450E+01  7.668459423E+01  3.300000131E-01  0.00000E+00  9.000E+00
       1     1     1     2   511     0  2.145006202E+00  5.047103184E+00 -5.102729799E+01  5.132220126E+01  3.300000131E-01  0.00000E+00  9.000E+00
      21     1     1     2   514   512 -3.538981639E+00  2.932853958E+00 -2.826913567E+02  2.827287201E+02  5.394796609E-06  0.00000E+00  9.000E+00
</event>
<event>
      5  10001  3.52971E+09  4.49534E+00 -1.00000E+00  2.52061E-01
      -4    -1     0     0     0   513  0.000000000E+00  0.000000000E+00  2.035354975E+02  2.035354975E+02  0.000000000E+00  0.00000E+00  9.000E+00
       1    -1     0     0   513     0  0.000000000E+00  0.000000000E+00 -9.162893239E-01  9.162893239E-01  0.000000000E+00  0.00000E+00  9.000E+00
      -4     1     1     2     0   512  1.007504961E+01 -4.719620446E+00  4.937492894E+01  5.063511676E+01  1.500000000E+00  0.00000E+00  9.000E+00
      21     1     1     2   512   511 -6.349925734E+00  3.811630061E+00  1.332346814E+02  1.334403627E+02  1.907348633E-06  0.00000E+00  9.000E+00
       1     1     1     2   511     0 -3.725123880E+00  9.079903850E-01  2.000959792E+01  2.037630740E+01  3.300000131E-01  0.00000E+00  9.000E+00
</event>
<event>
      5  10001  3.52971E+09  6.70467E+00 -1.00000E+00  2.18228E-01
      -4    -1     0     0     0   514  0.000000000E+00  0.000000000E+00  4.781556941E+01  4.781556941E+01  0.000000000E+00  0.00000E+00  9.000E+00
      21    -1     0     0   514   515  0.000000000E+00  0.000000000E+00 -3.449583690E+01  3.449583690E+01  0.000000000E+00  0.00000E+00  9.000E+00
      -4     1     1     2     0   511  1.113384910E+01 -4.396408929E+00  4.392019371E+01  4.554694746E+01  1.500000000E+00  0.00000E+00  9.000E+00
      21     1     1     2   511   512 -5.362221018E+00  3.475062118E+00 -3.024101522E+01  3.090871192E+01  9.536743164E-07  0.00000E+00  9.000E+00
      21     1     1     2   512   515 -5.771628085E+00  9.213468107E-01 -3.594459829E-01  5.855746930E+00  1.326538162E-07  0.00000E+00  9.000E+00
</event>
<event>
      5  10001  3.52971E+09  4.94139E+00 -1.00000E+00  2.43556E-01
       1    -1     0     0   513     0  0.000000000E+00  0.000000000E+00  1.323562498E+02  1.323562498E+02  0.000000000E+00  0.00000E+00  9.000E+00
      21    -1     0     0   514   513  0.000000000E+00  0.000000000E+00 -1.012863901E+01  1.012863901E+01  0.000000000E+00  0.00000E+00  9.000E+00
      21     1     1     2   511   512  9.673825404E+00 -8.531502620E+00 -2.838416486E+00  1.320704521E+01  4.129530925E-07  0.00000E+00  9.000E+00
       1     1     1     2   512     0 -9.675791924E+00  3.590221179E+00  1.237286693E+02  1.241587819E+02  3.300000131E-01  0.00000E+00  9.000E+00
      21     1     1     2   514   511  1.966520398E-03  4.941281441E+00  1.337358050E+00  5.119061701E+00  5.960464478E-08  0.00000E+00  9.000E+00
</event>
<event>
      5  10001  3.52971E+09  2.16535E+01 -1.00000E+00  1.63569E-01
      21    -1     0     0   515   512  0.000000000E+00  0.000000000E+00  2.267060438E+02  2.267060438E+02  0.000000000E+00  0.00000E+00  9.000E+00
      21    -1     0     0   514   511  0.000000000E+00  0.000000000E+00 -2.497025789E+00  2.497025789E+00  0.000000000E+00  0.00000E+00  9.000E+00
      21     1     1     2   515   511 -1.266811044E+00 -1.275448046E+01  1.554939246E+02  1.560212875E+02  0.000000000E+00  0.00000E+00  9.000E+00
      21     1     1     2   513   512 -1.016436054E+01  7.240020899E+00  3.337337079E+01  3.563024005E+01  0.000000000E+00  0.00000E+00  9.000E+00
      21     1     1     2   514   513  1.143117159E+01  5.514459558E+00  3.534172264E+01  3.755154201E+01  6.743495762E-07  0.00000E+00  9.000E+00
</event>
<event>
      5  10001  3.52971E+09  4.30754E+00 -1.00000E+00  2.56106E-01
      21    -1     0     0   516   511  0.000000000E+00  0.000000000E+00  3.673099026E+00  3.673099026E+00  0.000000000E+00  0.00000E+00  9.000E+00
      21    -1     0     0   514   516  0.000000000E+00  0.000000000E+00 -5.133615404E+01  5.133615404E+01  0.000000000E+00  0.00000E+00  9.000E+00
      21     1     1     2   514   517  1.455512587E+00 -8.849677512E+00 -3.781902161E+01  3.886790070E+01  4.768371582E-07  0.00000E+00  9.000E+00
      21     1     1     2   517   512 -3.321165832E+00  1.003484023E+01 -8.396890737E+00  1.349947906E+01  2.920019320E-07  0.00000E+00  9.000E+00
      21     1     1     2   512   511  1.865653245E+00 -1.185162714E+00 -1.447142669E+00  2.641873312E+00  8.688795410E-08  0.00000E+00  9.000E+00
</event>
<event>
      5  10001  3.52971E+09  6.14299E+00 -1.00000E+00  2.23889E-01
      21    -1     0     0   516   515  0.000000000E+00  0.000000000E+00  4.763156719E+01  4.763156719E+01  0.000000000E+00  0.00000E+00  9.000E+00
      21    -1     0     0   511   513  0.000000000E+00  0.000000000E+00 -1.662115158E+01  1.662115158E+01  0.000000000E+00  0.00000E+00  9.000E+00
      21     1     1     2   511   514 -1.400039497E+01 -2.142049316E+00 -9.969316776E+00  1.732012447E+01  1.192092896E-07  0.00000E+00  9.000E+00
      21     1     1     2   514   515  9.424175632E+00  6.240156546E+00  9.226213651E+00  1.459032756E+01  2.920019320E-07  0.00000E+00  9.000E+00
      21     1     1     2   516   513  4.576219337E+00 -4.098107230E+00  3.175351874E+01  3.234226675E+01  3.371747881E-07  0.00000E+00  9.000E+00
</event>
<event>
      5  10001  3.52971E+09  5.24914E+00 -1.00000E+00  2.34878E-01
      21    -1     0     0   511   513  0.000000000E+00  0.000000000E+00  1.651949962E+02  1.651949962E+02  0.000000000E+00  0.00000E+00  9.000E+00
      21    -1     0     0   514   512  0.000000000E+00  0.000000000E+00 -4.829458058E+00  4.829458058E+00  0.000000000E+00  0.00000E+00  9.000E+00
      -3     1     1     2     0   513  7.235177089E+00 -7.707529269E+00  1.697570059E+01  2.000445464E+01  5.000000000E-01  0.00000E+00  9.000E+00
      21     1     1     2   511   512 -1.194848051E+01  1.001426593E+01  1.438835165E+02  1.447256648E+02  0.000000000E+00  0.00000E+00  9.000E+00
       3     1     1     2   514     0  4.713303417E+00 -2.306736659E+00 -4.936789472E-01  5.294334898E+00  5.000000000E-01  0.00000E+00  9.000E+00
</event>
<event>
      5  10001  3.52971E+09  6.94703E+00 -1.00000E+00  2.16015E-01
      21    -1     0     0   515   511  0.000000000E+00  0.000000000E+00  7.936394540E+01  7.936394540E+01  0.000000000E+00  0.00000E+00  9.000E+00
      21    -1     0     0   513   516  0.000000000E+00  0.000000000E+00 -2.401918952E+02  2.401918952E+02  0.000000000E+00  0.00000E+00  9.000E+00
      21     1     1     2   515   516 -1.248362537E+01 -4.484543056E+00 -2.299489629E+02  2.303312344E+02  2.697398305E-06  0.00000E+00  9.000E+00
      21     1     1     2   513   514  6.962755668E+00  8.701329668E+00 -6.754741872E+00  1.303148657E+01  2.064765462E-07  0.00000E+00  9.000E+00
      21     1     1     2   514   511  5.520869699E+00 -4.216786612E+00  7.587575493E+01  7.619311962E+01  1.348699152E-06  0.00000E+00  9.000E+00
</event>
<event>
      5  10001  3.52971E+09  1.02168E+01 -1.00000E+00  1.94682E-01
      21    -1     0     0   515   513  0.000000000E+00  0.000000000E+00  3.701323824E+01  3.701323824E+01  0.000000000E+00  0.00000E+00  9.000E+00
      21    -1     0     0   511   512  0.000000000E+00  0.000000000E+00 -1.884136514E+02  1.884136514E+02  0.000000000E+00  0.00000E+00  9.000E+00
      21     1     1     2   511   517 -2.969000831E+01 -1.150225337E+01 -1.760553991E+02  1.789114361E+02  2.697398305E-06  0.00000E+00  9.000E+00
      21     1     1     2   517   513  1.960065910E+01  9.893773136E+00  2.474628452E+00  2.209516621E+01  9.559997876E-07  0.00000E+00  9.000E+00
      21     1     1     2   515   512  1.008934921E+01  1.608480235E+00  2.218035745E+01  2.442028732E+01  7.152557373E-07  0.00000E+00  9.000E+00
</event>
<event>
      5  10001  3.52971E+09  9.22489E+00 -1.00000E+00  1.99892E-01
      21    -1     0     0   514   513  0.000000000E+00  0.000000000E+00  2.558932421E+00  2.558932421E+00  0.000000000E+00  0.00000E+00  9.000E+00
      21    -1     0     0   513   512  0.000000000E+00  0.000000000E+00 -1.629965239E+02  1.629965239E+02  0.000000000E+00  0.00000E+00  9.000E+00
      -4     1     1     2     0   511 -9.678252489E-01 -9.289240346E+00 -6.839821025E+01  6.904919867E+01  1.500000000E+00  0.00000E+00  9.000E+00
       4     1     1     2   514     0  4.345901936E+00  1.012549480E+01 -1.188450314E+01  1.627586936E+01  1.500000000E+00  0.00000E+00  9.000E+00
      21     1     1     2   511   512 -3.378076688E+00 -8.362544513E-01 -8.015487812E+01  8.023038832E+01  0.000000000E+00  0.00000E+00  9.000E+00
</event>
<event>
      5  10001  3.52971E+09  6.50909E+00 -1.00000E+00  2.20110E-01
      21    -1     0     0   515   512  0.000000000E+00  0.000000000E+00  1.510810113E+01  1.510810113E+01  0.000000000E+00  0.00000E+00  9.000E+00
      21    -1     0     0   511   516  0.000000000E+00  0.000000000E+00 -2.212185813E+01  2.212185813E+01  0.000000000E+00  0.00000E+00  9.000E+00
      21     1     1     2   515   516  2.238910142E+00 -1.369988500E+01 -1.507949464E+01  2.049611491E+01  1.685873940E-07  0.00000E+00  9.000E+00
      21     1     1     2   511   513  7.572791775E-01  3.667139397E+00  4.060119325E+00  5.523219355E+00  0.000000000E+00  0.00000E+00  9.000E+00
      21     1     1     2   513   512 -2.996189319E+00  1.003274560E+01  4.005618308E+00  1.121062500E+01  4.500051996E-07  0.00000E+00  9.000E+00
</event>
<event>
      5  10001  3.52971E+09  5.19114E+00 -1.00000E+00  2.35697E-01
      21    -1     0     0   514   511  0.000000000E+00  0.000000000E+00  5.021330145E+01  5.021330145E+01  0.000000000E+00  0.00000E+00  9.000E+00
      21    -1     0     0   517   512  0.000000000E+00  0.000000000E+00 -3.144424160E+00  3.144424160E+00  0.000000000E+00  0.00000E+00  9.000E+00
      21     1     1     2   514   512 -6.047744652E+00  7.228056586E+00  6.999438765E+00  1.173934242E+01  2.064765462E-07  0.00000E+00  9.000E+00
      21     1     1     2   517   515  1.749796557E+00 -6.617544668E+00  2.233425101E+01  2.335963299E+01  2.384185791E-07  0.00000E+00  9.000E+00
      21     1     1     2   515   511  4.297948094E+00 -6.105119179E-01  1.773518752E+01  1.825875020E+01  2.384185791E-07  0.00000E+00  9.000E+00
</event>
<event>
      5  10001  3.52971E+09  2.76792E+00 -1.00000E+00  3.07887E-01
      21    -1     0     0   513   512  0.000000000E+00  0.000000000E+00  1.325770247E+02  1.325770247E+02  0.000000000E+00  0.00000E+00  9.000E+00
      21    -1     0     0   511   513  0.000000000E+00  0.000000000E+00 -4.677750316E+01  4.677750316E+01  0.000000000E+00  0.00000E+00  9.000E+00
      21     1     1     2   511   516  6.241446437E+00  8.403939953E+00 -4.596119586E+01  4.713823698E+01  9.536743164E-07  0.00000E+00  9.000E+00
      21     1     1     2   516   514 -4.067935773E+00 -3.347750109E+00  7.688312943E+01  7.706342274E+01  9.536743164E-07  0.00000E+00  9.000E+00
      21     1     1     2   514   512 -2.173510664E+00 -5.056189844E+00  5.487758797E+01  5.515286815E+01  6.743495762E-07  0.00000E+00  9.000E+00
</event>
<event>
      5  10001  3.52971E+09  5.49835E+00 -1.00000E+00  2.31520E-01
      21    -1     0     0   515   516  0.000000000E+00  0.000000000E+00  2.556625905E+00  2.556625905E+00  0.000000000E+00  0.00000E+00  9.000E+00
      21    -1     0     0   511   512  0.000000000E+00  0.000000000E+00 -2.767416058E+02  2.767416058E+02  0.000000000E+00  0.00000E+00  9.000E+00
      21     1     1     2   515   512 -5.476816938E+00 -1.215414503E+01 -1.718392077E+01  2.174869877E+01  9.233911863E-07  0.00000E+00  9.000E+00
      21     1     1     2   513   516  1.842210281E+00  7.535186776E+00 -2.149259809E+02  2.150659202E+02  0.000000000E+00  0.00000E+00  9.000E+00
      21     1     1     2   511   513  3.634606658E+00  4.618958252E+00 -4.207507820E+01  4.248361268E+01  8.259061849E-07  0.00000E+00  9.000E+00
</event>
<event>
      5  10001  3.52971E+09  4.96255E+00 -1.00000E+00  2.43186E-01
      21    -1     0     0   514   512  0.000000000E+00  0.000000000E+00  1.372772289E+01  1.372772289E+01  0.000000000E+00  0.00000E+00  9.000E+00
      21    -1     0     0   511   514  0.000000000E+00  0.000000000E+00 -4.438651381E+01  4.438651381E+01  0.000000000E+00  0.00000E+00  9.000E+00
      21     1     1     2   511   517  6.648057053E+00  9.515319584E+00 -4.056448951E+01  4.219260336E+01  8.259061849E-07  0.00000E+00  9.000E+00
      21     1     1     2   517   515 -3.055831142E+00 -2.250701061E+00  5.542838036E+00  6.717649346E+00  2.064765462E-07  0.00000E+00  9.000E+00
      21     1     1     2   515   512 -3.592225911E+00 -7.264618523E+00  4.362860544E+00  9.203983996E+00  2.457562462E-07  0.00000E+00  9.000E+00
</event>
<event>
      5  10001  3.52971E+09  7.53939E+00 -1.00000E+00  2.11090E-01
      -2    -1     0     0     0   511  0.000000000E+00  0.000000000E+00  3.811765269E+01  3.811765269E+01  0.000000000E+00  0.00000E+00  9.000E+00
      21    -1     0     0   512   513  0.000000000E+00  0.000000000E+00 -5.853137999E+01  5.853137999E+01  0.000000000E+00  0.00000E+00  9.000E+00
      21     1     1     2   516   511 -6.906072324E+00 -1.122129072E+01  1.559589838E+01  2.041673937E+01  1.685873940E-07  0.00000E+00  9.000E+00
      21     1     1     2   512   516  1.660071721E+00  1.663599984E+01 -5.410352294E+01  5.662776283E+01  9.536743164E-07  0.00000E+00  9.000E+00
      -2     1     1     2     0   513  5.246000603E+00 -5.414709117E+00  1.809389727E+01  1.960453048E+01  3.300000131E-01  0.00000E+00  9.000E+00
</event>
<event>
      5  10001  3.52971E+09  4.99192E+00 -1.00000E+00  2.42678E-01
      21    -1     0     0   514   512  0.000000000E+00  0.000000000E+00  9.028703354E+00  9.028703354E+00  0.000000000E+00  0.00000E+00  9.000E+00
      21    -1     0     0   511   513  0.000000000E+00  0.000000000E+00 -2.887399726E+01  2.887399726E+01  0.000000000E+00  0.00000E+00  9.000E+00
      -4     1     1     2     0   512 -3.488648827E+00  9.517075897E+00 -6.269420410E-01  1.026588820E+01  1.500000000E+00  0.00000E+00  9.000E+00
      21     1     1     2   514   513  8.095935925E+00 -1.132793324E+01 -1.027159521E+01  1.730236742E+01  4.129530925E-07  0.00000E+00  9.000E+00
       4     1     1     2   511     0 -4.607287098E+00  1.810857348E+00 -8.946756654E+00  1.033444500E+01  1.500000000E+00  0.00000E+00  9.000E+00
</event>
<event>
      5  10001  3.52971E+09  9.01885E+00 -1.00000E+00  2.01084E-01
      21    -1     0     0   515   512  0.000000000E+00  0.000000000E+00  6.141260831E+01  6.141260831E+01  0.000000000E+00  0.00000E+00  9.000E+00
      21    -1     0     0   511   516  0.000000000E+00  0.000000000E+00 -9.802786833E+00  9.802786833E+00  0.000000000E+00  0.00000E+00  9.000E+00
      21     1     1     2   515   516 -8.059128817E+00  9.056663148E+00 -2.937502456E+00  1.247403805E+01  3.816559456E-07  0.00000E+00  9.000E+00
      21     1     1     2   513   512  3.250020292E+00 -9.138688277E+00  5.270614446E+01  5.359119255E+01  6.743495762E-07  0.00000E+00  9.000E+00
      21     1     1     2   511   513  4.809108525E+00  8.202512950E-02  1.841179474E+00  5.150164539E+00  9.185692672E-08  0.00000E+00  9.000E+00
</event>
<event>
      5  10001  3.52971E+09  5.49373E+00 -1.00000E+00  2.31580E-01
      21    -1     0     0   511   514  0.000000000E+00  0.000000000E+00  1.202898489E+00  1.202898489E+00  0.000000000E+00  0.00000E+00  9.000E+00
       2    -1     0     0   513     0  0.000000000E+00  0.000000000E+00 -4.406561810E+02  4.406561810E+02  0.000000000E+00  0.00000E+00  9.000E+00
      21     1     1     2   513   512  1.897125170E+00 -2.154845010E+01 -1.672355365E+02  1.686287622E+02  4.264961200E-06  0.00000E+00  9.000E+00
       2     1     1     2   511     0 -1.755807344E+00  1.605690624E+01 -2.403650444E+02  2.409073900E+02  3.300000131E-01  0.00000E+00  9.000E+00
      21     1     1     2   512   514 -1.413178264E-01  5.491543867E+00 -3.185270160E+01  3.232292722E+01  5.840038640E-07  0.00000E+00  9.000E+00
</event>
<event>
      5  10001  3.52971E+09  1.25285E+01 -1.00000E+00  1.85077E-01
      21    -1     0     0   515   513  0.000000000E+00  0.000000000E+00  1.424695474E+02  1.424695474E+02  0.000000000E+00  0.00000E+00  9.000E+00
      21    -1     0     0   512   514  0.000000000E+00  0.000000000E+00 -2.014900209E+00  2.014900209E+00  0.000000000E+00  0.00000E+00  9.000E+00
      21     1     1     2   515   514 -1.153058977E+01  3.660573480E+00  8.659019688E+01  8.743121007E+01  1.348699152E-06  0.00000E+00  9.000E+00
      21     1     1     2   512   511  4.078073576E+00 -7.983905407E+00  1.727114380E+01  1.945933806E+01  0.000000000E+00  0.00000E+00  9.000E+00
      21     1     1     2   511   513  7.452516196E+00  4.323331927E+00  3.659330654E+01  3.759389951E+01  0.000000000E+00  0.00000E+00  9.000E+00
</event>
<event>
      5  10001  3.52971E+09  3.49845E+00 -1.00000E+00  2.77970E-01
      21    -1     0     0   516   512  0.000000000E+00  0.000000000E+00  6.120915929E+02  6.120915929E+02  0.000000000E+00  0.00000E+00  9.000E+00
      21    -1     0     0   517   513  0.000000000E+00  0.000000000E+00 -2.411195088E-01  2.411195088E-01  0.000000000E+00  0.00000E+00  9.000E+00
      21     1     1     2   516   513 -4.521264092E+00 -9.137892984E+00  1.570543850E+02  1.573849509E+02  2.697398305E-06  0.00000E+00  9.000E+00
      21     1     1     2   514   512  1.354666733E+00  7.930447589E+00  3.629793203E+02  3.630684703E+02  5.394796609E-06  0.00000E+00  9.000E+00
      21     1     1     2   517   514  3.166597359E+00  1.207445395E+00  9.181676806E+01  9.187929125E+01  0.000000000E+00  0.00000E+00  9.000E+00
</event>
<event>
      5  10001  3.52971E+09  6.67825E+00 -1.00000E+00  2.18477E-01
      21    -1     0     0   511   512  0.000000000E+00  0.000000000E+00  1.645373096E+02  1.645373096E+02  0.000000000E+00  0.00000E+00  9.000E+00
      21    -1     0     0   517   515  0.000000000E+00  0.000000000E+00 -9.667595744E+01  9.667595744E+01  0.000000000E+00  0.00000E+00  9.000E+00
      21     1     1     2   511   515 -1.128349432E+01  1.170671878E+01  1.517503657E+02  1.526189307E+02  1.907348633E-06  0.00000E+00  9.000E+00
      21     1     1     2   517   513  5.254519489E+00 -1.457908363E+01 -9.466046874E+01  9.592061299E+01  2.336015456E-06  0.00000E+00  9.000E+00
      21     1     1     2   513   512  6.028974836E+00  2.872364847E+00  1.077145523E+01  1.267372342E+01  1.685873940E-07  0.00000E+00  9.000E+00
</event>
<event>
      5  10001  3.52971E+09  1.57047E+01 -1.00000E+00  1.75522E-01
      -5    -1     0     0     0   512  0.000000000E+00  0.000000000E+00  1.970443001E+01  1.970443001E+01  0.000000000E+00  0.00000E+00  9.000E+00
      21    -1     0     0   514   513  0.000000000E+00  0.000000000E+00 -3.210074446E+02  3.210074446E+02  0.000000000E+00  0.00000E+00  9.000E+00
      -5     1     1     2     0   513  1.044152107E+01 -1.419510588E+01  7.167997483E+00  1.962005563E+01  4.800000191E+00  0.00000E+00  9.000E+00
      21     1     1     2   511   512 -1.154456726E+01 -1.450281981E+00  5.736324096E-01  1.164943798E+01  4.001176829E-07  0.00000E+00  9.000E+00
      21     1     1     2   514   511  1.103046193E+00  1.564538786E+01 -3.090446444E+02  3.094423810E+02  5.394796609E-06  0.00000E+00  9.000E+00
</event>
<event>
      5  10001  3.52971E+09  1.22213E+01 -1.00000E+00  1.86193E-01
      21    -1     0     0   511   512  0.000000000E+00  0.000000000E+00  2.193950458E+01  2.193950458E+01  0.000000000E+00  0.00000E+00  9.000E+00
       2    -1     0     0   512     0  0.000000000E+00  0.000000000E+00 -3.180684292E+01  3.180684292E+01  0.000000000E+00  0.00000E+00  9.000E+00
      21     1     1     2   511   513  2.298099404E-01 -9.195978224E+00  1.479647962E+01  1.742281944E+01  1.685873940E-07  0.00000E+00  9.000E+00
       2     1     1     2   514     0  8.528333586E+00  7.604907956E+00 -2.492162317E+01  2.741830228E+01  3.300000131E-01  0.00000E+00  9.000E+00
      21     1     1     2   513   514 -8.758143527E+00  1.591070268E+00  2.578052123E-01  8.905225778E+00  1.616106329E-07  0.00000E+00  9.000E+00
</event>
<event>
      5  10001  3.52971E+09  2.87355E+00 -1.00000E+00  3.02650E-01
       3    -1     0     0   511     0  0.000000000E+00  0.000000000E+00  1.227890002E+01  1.227890002E+01  0.000000000E+00  0.00000E+00  9.000E+00
      21    -1     0     0   513   512  0.000000000E+00  0.000000000E+00 -1.136610162E+02  1.136610162E+02  0.000000000E+00  0.00000E+00  9.000E+00
      21     1     1     2   513   515  1.206971065E+01 -1.410993105E+00 -1.050968146E+02  1.057970191E+02  1.907348633E-06  0.00000E+00  9.000E+00
       3     1     1     2   515     0 -1.104367158E+01  4.094979503E+00  8.518963943E+00  1.454490583E+01  5.000000000E-01  0.00000E+00  9.000E+00
      21     1     1     2   511   512 -1.026039071E+00 -2.683986398E+00 -4.804265599E+00  5.597991346E+00  5.960464478E-08  0.00000E+00  9.000E+00
</event>
<event>
      5  10001  3.52971E+09  2.52424E+00 -1.00000E+00  3.21637E-01
      21    -1     0     0   514   513  0.000000000E+00  0.000000000E+00  2.502861737E-01  2.502861737E-01  0.000000000E+00  0.00000E+00  9.000E+00
      21    -1     0     0   516   515  0.000000000E+00  0.000000000E+00 -6.862151794E+02  6.862151794E+02  0.000000000E+00  0.00000E+00  9.000E+00
      21     1     1     2   516   512 -6.057124924E+00 -8.647561001E+00 -2.606400116E+02  2.608537611E+02  5.394796609E-06  0.00000E+00  9.000E+00
      21     1     1     2   512   513  8.379421889E+00  7.658261359E+00 -2.387223543E+02  2.389921047E+02  6.607249480E-06  0.00000E+00  9.000E+00
      21     1     1     2   514   515 -2.322296965E+00  9.892996419E-01 -1.866025274E+02  1.866195997E+02  3.814697266E-06  0.00000E+00  9.000E+00
</event>
<event>
      5  10001  3.52971E+09  8.69884E+00 -1.00000E+00  2.03021E-01
      21    -1     0     0   515   513  0.000000000E+00  0.000000000E+00  1.170545072E+00  1.170545072E+00  0.000000000E+00  0.00000E+00  9.000E+00
      -2    -1     0     0     0   511  0.000000000E+00  0.000000000E+00 -1.195088761E+02  1.195088761E+02  0.000000000E+00  0.00000E+00  9.000E+00
      -2     1     1     2     0   512 -6.893947330E+00 -2.091877862E+00 -7.110362746E+01  7.146843500E+01  3.300000131E-01  0.00000E+00  9.000E+00
      21     1     1     2   515   511  9.042123279E+00  1.920856376E+00 -4.554208202E+01  4.647075336E+01  0.000000000E+00  0.00000E+00  9.000E+00
      21     1     1     2   512   513 -2.148175948E+00  1.710214853E-01 -1.692621567E+00  2.740232841E+00  1.299053116E-07  0.00000E+00  9.000E+00
</event>
<event>
      5  10001  3.52971E+09  8.76883E+00 -1.00000E+00  2.02588E-01
      21    -1     0     0   514   513  0.000000000E+00  0.000000000E+00  2.095029534E+00  2.095029534E+00  0.000000000E+00  0.00000E+00  9.000E+00
       2    -1     0     0   512     0  0.000000000E+00  0.000000000E+00 -8.129406188E+02  8.129406188E+02  0.000000000E+00  0.00000E+00  9.000E+00
      21     1     1     2   512   511 -2.379699451E+01 -1.185248728E+01 -1.564030944E+02  1.586464822E+02  2.697398305E-06  0.00000E+00  9.000E+00
       2     1     1     2   514     0  2.659375461E+01  1.635226397E+01 -6.432375989E+02  6.439948307E+02  3.300000131E-01  0.00000E+00  9.000E+00
      21     1     1     2   511   513 -2.796760103E+00 -4.499776684E+00 -1.120489595E+01  1.239433542E+01  1.192092896E-07  0.00000E+00  9.000E+00
</event>
<event>
      5  10001  3.52971E+09  4.25909E+00 -1.00000E+00  2.57201E-01
      21    -1     0     0   515   512  0.000000000E+00  0.000000000E+00  1.238162199E+01  1.238162199E+01  0.000000000E+00  0.00000E+00  9.000E+00
      21    -1     0     0   513   515  0.000000000E+00  0.000000000E+00 -2.674288504E+02  2.674288504E+02  0.000000000E+00  0.00000E+00  9.000E+00
      21     1     1     2   516   512 -1.198936461E-01 -1.288931738E+01  8.706610285E+00  1.555486868E+01  3.371747881E-07  0.00000E+00  9.000E+00
       3     1     1     2   513     0  3.326600734E+00  9.563980919E+00 -2.243131006E+02  2.245420966E+02  5.000000000E-01  0.00000E+00  9.000E+00
      -3     1     1     2     0   516 -3.206707088E+00  3.325336461E+00 -3.944073808E+01  3.971350719E+01  5.000000000E-01  0.00000E+00  9.000E+00
</event>
<event>
      5  10001  3.52971E+09  9.42306E+00 -1.00000E+00  1.98784E-01
      21    -1     0     0   511   516  0.000000000E+00  0.000000000E+00  7.447958867E+00  7.447958867E+00  0.000000000E+00  0.00000E+00  9.000E+00
      21    -1     0     0   514   511  0.000000000E+00  0.000000000E+00 -1.278298119E+02  1.278298119E+02  0.000000000E+00  0.00000E+00  9.000E+00
      21     1     1     2   513   516  1.199884939E+01 -1.122560546E+01 -4.198744928E+00  1.695924714E+01  2.598106231E-07  0.00000E+00  9.000E+00
      21     1     1     2   512   513 -3.415571642E+00  9.914766478E+00 -9.252542520E+01  9.311779117E+01  0.000000000E+00  0.00000E+00  9.000E+00
      21     1     1     2   514   512 -8.583277749E+00  1.310838987E+00 -2.365768294E+01  2.520073248E+01  4.768371582E-07  0.00000E+00  9.000E+00
</event>
<event>
      5  10001  3.52971E+09  4.36965E+00 -1.00000E+00  2.54734E-01
       2    -1     0     0   512     0  0.000000000E+00  0.000000000E+00  1.928382673E+02  1.928382673E+02  0.000000000E+00  0.00000E+00  9.000E+00
      21    -1     0     0   515   513  0.000000000E+00  0.000000000E+00 -3.123874340E+01  3.123874340E+01  0.000000000E+00  0.00000E+00  9.000E+00
      21     1     1     2   512   511 -9.387719988E+00 -4.546238659E+00  1.486947799E+01  1.816312055E+01  9.830249847E-07  0.00000E+00  9.000E+00
       2     1     1     2   515     0  1.351298098E+01  5.987029805E+00  1.758487853E+02  1.764691173E+02  3.300000131E-01  0.00000E+00  9.000E+00
      21     1     1     2   511   513 -4.125260995E+00 -1.440791146E+00 -2.911873944E+01  2.944477277E+01  9.536743164E-07  0.00000E+00  9.000E+00
</event>
<event>
      5  10001  3.52971E+09  5.35064E+00 -1.00000E+00  2.33479E-01
      21    -1     0     0   514   515  0.000000000E+00  0.000000000E+00  1.740701852E+00  1.740701852E+00  0.000000000E+00  0.00000E+00  9.000E+00
       2    -1     0     0   511     0  0.000000000E+00  0.000000000E+00 -1.214908480E+02  1.214908480E+02  0.000000000E+00  0.00000E+00  9.000E+00
       2     1     1     2   511     0  6.198929099E+00  1.674489551E+00 -1.817840964E+01  1.928196345E+01  3.300000131E-01  0.00000E+00  9.000E+00
       2     1     1     2   514     0 -9.820441621E+00 -6.367184232E+00 -9.159308834E+01  9.233842559E+01  3.300000131E-01  0.00000E+00  9.000E+00
      -2     1     1     2     0   515  3.621512523E+00  4.692694680E+00 -9.978648185E+00  1.161116083E+01  3.300000131E-01  0.00000E+00  9.000E+00
</event>
<event>
      5  10001  3.52971E+09  1.00071E+01 -1.00000E+00  1.95717E-01
      21    -1     0     0   512   511  0.000000000E+00  0.000000000E+00  8.840958125E+01  8.840958125E+01  0.000000000E+00  0.00000E+00  9.000E+00
      21    -1     0     0   514   512  0.000000000E+00  0.000000000E+00 -4.943497249E+00  4.943497249E+00  0.000000000E+00  0.00000E+00  9.000E+00
      21     1     1     2   515   511  1.078667002E+01 -5.582228680E+00  4.712860388E+01  4.866845828E+01  0.000000000E+00  0.00000E+00  9.000E+00
      21     1     1     2   513   515 -6.393083802E+00  1.457329878E+01  2.403736088E+01  2.882789059E+01  6.743495762E-07  0.00000E+00  9.000E+00
      21     1     1     2   514   513 -4.393586221E+00 -8.991070095E+00  1.230011924E+01  1.585672963E+01  2.384185791E-07  0.00000E+00  9.000E+00
</event>
<event>
      5  10001  3.52971E+09  4.67594E+00 -1.00000E+00  2.48445E-01
      21    -1     0     0   512   513  0.000000000E+00  0.000000000E+00  2.118463477E+02  2.118463477E+02  0.000000000E+00  0.00000E+00  9.000E+00
      21    -1     0     0   511   517  0.000000000E+00  0.000000000E+00 -9.042249957E+00  9.042249957E+00  0.000000000E+00  0.00000E+00  9.000E+00
      21     1     1     2   516   517  1.373731809E+01 -6.253452079E+00  1.641249345E+02  1.648175164E+02  1.907348633E-06  0.00000E+00  9.000E+00
      21     1     1     2   511   513 -9.505980363E+00  8.243479866E+00 -3.948701084E+00  1.318752680E+01  4.749708608E-07  0.00000E+00  9.000E+00
      21     1     1     2   512   516 -4.231337732E+00 -1.990027787E+00  4.262786427E+01  4.288355445E+01  4.768371582E-07  0.00000E+00  9.000E+00
</event>
<event>
      5  10001  3.52971E+09  5.53440E+00 -1.00000E+00  2.31055E-01
      21    -1     0     0   511   513  0.000000000E+00  0.000000000E+00  1.608639760E+01  1.608639760E+01  0.000000000E+00  0.00000E+00  9.000E+00
       2    -1     0     0   513     0  0.000000000E+00  0.000000000E+00 -4.390118523E+01  4.390118523E+01  0.000000000E+00  0.00000E+00  9.000E+00
      21     1     1     2   511   515  1.219060255E+01 -5.600404646E+00  4.930300431E+00  1.429276688E+01  4.086288572E-07  0.00000E+00  9.000E+00
       2     1     1     2   514     0 -1.712494162E+01  1.216728426E+01 -3.074955397E+01  3.724178300E+01  3.300000131E-01  0.00000E+00  9.000E+00
      21     1     1     2   515   514  4.934339071E+00 -6.566879612E+00 -1.995534090E+00  8.453032959E+00  1.490116119E-07  0.00000E+00  9.000E+00
</event>
<event>
      5  10001  3.52971E+09  6.05783E+00 -1.00000E+00  2.24821E-01
       2    -1     0     0   515     0  0.000000000E+00  0.000000000E+00  6.127494645E+01  6.127494645E+01  0.000000000E+00  0.00000E+00  9.000E+00
      21    -1     0     0   512   511  0.000000000E+00  0.000000000E+00 -4.179744721E+02  4.179744721E+02  0.000000000E+00  0.00000E+00  9.000E+00
      21     1     1     2   515   514 -6.551553842E-02  1.244261176E+01  4.315803155E+01  4.491590550E+01  0.000000000E+00  0.00000E+00  9.000E+00
       2     1     1     2   512     0 -4.119002607E+00 -8.062331944E+00  1.602405326E+01  1.840778536E+01  3.300000131E-01  0.00000E+00  9.000E+00
      21     1     1     2   514   511  4.184518145E+00 -4.380279815E+00 -4.158816105E+02  4.159257277E+02  5.394796609E-06  0.00000E+00  9.000E+00
</event>
<event>
      5  10001  3.52971E+09  1.17244E+00 -1.00000E+00  5.49790E-01
      -1    -1     0     0     0   511  0.000000000E+00  0.000000000E+00  9.484569261E+01  9.484569261E+01  0.000000000E+00  0.00000E+00  9.000E+00
      -5    -1     0     0     0   513  0.000000000E+00  0.000000000E+00 -2.234275415E+00  2.234275415E+00  0.000000000E+00  0.00000E+00  9.000E+00
      -5     1     1     2     0   512 -5.356286165E+00  7.778393577E+00  1.342111985E+01  1.709852824E+01  4.800000191E+00  0.00000E+00  9.000E+00
      -1     1     1     2     0   513  6.030829411E+00 -8.337160609E+00  7.474510308E+01  7.545076862E+01  3.300000131E-01  0.00000E+00  9.000E+00
      21     1     1     2   512   511 -6.745432465E-01  5.587670324E-01  4.445194258E+00  4.530671162E+00  1.032382731E-07  0.00000E+00  9.000E+00
</event>
<event>
      5  10001  3.52971E+09  1.09460E+01 -1.00000E+00  1.91322E-01
      21    -1     0     0   514   513  0.000000000E+00  0.000000000E+00  1.457552476E+02  1.457552476E+02  0.000000000E+00  0.00000E+00  9.000E+00
      21    -1     0     0   511   514  0.000000000E+00  0.000000000E+00 -6.590277877E+00  6.590277877E+00  0.000000000E+00  0.00000E+00  9.000E+00
      21     1     1     2   515   513  9.215218701E+00  5.355043053E+00  1.159602919E+02  1.164490706E+02  0.000000000E+00  0.00000E+00  9.000E+00
      21     1     1     2   511   516 -1.162682737E+01 -2.618894640E+00 -4.846777179E-01  1.192797704E+01  2.938023828E-07  0.00000E+00  9.000E+00
      21     1     1     2   516   515  2.411608671E+00 -2.736148413E+00  2.368935549E+01  2.396847780E+01  3.371747881E-07  0.00000E+00  9.000E+00
</event>
<event>
      5  10001  3.52971E+09  3.67125E+00 -1.00000E+00  2.72558E-01
       2    -1     0     0   512     0  0.000000000E+00  0.000000000E+00  1.804006976E+02  1.804006976E+02  0.000000000E+00  0.00000E+00  9.000E+00
      21    -1     0     0   517   512  0.000000000E+00  0.000000000E+00 -1.507317374E+00  1.507317374E+00  0.000000000E+00  0.00000E+00  9.000E+00
      21     1     1     2   517   515 -1.080503632E+01 -3.595347075E+00  2.815006962E+01  3.036612834E+01  6.743495762E-07  0.00000E+00  9.000E+00
      21     1     1     2   515   511  8.755298847E+00  6.639963959E+00  8.684658761E+01  8.753898651E+01  9.536743164E-07  0.00000E+00  9.000E+00
       2     1     1     2   511     0  2.049737474E+00 -3.044616884E+00  6.389672301E+01  6.400290015E+01  3.300000131E-01  0.00000E+00  9.000E+00
</event>
<event>
      5  10001  3.52971E+09  3.51256E+00 -1.00000E+00  2.77509E-01
       2    -1     0     0   512     0  0.000000000E+00  0.000000000E+00  6.987578663E+02  6.987578663E+02  0.000000000E+00  0.00000E+00  9.000E+00
       4    -1     0     0   513     0  0.000000000E+00  0.000000000E+00 -1.340739569E+00  1.340739569E+00  0.000000000E+00  0.00000E+00  9.000E+00
      21     1     1     2   513   511  2.619848197E-01  1.234365399E+01  5.024109002E+01  5.173588268E+01  2.132480600E-06  0.00000E+00  9.000E+00
       2     1     1     2   511     0 -4.623061064E-03 -1.584108415E+01  6.403288595E+02  6.405248607E+02  3.300000131E-01  0.00000E+00  9.000E+00
       4     1     1     2   512     0 -2.573617586E-01  3.497430153E+00  6.847177263E+00  7.837862542E+00  1.500000000E+00  0.00000E+00  9.000E+00
</event>
<event>
      5  10001  3.52971E+09  5.97211E+00 -1.00000E+00  2.25780E-01
      21    -1     0     0   514   511  0.000000000E+00  0.000000000E+00  4.853951304E+02  4.853951304E+02  0.000000000E+00  0.00000E+00  9.000E+00
      21    -1     0     0   515   516  0.000000000E+00  0.000000000E+00 -1.052498658E+01  1.052498658E+01  0.000000000E+00  0.00000E+00  9.000E+00
      21     1     1     2   515   513 -4.474022045E+00 -1.294999379E+01  1.187614335E+02  1.195491417E+02  1.348699152E-06  0.00000E+00  9.000E+00
      21     1     1     2   513   511  4.409155407E+00  6.978240084E+00  3.653090403E+02  3.654022871E+02  0.000000000E+00  0.00000E+00  9.000E+00
      21     1     1     2   514   516  6.486663794E-02  5.971753702E+00 -9.200329912E+00  1.096868818E+01  7.996802250E-07  0.00000E+00  9.000E+00
</event>
<event>
      5  10001  3.52971E+09  5.01986E+00 -1.00000E+00  2.38209E-01
      21    -1     0     0   512   511  0.000000000E+00  0.000000000E+00  2.321438610E+01  2.321438610E+01  0.000000000E+00  0.00000E+00  9.000E+00
       2    -1     0     0   513     0  0.000000000E+00  0.000000000E+00 -1.739638070E+02  1.739638070E+02  0.000000000E+00  0.00000E+00  9.000E+00
      21     1     1     2   513   515 -6.722558131E+00  3.379911053E+00  1.196597643E+01  1.413510447E+01  6.307962682E-07  0.00000E+00  9.000E+00
       2     1     1     2   512     0  6.995848762E+00 -7.187467846E+00 -1.723696455E+02  1.726615336E+02  3.300000131E-01  0.00000E+00  9.000E+00
      21     1     1     2   515   511 -2.732906307E-01  3.807556793E+00  9.654248191E+00  1.038155502E+01  2.064765462E-07  0.00000E+00  9.000E+00
</event>
<event>
      5  10001  3.52971E+09  1.19002E+01 -1.00000E+00  1.87406E-01
       2    -1     0     0   515     0  0.000000000E+00  0.000000000E+00  2.323733141E+02  2.323733141E+02  0.000000000E+00  0.00000E+00  9.000E+00
      21    -1     0     0   514   512  0.000000000E+00  0.000000000E+00 -2.899119049E+00  2.899119049E+00  0.000000000E+00  0.00000E+00  9.000E+00
      21     1     1     2   515   513 -4.207956710E+00  4.160703119E+00  1.877340382E+02  1.878272809E+02  2.697398305E-06  0.00000E+00  9.000E+00
       2     1     1     2   514     0 -2.063967292E+00 -9.345829807E+00  7.259513493E+00  1.201723479E+01  3.300000131E-01  0.00000E+00  9.000E+00
      21     1     1     2   513   512  6.271924002E+00  5.185126687E+00  3.448064330E+01  3.542791741E+01  8.259061849E-07  0.00000E+00  9.000E+00
</event>
<event>
      5  10001  3.52971E+09  3.70934E+00 -1.00000E+00  2.71428E-01
      -5    -1     0     0     0   511  0.000000000E+00  0.000000000E+00  1.942126351E+01  1.942126351E+01  0.000000000E+00  0.00000E+00  9.000E+00
      21    -1     0     0   511   512  0.000000000E+00  0.000000000E+00 -1.142145678E+01  1.142145678E+01  0.000000000E+00  0.00000E+00  9.000E+00
      -5     1     1     2     0   515 -8.077346572E+00  6.766409928E+00  1.363938335E+01  1.789135576E+01  4.800000191E+00  0.00000E+00  9.000E+00
      21     1     1     2   514   512  4.467131428E+00 -3.353763027E+00 -5.703206197E+00  7.983079015E+00  8.429369702E-08  0.00000E+00  9.000E+00
      21     1     1     2   515   514  3.610215144E+00 -3.412646901E+00  6.362958643E-02  4.968285518E+00  4.616392304E-08  0.00000E+00  9.000E+00
</event>
<event>
      5  10001  3.52971E+09  5.23207E+00 -1.00000E+00  2.35117E-01
      21    -1     0     0   513   514  0.000000000E+00  0.000000000E+00  5.258804588E+01  5.258804588E+01  0.000000000E+00  0.00000E+00  9.000E+00
      21    -1     0     0   511   513  0.000000000E+00  0.000000000E+00 -5.501094887E+01  5.501094887E+01  0.000000000E+00  0.00000E+00  9.000E+00
      21     1     1     2   511   516 -1.157849128E+01  5.724081032E+00 -5.327465219E+01  5.481801830E+01  9.536743164E-07  0.00000E+00  9.000E+00
       2     1     1     2   516     0  3.856722288E+00 -1.838024507E+00  2.837901615E+01  2.870069857E+01  3.300000131E-01  0.00000E+00  9.000E+00
      -2     1     1     2     0   514  7.721768991E+00 -3.886056526E+00  2.247273306E+01  2.408027788E+01  3.300000131E-01  0.00000E+00  9.000E+00
</event>
<event>
      5  10001  3.52971E+09  1.05006E+01 -1.00000E+00  1.93332E-01
      -1    -1     0     0     0   512  0.000000000E+00  0.000000000E+00  6.828242386E+02  6.828242386E+02  0.000000000E+00  0.00000E+00  9.000E+00
      21    -1     0     0   512   513  0.000000000E+00  0.000000000E+00 -8.397969785E-01  8.397969785E-01  0.000000000E+00  0.00000E+00  9.000E+00
      21     1     1     2   515   511 -1.805074075E+00  6.197922475E+00  3.562861722E+02  3.563446492E+02  5.394796609E-06  0.00000E+00  9.000E+00
      21     1     1     2   511   513  9.965272165E+00 -3.795266649E+00  3.726949329E+01  3.876500778E+01  6.743495762E-07  0.00000E+00  9.000E+00
      -1     1     1     2     0   515 -8.160198090E+00 -2.402655826E+00  2.884287761E+02  2.885543785E+02  3.300000131E-01  0.00000E+00  9.000E+00
</event>
<event>
      5  10001  3.52971E+09  5.48190E+00 -1.00000E+00  2.31734E-01
      21    -1     0     0   511   513  0.000000000E+00  0.000000000E+00  4.965304047E+02  4.965304047E+02  0.000000000E+00  0.00000E+00  9.000E+00
       2    -1     0     0   512     0  0.000000000E+00  0.000000000E+00 -5.509022690E+02  5.509022690E+02  0.000000000E+00  0.00000E+00  9.000E+00
      21     1     1     2   511   514  6.957138752E+00  9.448678363E+00 -2.766163195E+01  3.004738233E+01  1.994752947E-06  0.00000E+00  9.000E+00
       2     1     1     2   514     0 -9.396601276E+00 -4.539483819E+00 -5.219803877E+02  5.220847987E+02  3.300000131E-01  0.00000E+00  9.000E+00
      21     1     1     2   512   513  2.439462524E+00 -4.909194545E+00  4.952701554E+02  4.953004927E+02  5.394796609E-06  0.00000E+00  9.000E+00
</event>
<event>
      5  10001  3.52971E+09  1.14676E+01 -1.00000E+00  1.89120E-01
      21    -1     0     0   515   514  0.000000000E+00  0.000000000E+00  2.172259210E+00  2.172259210E+00  0.000000000E+00  0.00000E+00  9.000E+00
      21    -1     0     0   512   513  0.000000000E+00  0.000000000E+00 -1.469838924E+02  1.469838924E+02  0.000000000E+00  0.00000E+00  9.000E+00
      21     1     1     2   515   513 -4.032550332E+00  1.272138115E+01 -9.546217171E+01  9.639046233E+01  1.348699152E-06  0.00000E+00  9.000E+00
      21     1     1     2   512   511  2.016205432E+00 -1.124858719E+01 -4.891379154E+01  5.023101433E+01  0.000000000E+00  0.00000E+00  9.000E+00
      21     1     1     2   511   514  2.016344900E+00 -1.472793959E+00 -4.356699408E-01  2.534674949E+00  7.814234854E-08  0.00000E+00  9.000E+00
</event>
<event>
      5  10001  3.52971E+09  6.69887E+00 -1.00000E+00  2.18283E-01
      21    -1     0     0   511   512  0.000000000E+00  0.000000000E+00  5.277008909E-01  5.277008909E-01  0.000000000E+00  0.00000E+00  9.000E+00
       1    -1     0     0   513     0  0.000000000E+00  0.000000000E+00 -7.556936661E+02  7.556936661E+02  0.000000000E+00  0.00000E+00  9.000E+00
      21     1     1     2   514   512 -4.976350155E+00  6.340787500E+00 -4.378999440E+01  4.452564717E+01  4.768371582E-07  0.00000E+00  9.000E+00
       1     1     1     2   511     0  1.162626708E+01 -7.143946150E+00 -3.652882871E+02  3.655432227E+02  3.300000131E-01  0.00000E+00  9.000E+00
      21     1     1     2   513   514 -6.649916920E+00  8.031586498E-01 -3.460876837E+02  3.461524971E+02  3.814697266E-06  0.00000E+00  9.000E+00
</event>
<event>
      5  10001  3.52971E+09  1.25399E+01 -1.00000E+00  1.85036E-01
      21    -1     0     0   515   513  0.000000000E+00  0.000000000E+00  4.689740344E+00  4.689740344E+00  0.000000000E+00  0.00000E+00  9.000E+00
      21    -1     0     0   512   514  0.000000000E+00  0.000000000E+00 -4.298173048E+01  4.298173048E+01  0.000000000E+00  0.00000E+00  9.000E+00
      21     1     1     2   515   514 -7.859114453E+00  4.411271509E+00 -3.106501556E+01  3.234594547E+01  4.768371582E-07  0.00000E+00  9.000E+00
      21     1     1     2   511   513  2.524395042E+00 -5.712410763E+00 -7.581975078E+00  9.822960508E+00  0.000000000E+00  0.00000E+00  9.000E+00
      21     1     1     2   512   511  5.334719411E+00  1.301139255E+00  3.550005044E-01  5.502564848E+00  1.744136201E-07  0.00000E+00  9.000E+00
</event>
<event>
      5  10001  3.52971E+09  2.00942E+01 -1.00000E+00  1.66198E-01
      21    -1     0     0   516   511  0.000000000E+00  0.000000000E+00  7.297539087E+01  7.297539087E+01  0.000000000E+00  0.00000E+00  9.000E+00
      21    -1     0     0   512   517  0.000000000E+00  0.000000000E+00 -5.195239861E+00  5.195239861E+00  0.000000000E+00  0.00000E+00  9.000E+00
      21     1     1     2   516   517 -2.209098541E+00 -6.934851624E+00  9.169252605E-01  7.335736865E+00  2.078164470E-07  0.00000E+00  9.000E+00
      21     1     1     2   513   511  6.550021496E+00  1.248656199E+01  2.813339542E+01  3.146911104E+01  4.768371582E-07  0.00000E+00  9.000E+00
      21     1     1     2   512   513 -4.340922955E+00 -5.551710366E+00  3.872983032E+01  3.936578282E+01  4.768371582E-07  0.00000E+00  9.000E+00
</event>
<event>
      5  10001  3.52971E+09  5.35205E+00 -1.00000E+00  2.33460E-01
      21    -1     0     0   514   511  0.000000000E+00  0.000000000E+00  4.603253443E+00  4.603253443E+00  0.000000000E+00  0.00000E+00  9.000E+00
      21    -1     0     0   512   514  0.000000000E+00  0.000000000E+00 -1.590717779E+02  1.590717779E+02  0.000000000E+00  0.00000E+00  9.000E+00
      21     1     1     2   513   511 -1.149469797E+01  4.666267199E+00 -4.868651637E+00  1.332688635E+01  6.136673773E-07  0.00000E+00  9.000E+00
      21     1     1     2   512   515  8.323609126E+00  2.620769867E-01 -1.102744695E+02  1.105884703E+02  1.348699152E-06  0.00000E+00  9.000E+00
      21     1     1     2   515   513  3.171088842E+00 -4.928344185E+00 -3.932540334E+01  3.975967465E+01  6.743495762E-07  0.00000E+00  9.000E+00
</event>
<event>
      5  10001  3.52971E+09  7.33617E+00 -1.00000E+00  2.12709E-01
       2    -1     0     0   513     0  0.000000000E+00  0.000000000E+00  1.838073026E+02  1.838073026E+02  0.000000000E+00  0.00000E+00  9.000E+00
      21    -1     0     0   511   513  0.000000000E+00  0.000000000E+00 -3.216683001E+01  3.216683001E+01  0.000000000E+00  0.00000E+00  9.000E+00
      21     1     1     2   516   515  8.250225328E+00  1.510490149E+01 -3.387790312E-01  1.721450081E+01  6.535097872E-07  0.00000E+00  9.000E+00
       2     1     1     2   515     0 -1.323016379E+01 -9.717969618E+00  1.743989751E+02  1.751701675E+02  3.300000131E-01  0.00000E+00  9.000E+00
      21     1     1     2   511   516  4.979938462E+00 -5.386931874E+00 -2.241972351E+01  2.358946426E+01  6.307962682E-07  0.00000E+00  9.000E+00
</event>
<event>
      5  10001  3.52971E+09  1.81356E+01 -1.00000E+00  1.69950E-01
      21    -1     0     0   514   511  0.000000000E+00  0.000000000E+00  1.496868518E+02  1.496868518E+02  0.000000000E+00  0.00000E+00  9.000E+00
      21    -1     0     0   512   514  0.000000000E+00  0.000000000E+00 -3.432961578E+00  3.432961578E+00  0.000000000E+00  0.00000E+00  9.000E+00
      -1     1     1     2     0   511 -5.029102249E+00 -1.504907654E+01  8.994253661E+01  9.133200625E+01  3.300000131E-01  0.00000E+00  9.000E+00
       1     1     1     2   513     0 -5.000577196E+00  1.369449598E+01  4.018008089E+01  4.274450600E+01  3.300000131E-01  0.00000E+00  9.000E+00
      21     1     1     2   512   513  1.002967944E+01  1.354580554E+00  1.613127271E+01  1.904330112E+01  2.384185791E-07  0.00000E+00  9.000E+00
</event>
<event>
      5  10001  3.52971E+09  3.54345E+00 -1.00000E+00  2.76513E-01
      21    -1     0     0   515   512  0.000000000E+00  0.000000000E+00  3.484173528E+01  3.484173528E+01  0.000000000E+00  0.00000E+00  9.000E+00
       1    -1     0     0   511     0  0.000000000E+00  0.000000000E+00 -9.165227346E+00  9.165227346E+00  0.000000000E+00  0.00000E+00  9.000E+00
      21     1     1     2   515   516  3.840592011E+00 -1.096222509E+01  2.279482366E+01  2.558367667E+01  3.371747881E-07  0.00000E+00  9.000E+00
      21     1     1     2   511   512 -7.270649001E+00  1.184773173E+01  4.362995604E+00  1.456937935E+01  3.722308873E-07  0.00000E+00  9.000E+00
       1     1     1     2   516     0  3.430056990E+00 -8.855066313E-01 -1.481311327E+00  3.853906616E+00  3.300000131E-01  0.00000E+00  9.000E+00
</event>
<event>
      5  10001  3.52971E+09  6.32550E+00 -1.00000E+00  2.21961E-01
      21    -1     0     0   512   511  0.000000000E+00  0.000000000E+00  7.209146528E+01  7.209146528E+01  0.000000000E+00  0.00000E+00  9.000E+00
      21    -1     0     0   516   514  0.000000000E+00  0.000000000E+00 -2.093605785E+02  2.093605785E+02  0.000000000E+00  0.00000E+00  9.000E+00
      21     1     1     2   513   514 -2.551295508E+00 -1.022027036E+01 -1.699732032E+00  1.067015108E+01  7.348554138E-07  0.00000E+00  9.000E+00
      21     1     1     2   516   511 -3.016504896E+00  1.322220025E+01 -2.028007006E+02  2.032536594E+02  3.814697266E-06  0.00000E+00  9.000E+00
      21     1     1     2   512   513  5.567800404E+00 -3.001929888E+00  6.723131943E+01  6.752823333E+01  1.651812370E-06  0.00000E+00  9.000E+00
</event>
<event>
      5  10001  3.52971E+09  1.02207E+01 -1.00000E+00  1.94663E-01
      21    -1     0     0   515   511  0.000000000E+00  0.000000000E+00  4.189582890E+02  4.189582890E+02  0.000000000E+00  0.00000E+00  9.000E+00
      21    -1     0     0   517   514  0.000000000E+00  0.000000000E+00 -8.194618811E+00  8.194618811E+00  0.000000000E+00  0.00000E+00  9.000E+00
      21     1     1     2   516   511 -2.089587986E+00  9.527318480E+00  3.246946369E+02  3.248411049E+02  3.814697266E-06  0.00000E+00  9.000E+00
      21     1     1     2   517   516  1.211560487E+01 -1.151288213E+01  8.986721133E+01  9.140815067E+01  2.132480600E-06  0.00000E+00  9.000E+00
      21     1     1     2   515   514 -1.002601688E+01  1.985563645E+00 -3.798178013E+00  1.090365231E+01  4.578319638E-07  0.00000E+00  9.000E+00
</event>
<event>
      5  10001  3.52971E+09  4.85959E+00 -1.00000E+00  2.45013E-01
       2    -1     0     0   514     0  0.000000000E+00  0.000000000E+00  8.160051033E+01  8.160051033E+01  0.000000000E+00  0.00000E+00  9.000E+00
      21    -1     0     0   512   513  0.000000000E+00  0.000000000E+00 -2.250255314E+00  2.250255314E+00  0.000000000E+00  0.00000E+00  9.000E+00
      21     1     1     2   511   513  4.291026051E+00  1.549441903E+00  4.060444383E+00  6.107444913E+00  1.032382731E-07  0.00000E+00  9.000E+00
       2     1     1     2   512     0 -1.112519167E+01 -2.153480958E+00  5.880558990E+01  5.988834339E+01  3.300000131E-01  0.00000E+00  9.000E+00
      21     1     1     2   514   511  6.834165615E+00  6.040390542E-01  1.648422073E+01  1.785497734E+01  2.384185791E-07  0.00000E+00  9.000E+00
</event>
<event>
      5  10001  3.52971E+09  6.44077E+00 -1.00000E+00  2.20789E-01
      21    -1     0     0   515   512  0.000000000E+00  0.000000000E+00  1.762619435E+01  1.762619435E+01  0.000000000E+00  0.00000E+00  9.000E+00
      21    -1     0     0   516   511  0.000000000E+00  0.000000000E+00 -3.055272728E+01  3.055272728E+01  0.000000000E+00  0.00000E+00  9.000E+00
      21     1     1     2   515   511  9.959967690E+00  4.194350984E+00  1.416985197E+01  1.782072506E+01  2.384185791E-07  0.00000E+00  9.000E+00
      21     1     1     2   516   513 -4.630898790E+00 -6.315807061E+00 -1.760342260E+01  1.926694396E+01  4.129530925E-07  0.00000E+00  9.000E+00
      21     1     1     2   513   512 -5.329068900E+00  2.121456077E+00 -9.492962307E+00  1.109125262E+01  1.192092896E-07  0.00000E+00  9.000E+00
</event>
<event>
      5  10001  3.52971E+09  3.39218E+00 -1.00000E+00  2.81553E-01
       1    -1     0     0   514     0  0.000000000E+00  0.000000000E+00  1.862139204E+00  1.862139204E+00  0.000000000E+00  0.00000E+00  9.000E+00
      -3    -1     0     0     0   514  0.000000000E+00  0.000000000E+00 -3.185203241E+02  3.185203241E+02  0.000000000E+00  0.00000E+00  9.000E+00
      -3     1     1     2     0   513  2.156921120E+00  1.047623628E+01 -2.567726088E+02  2.569957713E+02  5.000000000E-01  0.00000E+00  9.000E+00
      21     1     1     2   513   512 -5.017936029E+00 -8.654921683E+00 -5.903214711E+01  5.987388198E+01  0.000000000E+00  0.00000E+00  9.000E+00
       1     1     1     2   512     0  2.861014909E+00 -1.821314597E+00 -8.534289788E-01  3.512810015E+00  3.300000131E-01  0.00000E+00  9.000E+00
</event>
<event>
      5  10001  3.52971E+09  5.06714E+00 -1.00000E+00  2.37502E-01
      21    -1     0     0   514   513  0.000000000E+00  0.000000000E+00  2.949555298E+00  2.949555298E+00  0.000000000E+00  0.00000E+00  9.000E+00
       2    -1     0     0   513     0  0.000000000E+00  0.000000000E+00 -4.357336636E+02  4.357336636E+02  0.000000000E+00  0.00000E+00  9.000E+00
      21     1     1     2   512   511  5.526641819E+00  1.449488986E+01 -2.923470784E+01  3.309552454E+01  8.259061849E-07  0.00000E+00  9.000E+00
       2     1     1     2   511     0 -8.176617885E+00 -1.017604674E+01 -3.974225822E+02  3.976370541E+02  3.300000131E-01  0.00000E+00  9.000E+00
      21     1     1     2   514   512  2.649976066E+00 -4.318843122E+00 -6.126818163E+00  7.950640217E+00  0.000000000E+00  0.00000E+00  9.000E+00
</event>
<event>
      5  10001  3.52971E+09  3.54527E+01 -1.00000E+00  1.48165E-01
      21    -1     0     0   515   513  0.000000000E+00  0.000000000E+00  1.338961527E+01  1.338961527E+01  0.000000000E+00  0.00000E+00  9.000E+00
       2    -1     0     0   511     0  0.000000000E+00  0.000000000E+00 -9.480010748E+01  9.480010748E+01  0.000000000E+00  0.00000E+00  9.000E+00
      21     1     1     2   511   513 -2.936438669E+01 -7.303407119E+00 -3.079156206E+01  4.317090751E+01  8.920806376E-07  0.00000E+00  9.000E+00
      21     1     1     2   515   516  1.123224485E+01 -9.727862287E+00 -1.209277239E+01  1.915802111E+01  2.920019320E-07  0.00000E+00  9.000E+00
       2     1     1     2   516     0  1.813214185E+01  1.703126941E+01 -3.852615777E+01  4.586079412E+01  3.300000131E-01  0.00000E+00  9.000E+00
</event>
<event>
      5  10001  3.52971E+09  5.12695E+00 -1.00000E+00  2.36622E-01
       2    -1     0     0   512     0  0.000000000E+00  0.000000000E+00  2.228318240E+02  2.228318240E+02  0.000000000E+00  0.00000E+00  9.000E+00
       1    -1     0     0   511     0  0.000000000E+00  0.000000000E+00 -2.173151126E+00  2.173151126E+00  0.000000000E+00  0.00000E+00  9.000E+00
       1     1     1     2   512     0  3.624098462E+00 -1.191540877E+01  1.784397475E+01  2.176298212E+01  3.300000131E-01  0.00000E+00  9.000E+00
      21     1     1     2   511   513 -1.235892099E+00  6.591802022E+00  7.695612374E+01  7.724781074E+01  9.536743164E-07  0.00000E+00  9.000E+00
       2     1     1     2   513     0 -2.388206363E+00  5.323606751E+00  1.258585744E+02  1.259941823E+02  3.300000131E-01  0.00000E+00  9.000E+00
</event>
<event>
      5  10001  3.52971E+09  4.80543E+00 -1.00000E+00  2.46001E-01
      21    -1     0     0   514   511  0.000000000E+00  0.000000000E+00  9.357429713E+01  9.357429713E+01  0.000000000E+00  0.00000E+00  9.000E+00
      21    -1     0     0   516   515  0.000000000E+00  0.000000000E+00 -8.364723429E+00  8.364723429E+00  0.000000000E+00  0.00000E+00  9.000E+00
      21     1     1     2   514   515  1.948739614E-01 -1.306008669E+01 -2.411817970E+00  1.328234566E+01  2.563692709E-07  0.00000E+00  9.000E+00
      21     1     1     2   512   511  1.351595458E+00  5.127593414E+00  2.900283905E+01  2.948361745E+01  3.371747881E-07  0.00000E+00  9.000E+00
      21     1     1     2   516   512 -1.546469420E+00  7.932493280E+00  5.861855262E+01  5.917305745E+01  1.168007728E-06  0.00000E+00  9.000E+00
</event>
<event>
      5  10001  3.52971E+09  4.83885E+00 -1.00000E+00  2.45389E-01
      21    -1     0     0   513   512  0.000000000E+00  0.000000000E+00  2.577941873E+02  2.577941873E+02  0.000000000E+00  0.00000E+00  9.000E+00
      21    -1     0     0   516   513  0.000000000E+00  0.000000000E+00 -2.344603492E+01  2.344603492E+01  0.000000000E+00  0.00000E+00  9.000E+00
      21     1     1     2   516   517 -8.366439910E+00 -7.131452846E+00 -2.189318197E+01  2.449829286E+01  3.371747881E-07  0.00000E+00  9.000E+00
      21     1     1     2   511   512  9.860483625E+00  9.185411051E+00  2.186644732E+02  2.190793298E+02  3.814697266E-06  0.00000E+00  9.000E+00
      21     1     1     2   517   511 -1.494043715E+00 -2.053958205E+00  3.757686112E+01  3.766259952E+01  4.768371582E-07  0.00000E+00  9.000E+00
</event>
<event>
      5  10001  3.52971E+09  1.13297E+01 -1.00000E+00  1.89687E-01
      -2    -1     0     0     0   514  0.000000000E+00  0.000000000E+00  3.661050937E+00  3.661050937E+00  0.000000000E+00  0.00000E+00  9.000E+00
      21    -1     0     0   512   511  0.000000000E+00  0.000000000E+00 -7.923571474E+01  7.923571474E+01  0.000000000E+00  0.00000E+00  9.000E+00
      -2     1     1     2     0   511 -6.889130402E+00 -5.414456144E+00 -5.748336743E+00  1.048469019E+01  3.300000131E-01  0.00000E+00  9.000E+00
      21     1     1     2   513   514  7.744862992E+00 -1.308435608E-01 -6.343954421E+01  6.391068606E+01  6.743495762E-07  0.00000E+00  9.000E+00
      21     1     1     2   512   513 -8.557325901E-01  5.545299705E+00 -6.386782850E+00  8.501389431E+00  1.460009660E-07  0.00000E+00  9.000E+00
</event>
<event>
      5  10001  3.52971E+09  5.68276E+00 -1.00000E+00  2.29193E-01
      21    -1     0     0   512   513  0.000000000E+00  0.000000000E+00  2.839589374E+00  2.839589374E+00  0.000000000E+00  0.00000E+00  9.000E+00
       1    -1     0     0   514     0  0.000000000E+00  0.000000000E+00 -5.146184674E+01  5.146184674E+01  0.000000000E+00  0.00000E+00  9.000E+00
      21     1     1     2   514   513 -8.052731004E+00 -7.003649694E+00 -1.853309042E+01  2.138628126E+01  3.371747881E-07  0.00000E+00  9.000E+00
       1     1     1     2   511     0  5.466611489E+00  5.293645158E+00 -2.836036319E+01  2.936538133E+01  3.300000131E-01  0.00000E+00  9.000E+00
      21     1     1     2   512   511  2.586119515E+00  1.710004536E+00 -1.728803759E+00  3.549773528E+00  1.095007245E-07  0.00000E+00  9.000E+00
</event>
<event>
      5  10001  3.52971E+09  7.58908E+00 -1.00000E+00  2.10705E-01
      -1    -1     0     0     0   515  0.000000000E+00  0.000000000E+00  1.922261705E+00  1.922261705E+00  0.000000000E+00  0.00000E+00  9.000E+00
      21    -1     0     0   512   511  0.000000000E+00  0.000000000E+00 -7.264222946E+01  7.264222946E+01  0.000000000E+00  0.00000E+00  9.000E+00
      -1     1     1     2     0   511  6.100579264E-01  1.125265516E+01 -2.722286582E+01  2.946502575E+01  3.300000131E-01  0.00000E+00  9.000E+00
      21     1     1     2   513   515 -1.598990905E+00 -1.817997029E+00 -9.499242806E+00  9.802933183E+00  1.685873940E-07  0.00000E+00  9.000E+00
      21     1     1     2   512   513  9.889329791E-01 -9.434658130E+00 -3.399785913E+01  3.529653223E+01  0.000000000E+00  0.00000E+00  9.000E+00
</event>
<event>
      5  10001  3.52971E+09  1.10354E+01 -1.00000E+00  1.90933E-01
      21    -1     0     0   514   511  0.000000000E+00  0.000000000E+00  2.333512955E+01  2.333512955E+01  0.000000000E+00  0.00000E+00  9.000E+00
      21    -1     0     0   512   516  0.000000000E+00  0.000000000E+00 -8.574004769E+01  8.574004769E+01  0.000000000E+00  0.00000E+00  9.000E+00
      21     1     1     2   514   516  6.805330536E+00 -1.387487045E+01  1.827511332E+01  2.393333075E+01  4.129530925E-07  0.00000E+00  9.000E+00
      21     1     1     2   515   511  1.693846042E+00  1.097092763E+01 -7.128558483E+01  7.214475014E+01  9.536743164E-07  0.00000E+00  9.000E+00
      21     1     1     2   512   515 -8.499176579E+00  2.903942822E+00 -9.394446623E+00  1.299709636E+01  1.192092896E-07  0.00000E+00  9.000E+00
</event>
<event>
      5  10001  3.52971E+09  6.81961E+00 -1.00000E+00  2.17163E-01
      21    -1     0     0   513   515  0.000000000E+00  0.000000000E+00  2.195060281E+02  2.195060281E+02  0.000000000E+00  0.00000E+00  9.000E+00
      21    -1     0     0   511   517  0.000000000E+00  0.000000000E+00 -1.145472680E+01  1.145472680E+01  0.000000000E+00  0.00000E+00  9.000E+00
      21     1     1     2   513   517 -3.690000046E+00 -8.273111203E+00  1.748817318E+00  9.225986740E+00  4.303315007E-07  0.00000E+00  9.000E+00
      21     1     1     2   512   515  1.048013498E+01  7.639730825E+00  2.122742426E+02  2.126700562E+02  3.814697266E-06  0.00000E+00  9.000E+00
      21     1     1     2   511   512 -6.790134935E+00  6.333803785E-01 -5.971758603E+00  9.064712017E+00  1.884864366E-07  0.00000E+00  9.000E+00
</event>
<event>
      5  10001  3.52971E+09  6.24343E+00 -1.00000E+00  2.22816E-01
      21    -1     0     0   514   512  0.000000000E+00  0.000000000E+00  1.545636747E+01  1.545636747E+01  0.000000000E+00  0.00000E+00  9.000E+00
      21    -1     0     0   511   513  0.000000000E+00  0.000000000E+00 -3.786997065E+02  3.786997065E+02  0.000000000E+00  0.00000E+00  9.000E+00
      21     1     1     2   514   516 -9.915901661E+00 -5.471812685E+00  1.288242583E+01  1.715292206E+01  1.283923342E-06  0.00000E+00  9.000E+00
      21     1     1     2   511   512  1.568942917E+01  3.095507897E+00 -1.622325586E+02  1.630188438E+02  3.303624740E-06  0.00000E+00  9.000E+00
      21     1     1     2   516   513 -5.773527511E+00  2.376304789E+00 -2.138932063E+02  2.139843082E+02  0.000000000E+00  0.00000E+00  9.000E+00
</event>
<event>
      5  10001  3.52971E+09  5.94476E+00 -1.00000E+00  2.26091E-01
      21    -1     0     0   513   511  0.000000000E+00  0.000000000E+00  2.676992498E+01  2.676992498E+01  0.000000000E+00  0.00000E+00  9.000E+00
      21    -1     0     0   515   513  0.000000000E+00  0.000000000E+00 -7.367793487E+00  7.367793487E+00  0.000000000E+00  0.00000E+00  9.000E+00
      -4     1     1     2     0   511  9.264029627E+00 -7.508868237E+00  1.604933880E+01  2.005085093E+01  1.500000000E+00  0.00000E+00  9.000E+00
      21     1     1     2   515   512 -4.699741262E+00  2.486788175E+00 -1.599936849E+00  5.552610312E+00  5.575503985E-08  0.00000E+00  9.000E+00
       4     1     1     2   512     0 -4.564288365E+00  5.022080062E+00  4.952729538E+00  8.534257220E+00  1.500000000E+00  0.00000E+00  9.000E+00
</event>
<event>
      5  10001  3.52971E+09  1.77909E+01 -1.00000E+00  1.70672E-01
      21    -1     0     0   514   512  0.000000000E+00  0.000000000E+00  4.294442765E+01  4.294442765E+01  0.000000000E+00  0.00000E+00  9.000E+00
      21    -1     0     0   511   514  0.000000000E+00  0.000000000E+00 -2.932768976E+02  2.932768976E+02  0.000000000E+00  0.00000E+00  9.000E+00
      21     1     1     2   515   512 -8.433396990E-02 -2.443174113E+01  3.337341517E+01  4.136063257E+01  6.743495762E-07  0.00000E+00  9.000E+00
      21     1     1     2   516   515 -1.764742231E+01  2.588083401E+01 -4.146436079E+01  5.196674224E+01  6.743495762E-07  0.00000E+00  9.000E+00
      21     1     1     2   511   516  1.773175628E+01 -1.449092873E+00 -2.422415243E+02  2.428939504E+02  2.697398305E-06  0.00000E+00  9.000E+00
</event>
<event>
      5  10001  3.52971E+09  6.46359E+00 -1.00000E+00  2.20561E-01
      21    -1     0     0   513   512  0.000000000E+00  0.000000000E+00  7.792334271E+01  7.792334271E+01  0.000000000E+00  0.00000E+00  9.000E+00
      21    -1     0     0   511   513  0.000000000E+00  0.000000000E+00 -3.476338063E+00  3.476338063E+00  0.000000000E+00  0.00000E+00  9.000E+00
      21     1     1     2   511   517  1.227678175E+01 -4.392679992E+00  1.315641219E+01  1.852312580E+01  2.384185791E-07  0.00000E+00  9.000E+00
      21     1     1     2   517   514 -3.251457581E+00  3.504798184E+00  2.622608182E+01  2.665826240E+01  0.000000000E+00  0.00000E+00  9.000E+00
      21     1     1     2   514   512 -9.025324169E+00  8.878818080E-01  3.506451064E+01  3.621829258E+01  4.768371582E-07  0.00000E+00  9.000E+00
</event>
<event>
      5  10001  3.52971E+09  2.66696E+00 -1.00000E+00  3.13277E-01
      -1    -1     0     0     0   512  0.000000000E+00  0.000000000E+00  1.836977566E+01  1.836977566E+01  0.000000000E+00  0.00000E+00  9.000E+00
      21    -1     0     0   512   513  0.000000000E+00  0.000000000E+00 -1.478474907E+01  1.478474907E+01  0.000000000E+00  0.00000E+00  9.000E+00
      21     1     1     2   515   511  2.539831594E+00 -8.699468905E+00  8.446617583E+00  1.238857749E+01  2.384185791E-07  0.00000E+00  9.000E+00
      21     1     1     2   511   513 -5.491619270E+00  1.071799983E+01 -9.184799039E+00  1.514575637E+01  2.064765462E-07  0.00000E+00  9.000E+00
      -1     1     1     2     0   515  2.951787676E+00 -2.018530924E+00  4.323208051E+00  5.620190872E+00  3.300000131E-01  0.00000E+00  9.000E+00
</event>
<event>
      5  10001  3.52971E+09  5.25467E+00 -1.00000E+00  2.34800E-01
      21    -1     0     0   511   512  0.000000000E+00  0.000000000E+00  2.480176358E+01  2.480176358E+01  0.000000000E+00  0.00000E+00  9.000E+00
       3    -1     0     0   512     0  0.000000000E+00  0.000000000E+00 -5.989025501E+00  5.989025501E+00  0.000000000E+00  0.00000E+00  9.000E+00
      21     1     1     2   513   514 -7.906395297E-01 -2.585128586E+00  6.294591300E+00  6.850538687E+00  1.192092896E-07  0.00000E+00  9.000E+00
       3     1     1     2   514     0 -1.578224314E+00  1.017866286E+01  1.606169687E+00  1.043675000E+01  5.000000000E-01  0.00000E+00  9.000E+00
      21     1     1     2   511   513  2.368863844E+00 -7.593534274E+00  1.091197709E+01  1.350350039E+01  3.953724850E-07  0.00000E+00  9.000E+00
</event>
<event>
      5  10001  3.52971E+09  5.80787E+00 -1.00000E+00  2.27683E-01
      21    -1     0     0   511   514  0.000000000E+00  0.000000000E+00  1.908500406E+01  1.908500406E+01  0.000000000E+00  0.00000E+00  9.000E+00
       1    -1     0     0   512     0  0.000000000E+00  0.000000000E+00 -8.431933356E+01  8.431933356E+01  0.000000000E+00  0.00000E+00  9.000E+00
       1     1     1     2   511     0  8.470379157E+00  1.276760355E+01 -7.384261644E+01  7.541617815E+01  3.300000131E-01  0.00000E+00  9.000E+00
       2     1     1     2   512     0 -4.459577816E+00 -8.567900821E+00 -6.601515034E+00  1.170408730E+01  3.300000131E-01  0.00000E+00  9.000E+00
      -2     1     1     2     0   514 -4.010801340E+00 -4.199702733E+00  1.520980197E+01  1.628407217E+01  3.300000131E-01  0.00000E+00  9.000E+00
</event>
<event>
      5  10001  3.52971E+09  3.74013E+00 -1.00000E+00  2.70530E-01
      21    -1     0     0   511   512  0.000000000E+00  0.000000000E+00  2.129566536E+02  2.129566536E+02  0.000000000E+00  0.00000E+00  9.000E+00
      21    -1     0     0   514   513  0.000000000E+00  0.000000000E+00 -2.625464302E+00  2.625464302E+00  0.000000000E+00  0.00000E+00  9.000E+00
      21     1     1     2   514   515  1.063364676E+01  1.110057848E+01  3.091465218E+01  3.452554135E+01  5.840038640E-07  0.00000E+00  9.000E+00
      21     1     1     2   515   512 -8.102835363E+00 -8.346746971E+00  4.178072189E+01  4.336995328E+01  8.259061849E-07  0.00000E+00  9.000E+00
      21     1     1     2   511   513 -2.530811399E+00 -2.753831512E+00  1.376358152E+02  1.376866233E+02  0.000000000E+00  0.00000E+00  9.000E+00
</event>
<event>
      5  10001  3.52971E+09  1.70179E+01 -1.00000E+00  1.72367E-01
       2    -1     0     0   511     0  0.000000000E+00  0.000000000E+00  3.209502341E+00  3.209502341E+00  0.000000000E+00  0.00000E+00  9.000E+00
       1    -1     0     0   512     0  0.000000000E+00  0.000000000E+00 -4.958201829E+02  4.958201829E+02  0.000000000E+00  0.00000E+00  9.000E+00
      21     1     1     2   511   514 -4.296561223E+00  1.641316072E+00 -1.876309156E+02  1.876872794E+02  2.697398305E-06  0.00000E+00  9.000E+00
       2     1     1     2   512     0  3.902517545E+00  1.078107530E+01 -7.728226825E+00  1.383096590E+01  3.300000131E-01  0.00000E+00  9.000E+00
       1     1     1     2   514     0  3.940436788E-01 -1.242239137E+01 -2.972515381E+02  2.975114400E+02  3.300000131E-01  0.00000E+00  9.000E+00
</event>
<event>
      5  10001  3.52971E+09  5.95170E+00 -1.00000E+00  2.26012E-01
      21    -1     0     0   511   512  0.000000000E+00  0.000000000E+00  8.480285293E+02  8.480285293E+02  0.000000000E+00  0.00000E+00  9.000E+00
      21    -1     0     0   515   513  0.000000000E+00  0.000000000E+00 -7.693667350E+00  7.693667350E+00  0.000000000E+00  0.00000E+00  9.000E+00
      21     1     1     2   515   516 -1.176614297E+01 -1.514459476E+01  4.731500851E+00  1.975317623E+01  1.319405056E-06  0.00000E+00  9.000E+00
      21     1     1     2   516   512  5.820333979E+00  1.487994736E+01  3.916673543E+02  3.919931192E+02  5.394796609E-06  0.00000E+00  9.000E+00
      21     1     1     2   511   513  5.945808987E+00  2.646473980E-01  4.439360068E+02  4.439759012E+02  5.394796609E-06  0.00000E+00  9.000E+00
</event>
<event>
      5  10001  3.52971E+09  1.28775E+01 -1.00000E+00  1.83858E-01
       2    -1     0     0   512     0  0.000000000E+00  0.000000000E+00  5.652519654E+01  5.652519654E+01  0.000000000E+00  0.00000E+00  9.000E+00
      21    -1     0     0   511   513  0.000000000E+00  0.000000000E+00 -2.279416109E+02  2.279416109E+02  0.000000000E+00  0.00000E+00  9.000E+00
      21     1     1     2   514   513  1.013242645E+01  2.081129920E+01 -2.216373116E+02  2.228427117E+02  2.697398305E-06  0.00000E+00  9.000E+00
       2     1     1     2   511     0 -1.880321769E+01 -1.129041300E+01  3.796795956E+01  4.384870893E+01  3.300000131E-01  0.00000E+00  9.000E+00
      21     1     1     2   512   514  8.670791241E+00 -9.520886192E+00  1.225293770E+01  1.777538683E+01  3.371747881E-07  0.00000E+00  9.000E+00
</event>
<event>
      5  10001  3.52971E+09  4.44261E+00 -1.00000E+00  2.53166E-01
      21    -1     0     0   515   513  0.000000000E+00  0.000000000E+00  7.692827983E+01  7.692827983E+01  0.000000000E+00  0.00000E+00  9.000E+00
      21    -1     0     0   516   514  0.000000000E+00  0.000000000E+00 -1.079861947E+01  1.079861947E+01  0.000000000E+00  0.00000E+00  9.000E+00
      21     1     1     2   515   514  1.272257455E+01 -1.892152362E+00  3.414699193E+01  3.648919294E+01  6.743495762E-07  0.00000E+00  9.000E+00
      21     1     1     2   516   511 -1.704728951E+01  8.754883886E-01 -1.799797735E+00  1.716437682E+01  2.598106231E-07  0.00000E+00  9.000E+00
      21     1     1     2   511   513  4.324714960E+00  1.016663974E+00  3.378246617E+01  3.407332954E+01  0.000000000E+00  0.00000E+00  9.000E+00
</event>
<event>
      5  10001  3.52971E+09  1.10838E+01 -1.00000E+00  1.90725E-01
      21    -1     0     0   512   514  0.000000000E+00  0.000000000E+00  3.032038315E+01  3.032038315E+01  0.000000000E+00  0.00000E+00  9.000E+00
      21    -1     0     0   517   513  0.000000000E+00  0.000000000E+00 -4.318281214E+01  4.318281214E+01  0.000000000E+00  0.00000E+00  9.000E+00
      21     1     1     2   512   513 -1.284590623E+01  5.421109131E+00 -3.983628446E+01  4.220586796E+01  8.259061849E-07  0.00000E+00  9.000E+00
      21     1     1     2   515   514  3.673436248E+00  1.755075760E+00  9.031373014E+00  9.906569705E+00  1.192092896E-07  0.00000E+00  9.000E+00
      21     1     1     2   517   515  9.172469980E+00 -7.176184891E+00  1.794248245E+01  2.139075762E+01  3.371747881E-07  0.00000E+00  9.000E+00
</event>
<event>
      5  10001  3.52971E+09  7.21747E+01 -1.00000E+00  1.30549E-01
      21    -1     0     0   511   514  0.000000000E+00  0.000000000E+00  1.201885513E+01  1.201885513E+01  0.000000000E+00  0.00000E+00  9.000E+00
       2    -1     0     0   515     0  0.000000000E+00  0.000000000E+00 -3.637226722E+02  3.637226722E+02  0.000000000E+00  0.00000E+00  9.000E+00
      21     1     1     2   512   514 -2.741687396E+00 -1.032630065E+01 -2.336936687E+01  2.569584874E+01  3.371747881E-07  0.00000E+00  9.000E+00
       2     1     1     2   511     0 -3.732966105E+00  1.653163148E+01 -3.370878264E+02  3.375137649E+02  3.300000131E-01  0.00000E+00  9.000E+00
      21     1     1     2   515   512  6.474653500E+00 -6.205330833E+00  8.753376137E+00  1.253191376E+01  8.513246093E-07  0.00000E+00  9.000E+00
</event>
<event>
      5  10001  3.52971E+09  5.59034E+00 -1.00000E+00  2.30343E-01
      21    -1     0     0   513   515  0.000000000E+00  0.000000000E+00  6.170199928E+01  6.170199928E+01  0.000000000E+00  0.00000E+00  9.000E+00
      21    -1     0     0   514   512  0.000000000E+00  0.000000000E+00 -2.249347096E+01  2.249347096E+01  0.000000000E+00  0.00000E+00  9.000E+00
      21     1     1     2   513   512 -1.949089479E+00  1.060078809E+01 -2.056632549E+01  2.321959091E+01  6.307962682E-07  0.00000E+00  9.000E+00
      21     1     1     2   514   511  3.412908042E+00 -6.024780352E+00  2.820393928E+01  2.904148947E+01  3.371747881E-07  0.00000E+00  9.000E+00
      21     1     1     2   511   515 -1.463818563E+00 -4.576007739E+00  3.157091452E+01  3.193438985E+01  3.371747881E-07  0.00000E+00  9.000E+00
</event>
<event>
      5  10001  3.52971E+09  2.71665E+00 -1.00000E+00  3.10575E-01
      -4    -1     0     0     0   515  0.000000000E+00  0.000000000E+00  3.402941510E+02  3.402941510E+02  0.000000000E+00  0.00000E+00  9.000E+00
      -3    -1     0     0     0   511  0.000000000E+00  0.000000000E+00 -4.634552072E-01  4.634552072E-01  0.000000000E+00  0.00000E+00  9.000E+00
      21     1     1     2   512   511 -3.816455745E+00 -2.163567460E+00  1.008592038E+02  1.009545707E+02  1.348699152E-06  0.00000E+00  9.000E+00
      -3     1     1     2     0   515  9.721988320E+00  2.919532558E+00  7.146406226E+01  7.218312075E+01  5.000000000E-01  0.00000E+00  9.000E+00
      -4     1     1     2     0   512 -5.905532574E+00 -7.559650979E-01  1.675074297E+02  1.676199147E+02  1.500000000E+00  0.00000E+00  9.000E+00
</event>
<event>
      5  10001  3.52971E+09  4.65821E+00 -1.00000E+00  2.48789E-01
       2    -1     0     0   512     0  0.000000000E+00  0.000000000E+00  5.638447398E+02  5.638447398E+02  0.000000000E+00  0.00000E+00  9.000E+00
      -2    -1     0     0     0   512  0.000000000E+00  0.000000000E+00 -2.028412197E+00  2.028412197E+00  0.000000000E+00  0.00000E+00  9.000E+00
      -2     1     1     2     0   513 -1.242843682E+01  1.139427043E+01  3.593761441E+01  3.969781443E+01  3.300000131E-01  0.00000E+00  9.000E+00
      21     1     1     2   513   511  8.642315784E+00 -4.394642790E+00  2.949499152E+02  2.951092256E+02  3.814697266E-06  0.00000E+00  9.000E+00
       2     1     1     2   511     0  3.786121038E+00 -6.999627639E+00  2.309287979E+02  2.310661120E+02  3.300000131E-01  0.00000E+00  9.000E+00
</event>
<event>
      5  10001  3.52971E+09  4.66013E+00 -1.00000E+00  2.48752E-01
      21    -1     0     0   514   513  0.000000000E+00  0.000000000E+00  1.481159938E+00  1.481159938E+00  0.000000000E+00  0.00000E+00  9.000E+00
      21    -1     0     0   516   515  0.000000000E+00  0.000000000E+00 -5.733993297E+02  5.733993297E+02  0.000000000E+00  0.00000E+00  9.000E+00
      21     1     1     2   514   515 -9.729030574E+00  5.698597047E+00 -5.357209153E+02  5.358395535E+02  7.629394531E-06  0.00000E+00  9.000E+00
      21     1     1     2   516   512  4.750382352E+00 -4.409925529E+00 -7.616712081E+00  1.000139383E+01  3.769728732E-07  0.00000E+00  9.000E+00
      21     1     1     2   512   513  4.978648221E+00 -1.288671518E+00 -2.858054238E+01  2.903954226E+01  0.000000000E+00  0.00000E+00  9.000E+00
</event>
<event>
      5  10001  3.52971E+09  5.32296E+00 -1.00000E+00  2.33856E-01
      21    -1     0     0   511   515  0.000000000E+00  0.000000000E+00  3.383547109E+00  3.383547109E+00  0.000000000E+00  0.00000E+00  9.000E+00
      21    -1     0     0   513   511  0.000000000E+00  0.000000000E+00 -8.567659031E+02  8.567659031E+02  0.000000000E+00  0.00000E+00  9.000E+00
      21     1     1     2   513   517 -1.294721711E+00  1.028298623E+01 -8.451000975E+02  8.451636475E+02  1.078959322E-05  0.00000E+00  9.000E+00
      21     1     1     2   517   514  3.605627184E+00 -4.661350876E+00 -1.947120562E+00  6.206449699E+00  5.314515382E-07  0.00000E+00  9.000E+00
      21     1     1     2   514   515 -2.310905472E+00 -5.621635353E+00 -6.335137902E+00  8.779353073E+00  2.920019320E-07  0.00000E+00  9.000E+00
</event>
<event>
      5  10001  3.52971E+09  4.18738E+00 -1.00000E+00  2.58864E-01
      21    -1     0     0   511   514  0.000000000E+00  0.000000000E+00  3.136715135E+00  3.136715135E+00  0.000000000E+00  0.00000E+00  9.000E+00
       3    -1     0     0   515     0  0.000000000E+00  0.000000000E+00 -2.044415348E+02  2.044415348E+02  0.000000000E+00  0.00000E+00  9.000E+00
      21     1     1     2   515   514  8.513114460E+00 -2.535100936E+00 -2.554167646E+01  2.704213547E+01  1.545128989E-06  0.00000E+00  9.000E+00
       3     1     1     2   512     0 -1.244067654E+01  1.084336640E+00 -1.759034025E+02  1.763468265E+02  5.000000000E-01  0.00000E+00  9.000E+00
      21     1     1     2   511   512  3.927562079E+00  1.450764296E+00  1.402592631E-01  4.189287957E+00  1.993465460E-07  0.00000E+00  9.000E+00
</event>
<event>
      5  10001  3.52971E+09  4.19600E+00 -1.00000E+00  2.58661E-01
      21    -1     0     0   513   512  0.000000000E+00  0.000000000E+00  4.283358230E+00  4.283358230E+00  0.000000000E+00  0.00000E+00  9.000E+00
      21    -1     0     0   511   514  0.000000000E+00  0.000000000E+00 -4.221473893E+01  4.221473893E+01  0.000000000E+00  0.00000E+00  9.000E+00
      21     1     1     2   511   512 -9.692454955E+00  6.094674540E+00 -1.256693417E+01  1.700048750E+01  2.920019320E-07  0.00000E+00  9.000E+00
       4     1     1     2   513     0  1.005252183E+01 -1.968325241E+00 -1.489816303E+01  1.814201646E+01  1.500000000E+00  0.00000E+00  9.000E+00
      -4     1     1     2     0   514 -3.600668759E-01 -4.126349299E+00 -1.046628350E+01  1.135559321E+01  1.500000000E+00  0.00000E+00  9.000E+00
</event>
<event>
      5  10001  3.52971E+09  7.83159E+00 -1.00000E+00  2.08881E-01
      21    -1     0     0   515   512  0.000000000E+00  0.000000000E+00  4.309820658E+01  4.309820658E+01  0.000000000E+00  0.00000E+00  9.000E+00
      21    -1     0     0   511   516  0.000000000E+00  0.000000000E+00 -5.611111239E+01  5.611111239E+01  0.000000000E+00  0.00000E+00  9.000E+00
      21     1     1     2   515   516 -8.404776837E+00 -1.192783157E+01 -5.174361875E+01  5.376165475E+01  6.743495762E-07  0.00000E+00  9.000E+00
      21     1     1     2   511   513  2.336390349E+00  1.392901871E+01  3.566645005E+01  3.836107325E+01  0.000000000E+00  0.00000E+00  9.000E+00
      21     1     1     2   513   512  6.068386488E+00 -2.001187133E+00  3.064262887E+00  7.086590968E+00  5.960464478E-08  0.00000E+00  9.000E+00
</event>
<event>
      5  10001  3.52971E+09  2.19723E+00 -1.00000E+00  3.45013E-01
      21    -1     0     0   514   515  0.000000000E+00  0.000000000E+00  6.085343566E+01  6.085343566E+01  0.000000000E+00  0.00000E+00  9.000E+00
      21    -1     0     0   517   512  0.000000000E+00  0.000000000E+00 -5.594713564E+01  5.594713564E+01  0.000000000E+00  0.00000E+00  9.000E+00
      21     1     1     2   514   512  1.828563489E+01 -2.043995587E+00  1.341064281E+01  2.276812908E+01  1.685873940E-07  0.00000E+00  9.000E+00
      21     1     1     2   517   511 -2.047641759E+01  2.212182844E+00 -4.916912039E+01  5.330834672E+01  1.168007728E-06  0.00000E+00  9.000E+00
      21     1     1     2   511   515  2.190782702E+00 -1.681872576E-01  4.066477761E+01  4.072409549E+01  6.743495762E-07  0.00000E+00  9.000E+00
</event>
<event>
      5  10001  3.52971E+09  2.51987E+00 -1.00000E+00  3.21908E-01
      21    -1     0     0   511   513  0.000000000E+00  0.000000000E+00  6.101050021E+00  6.101050021E+00  0.000000000E+00  0.00000E+00  9.000E+00
       2    -1     0     0   515     0  0.000000000E+00  0.000000000E+00 -4.349472210E+01  4.349472210E+01  0.000000000E+00  0.00000E+00  9.000E+00
      21     1     1     2   512   513  2.427117648E+00  1.023245095E+01 -1.530675700E+00  1.062717839E+01  1.884864366E-07  0.00000E+00  9.000E+00
       2     1     1     2   511     0 -3.778144165E+00 -9.644486916E+00 -3.602527456E+01  3.748626159E+01  3.300000131E-01  0.00000E+00  9.000E+00
      21     1     1     2   515   512  1.351026517E+00 -5.879640333E-01  1.622781795E-01  1.482332136E+00  2.456997700E-08  0.00000E+00  9.000E+00
</event>
<event>
      5  10001  3.52971E+09  5.06651E+00 -1.00000E+00  2.37511E-01
      21    -1     0     0   514   513  0.000000000E+00  0.000000000E+00  4.364998176E-01  4.364998176E-01  0.000000000E+00  0.00000E+00  9.000E+00
      21    -1     0     0   515   514  0.000000000E+00  0.000000000E+00 -3.302038607E+02  3.302038607E+02  0.000000000E+00  0.00000E+00  9.000E+00
      21     1     1     2   515   512  2.435245430E+00  1.096336927E+01 -1.427409055E+02  1.431820240E+02  3.303624740E-06  0.00000E+00  9.000E+00
      21     1     1     2   512   511 -1.123882503E+00 -6.926581791E+00 -6.906955972E+01  6.942510157E+01  0.000000000E+00  0.00000E+00  9.000E+00
      21     1     1     2   511   513 -1.311362926E+00 -4.036787477E+00 -1.179568956E+02  1.180332349E+02  1.907348633E-06  0.00000E+00  9.000E+00
</event>
<event>
      5  10001  3.52971E+09  3.79264E+00 -1.00000E+00  2.69030E-01
      21    -1     0     0   516   512  0.000000000E+00  0.000000000E+00  8.008362990E-01  8.008362990E-01  0.000000000E+00  0.00000E+00  9.000E+00
      21    -1     0     0   514   516  0.000000000E+00  0.000000000E+00 -3.020967488E+02  3.020967488E+02  0.000000000E+00  0.00000E+00  9.000E+00
      21     1     1     2   513   515 -4.353277580E-01  1.041357299E+01 -6.340179056E+01  6.425277471E+01  6.743495762E-07  0.00000E+00  9.000E+00
      21     1     1     2   515   512  2.404301208E+00 -1.365506303E+01 -1.418945638E+02  1.425703639E+02  2.697398305E-06  0.00000E+00  9.000E+00
      21     1     1     2   514   513 -1.968973450E+00  3.241490043E+00 -9.599955806E+01  9.607444645E+01  0.000000000E+00  0.00000E+00  9.000E+00
</event>
<event>
      5  10001  3.52971E+09  1.85605E+01 -1.00000E+00  1.69087E-01
      -2    -1     0     0     0   511  0.000000000E+00  0.000000000E+00  2.731372640E+02  2.731372640E+02  0.000000000E+00  0.00000E+00  9.000E+00
      21    -1     0     0   512   513  0.000000000E+00  0.000000000E+00 -2.260175776E+01  2.260175776E+01  0.000000000E+00  0.00000E+00  9.000E+00
      -2     1     1     2     0   513 -2.651898490E+01 -5.246097799E+00  2.511095947E+02  2.525607166E+02  3.300000131E-01  0.00000E+00  9.000E+00
      21     1     1     2   515   511  1.160346096E+01 -3.649004733E+00 -1.589804496E+01  2.001757665E+01  4.129530925E-07  0.00000E+00  9.000E+00
      21     1     1     2   512   515  1.491552395E+01  8.895102532E+00  1.532395649E+01  2.316072853E+01  1.685873940E-07  0.00000E+00  9.000E+00
</event>
<event>
      5  10001  3.52971E+09  2.95030E+00 -1.00000E+00  2.99076E-01
       2    -1     0     0   513     0  0.000000000E+00  0.000000000E+00  5.180803060E+02  5.180803060E+02  0.000000000E+00  0.00000E+00  9.000E+00
      21    -1     0     0   515   513  0.000000000E+00  0.000000000E+00 -1.519906652E+00  1.519906652E+00  0.000000000E+00  0.00000E+00  9.000E+00
      21     1     1     2   515   511  6.887846257E+00 -6.707038789E+00  1.513016589E+01  1.792620192E+01  6.529361695E-07  0.00000E+00  9.000E+00
       2     1     1     2   514     0 -6.143611337E+00  8.848872953E+00  4.805824120E+02  4.807032454E+02  3.300000131E-01  0.00000E+00  9.000E+00
      21     1     1     2   511   514 -7.442349201E-01 -2.141834164E+00  2.084782140E+01  2.097076528E+01  3.371747881E-07  0.00000E+00  9.000E+00
</event>
<event>
      5  10001  3.52971E+09  2.24686E+01 -1.00000E+00  1.62301E-01
      21    -1     0     0   512   515  0.000000000E+00  0.000000000E+00  4.839958544E+01  4.839958544E+01  0.000000000E+00  0.00000E+00  9.000E+00
      21    -1     0     0   516   512  0.000000000E+00  0.000000000E+00 -1.382917540E+01  1.382917540E+01  0.000000000E+00  0.00000E+00  9.000E+00
      21     1     1     2   514   515  2.964532171E+00 -9.993090499E+00  4.103404301E+01  4.233725304E+01  4.768371582E-07  0.00000E+00  9.000E+00
      21     1     1     2   516   513  1.369852293E+00  8.753997846E+00  3.044367381E+00  9.368945850E+00  1.192092896E-07  0.00000E+00  9.000E+00
      21     1     1     2   513   514 -4.334384464E+00  1.239092653E+00 -9.508000355E+00  1.052256195E+01  2.665600750E-07  0.00000E+00  9.000E+00
</event>
<event>
      5  10001  3.52971E+09  6.38782E+00 -1.00000E+00  2.21323E-01
       2    -1     0     0   513     0  0.000000000E+00  0.000000000E+00  1.955183763E+02  1.955183763E+02  0.000000000E+00  0.00000E+00  9.000E+00
      21    -1     0     0   511   512  0.000000000E+00  0.000000000E+00 -7.812978078E+00  7.812978078E+00  0.000000000E+00  0.00000E+00  9.000E+00
      21     1     1     2   513   512 -6.701098560E+00 -7.249047450E+00 -4.120611289E+00  1.069732902E+01  3.318646170E-07  0.00000E+00  9.000E+00
       2     1     1     2   515     0  4.420725348E+00  1.843532697E+00  1.689332799E+02  1.690014893E+02  3.300000131E-01  0.00000E+00  9.000E+00
      21     1     1     2   511   515  2.280373212E+00  5.405514753E+00  2.289272963E+01  2.363253608E+01  0.000000000E+00  0.00000E+00  9.000E+00
</event>
<event>
      5  10001  3.52971E+09  1.08925E+01 -1.00000E+00  1.91557E-01
      21    -1     0     0   514   512  0.000000000E+00  0.000000000E+00  7.545183676E-01  7.545183676E-01  0.000000000E+00  0.00000E+00  9.000E+00
      21    -1     0     0   511   516  0.000000000E+00  0.000000000E+00 -2.214778181E+02  2.214778181E+02  0.000000000E+00  0.00000E+00  9.000E+00
      21     1     1     2   514   516 -1.878775070E+00  7.556430357E+00 -3.909207997E+01  3.986000692E+01  4.768371582E-07  0.00000E+00  9.000E+00
      21     1     1     2   511   513 -4.117803685E+00 -8.698405556E+00 -1.351108148E+02  1.354531315E+02  2.697398305E-06  0.00000E+00  9.000E+00
      21     1     1     2   513   512  5.996578755E+00  1.141975199E+00 -4.652040497E+01  4.691919802E+01  9.536743164E-07  0.00000E+00  9.000E+00
</event>
<event>
      5  10001  3.52971E+09  7.38387E+00 -1.00000E+00  2.12322E-01
      21    -1     0     0   513   511  0.000000000E+00  0.000000000E+00  9.017695792E+01  9.017695792E+01  0.000000000E+00  0.00000E+00  9.000E+00
       2    -1     0     0   512     0  0.000000000E+00  0.000000000E+00 -2.186606332E+00  2.186606332E+00  0.000000000E+00  0.00000E+00  9.000E+00
      21     1     1     2   514   511  1.793539189E+00  1.007951132E+00  3.269112687E+01  3.275580138E+01  0.000000000E+00  0.00000E+00  9.000E+00
       2     1     1     2   513     0 -4.586776556E+00 -8.771199195E+00  1.214083662E+01  1.566784185E+01  3.300000131E-01  0.00000E+00  9.000E+00
      21     1     1     2   512   514  2.793237367E+00  7.763248063E+00  4.315838810E+01  4.393992101E+01  4.768371582E-07  0.00000E+00  9.000E+00
</event>
<event>
      5  10001  3.52971E+09  5.83088E+00 -1.00000E+00  2.27411E-01
      -1    -1     0     0     0   511  0.000000000E+00  0.000000000E+00  4.311954144E+01  4.311954144E+01  0.000000000E+00  0.00000E+00  9.000E+00
      21    -1     0     0   514   515  0.000000000E+00  0.000000000E+00 -5.891576456E+00  5.891576456E+00  0.000000000E+00  0.00000E+00  9.000E+00
      -1     1     1     2     0   512 -4.370670798E+00  1.226850320E+01  2.432286326E+01  2.759220018E+01  3.300000131E-01  0.00000E+00  9.000E+00
      21     1     1     2   512   515  6.660099891E+00 -6.906658521E+00  3.231586489E+00  1.012432782E+01  2.308477966E-07  0.00000E+00  9.000E+00
      21     1     1     2   514   511 -2.289429093E+00 -5.361844675E+00  9.673515238E+00  1.129458990E+01  1.685873940E-07  0.00000E+00  9.000E+00
</event>
<event>
      5  10001  3.52971E+09  3.90477E+00 -1.00000E+00  2.65952E-01
      -3    -1     0     0     0   512  0.000000000E+00  0.000000000E+00  2.615360796E+01  2.615360796E+01  0.000000000E+00  0.00000E+00  9.000E+00
      21    -1     0     0   514   511  0.000000000E+00  0.000000000E+00 -1.400200869E+01  1.400200869E+01  0.000000000E+00  0.00000E+00  9.000E+00
      21     1     1     2   513   511  8.042596971E+00  3.554603829E+00  3.478548789E-01  8.799975991E+00  1.815864087E-07  0.00000E+00  9.000E+00
      21     1     1     2   514   512 -9.152810537E+00 -7.297226077E+00 -5.977813568E+00  1.314373251E+01  8.429369702E-08  0.00000E+00  9.000E+00
      -3     1     1     2     0   513  1.110213566E+00  3.742622248E+00  1.778155796E+01  1.821190816E+01  5.000000000E-01  0.00000E+00  9.000E+00
</event>
<event>
      5  10001  3.52971E+09  5.62092E+00 -1.00000E+00  2.29959E-01
      21    -1     0     0   515   511  0.000000000E+00  0.000000000E+00  1.989722468E+01  1.989722468E+01  0.000000000E+00  0.00000E+00  9.000E+00
      21    -1     0     0   516   513  0.000000000E+00  0.000000000E+00 -9.053752237E+01  9.053752237E+01  0.000000000E+00  0.00000E+00  9.000E+00
      21     1     1     2   515   513 -1.111458747E+01 -4.909815159E-01  1.777792321E+01  2.097211652E+01  4.768371582E-07  0.00000E+00  9.000E+00
      21     1     1     2   512   511  7.430018562E+00 -3.387569045E+00 -5.893005557E+01  5.949312774E+01  1.168007728E-06  0.00000E+00  9.000E+00
      21     1     1     2   516   512  3.684568909E+00  3.878550561E+00 -2.948816533E+01  2.996950279E+01  5.840038640E-07  0.00000E+00  9.000E+00
</event>
<event>
      5  10001  3.52971E+09  2.07640E+00 -1.00000E+00  3.55626E-01
      21    -1     0     0   513   511  0.000000000E+00  0.000000000E+00  3.914543308E+02  3.914543308E+02  0.000000000E+00  0.00000E+00  9.000E+00
      -2    -1     0     0     0   514  0.000000000E+00  0.000000000E+00 -1.037826029E+01  1.037826029E+01  0.000000000E+00  0.00000E+00  9.000E+00
      -2     1     1     2     0   511 -9.293726292E-01  9.385029991E+00 -2.699030150E+00  9.815099855E+00  3.300000131E-01  0.00000E+00  9.000E+00
      21     1     1     2   516   514  2.451578863E-01 -1.134543308E+01  3.699010224E+00  1.193572917E+01  1.192092896E-07  0.00000E+00  9.000E+00
      21     1     1     2   513   516  6.842147429E-01  1.960403092E+00  3.800760904E+02  3.800817621E+02  7.629394531E-06  0.00000E+00  9.000E+00
</event>
<event>
      5  10001  3.52971E+09  1.03415E+01 -1.00000E+00  1.94082E-01
      21    -1     0     0   512   514  0.000000000E+00  0.000000000E+00  1.355506748E+02  1.355506748E+02  0.000000000E+00  0.00000E+00  9.000E+00
      21    -1     0     0   515   512  0.000000000E+00  0.000000000E+00 -3.814954291E+00  3.814954291E+00  0.000000000E+00  0.00000E+00  9.000E+00
      21     1     1     2   516   514  9.246305728E+00  6.104521243E+00  1.228300780E+02  1.233287777E+02  1.907348633E-06  0.00000E+00  9.000E+00
      -3     1     1     2     0   516 -5.239046453E+00 -3.843536922E+00  9.339416019E+00  1.138837457E+01  5.000000000E-01  0.00000E+00  9.000E+00
       3     1     1     2   515     0 -4.007259275E+00 -2.260984321E+00 -4.337735325E-01  4.648476791E+00  5.000000000E-01  0.00000E+00  9.000E+00
</event>
<event>
      5  10001  3.52971E+09  6.25234E+00 -1.00000E+00  2.22723E-01
      21    -1     0     0   511   513  0.000000000E+00  0.000000000E+00  1.172163017E+02  1.172163017E+02  0.000000000E+00  0.00000E+00  9.000E+00
       1    -1     0     0   514     0  0.000000000E+00  0.000000000E+00 -1.788337462E+02  1.788337462E+02  0.000000000E+00  0.00000E+00  9.000E+00
      21     1     1     2   512   513 -5.062730655E+00 -6.580883659E+00  5.735806261E+01  5.795590236E+01  6.743495762E-07  0.00000E+00  9.000E+00
       1     1     1     2   511     0  5.314709556E+00  9.541952404E+00 -1.783304175E+02  1.786648866E+02  3.300000131E-01  0.00000E+00  9.000E+00
      21     1     1     2   514   512 -2.519789010E-01 -2.961068746E+00  5.935491046E+01  5.942925893E+01  6.743495762E-07  0.00000E+00  9.000E+00
</event>
<event>
      5  10001  3.52971E+09  7.35095E+00 -1.00000E+00  2.12589E-01
       1    -1     0     0   512     0  0.000000000E+00  0.000000000E+00  5.909155345E+01  5.909155345E+01  0.000000000E+00  0.00000E+00  9.000E+00
       1    -1     0     0   511     0  0.000000000E+00  0.000000000E+00 -1.146086379E+02  1.146086379E+02  0.000000000E+00  0.00000E+00  9.000E+00
       1     1     1     2   514     0 -6.675186525E+00 -7.553608845E+00  5.736656411E+01  5.824643079E+01  3.300000131E-01  0.00000E+00  9.000E+00
       1     1     1     2   512     0  8.188425807E+00  1.474704956E+01 -7.946113763E+01  8.123242629E+01  3.300000131E-01  0.00000E+00  9.000E+00
      21     1     1     2   511   514 -1.513239282E+00 -7.193440710E+00 -3.342251098E+01  3.422133432E+01  4.768371582E-07  0.00000E+00  9.000E+00
</event>
<event>
      5  10001  3.52971E+09  3.79713E+00 -1.00000E+00  2.68904E-01
       2    -1     0     0   514     0  0.000000000E+00  0.000000000E+00  7.828749522E+00  7.828749522E+00  0.000000000E+00  0.00000E+00  9.000E+00
      21    -1     0     0   512   515  0.000000000E+00  0.000000000E+00 -1.408551139E+03  1.408551139E+03  0.000000000E+00  0.00000E+00  9.000E+00
      21     1     1     2   512   513  1.066336800E+01 -7.911382586E+00 -3.008352100E+01  3.288336399E+01  7.539457465E-07  0.00000E+00  9.000E+00
       2     1     1     2   513     0 -8.611540191E+00  4.716369888E+00  2.671588657E+00  1.018081801E+01  3.300000131E-01  0.00000E+00  9.000E+00
      21     1     1     2   514   515 -2.051827809E+00  3.195012698E+00 -1.373310458E+03  1.373315707E+03  2.642899792E-05  0.00000E+00  9.000E+00
</event>
<event>
      5  10001  3.52971E+09  9.34417E+00 -1.00000E+00  1.99221E-01
      21    -1     0     0   511   516  0.000000000E+00  0.000000000E+00  9.256736854E+00  9.256736854E+00  0.000000000E+00  0.00000E+00  9.000E+00
       2    -1     0     0   513     0  0.000000000E+00  0.000000000E+00 -2.413220450E+01  2.413220450E+01  0.000000000E+00  0.00000E+00  9.000E+00
      21     1     1     2   513   516  8.605829383E+00 -3.145690901E+00  1.960630434E+00  9.370151669E+00  1.763129170E-07  0.00000E+00  9.000E+00
       2     1     1     2   512     0 -5.339907191E+00  4.742489557E+00 -1.863737277E+01  1.996162267E+01  3.300000131E-01  0.00000E+00  9.000E+00
      21     1     1     2   511   512 -3.265922192E+00 -1.596798655E+00  1.801274684E+00  4.057167016E+00  1.228781231E-07  0.00000E+00  9.000E+00
</event>
<event>
      5  10001  3.52971E+09  1.28275E+01 -1.00000E+00  1.84030E-01
       2    -1     0     0   511     0  0.000000000E+00  0.000000000E+00  2.413502376E+02  2.413502376E+02  0.000000000E+00  0.00000E+00  9.000E+00
      -1    -1     0     0     0   511  0.000000000E+00  0.000000000E+00 -1.911752547E+01  1.911752547E+01  0.000000000E+00  0.00000E+00  9.000E+00
      -1     1     1     2     0   514  1.498137394E+01 -1.139051868E+01 -8.470476143E+00  2.064081750E+01  3.300000131E-01  0.00000E+00  9.000E+00
       2     1     1     2   513     0 -1.066609140E+01  5.710356322E+00  2.322190446E+02  2.325342281E+02  3.300000131E-01  0.00000E+00  9.000E+00
      21     1     1     2   514   513 -4.315282541E+00  5.680162362E+00 -1.515856294E+00  7.292717475E+00  3.594856883E-07  0.00000E+00  9.000E+00
</event>
<event>
      5  10001  3.52971E+09  6.80408E+00 -1.00000E+00  2.17305E-01
      21    -1     0     0   516   512  0.000000000E+00  0.000000000E+00  5.450609283E+02  5.450609283E+02  0.000000000E+00  0.00000E+00  9.000E+00
      21    -1     0     0   515   511  0.000000000E+00  0.000000000E+00 -1.485745918E+02  1.485745918E+02  0.000000000E+00  0.00000E+00  9.000E+00
      -4     1     1     2     0   511 -1.098612671E+01 -1.237369478E+00  1.029349949E+01  1.517999325E+01  1.500000000E+00  0.00000E+00  9.000E+00
      21     1     1     2   515   512  9.783823974E+00 -5.458382019E+00 -1.458937778E+02  1.463233117E+02  2.697398305E-06  0.00000E+00  9.000E+00
       4     1     1     2   516     0  1.202302735E+00  6.695751497E+00  5.320866149E+02  5.321322151E+02  1.500000000E+00  0.00000E+00  9.000E+00
</event>
<event>
      5  10001  3.52971E+09  8.01361E+00 -1.00000E+00  2.07569E-01
       4    -1     0     0   511     0  0.000000000E+00  0.000000000E+00  3.537709963E+01  3.537709963E+01  0.000000000E+00  0.00000E+00  9.000E+00
      21    -1     0     0   514   511  0.000000000E+00  0.000000000E+00 -3.286938060E+01  3.286938060E+01  0.000000000E+00  0.00000E+00  9.000E+00
      21     1     1     2   514   513  1.144489714E+01  2.950412982E+00 -2.868230521E+01  3.102201218E+01  3.371747881E-07  0.00000E+00  9.000E+00
       4     1     1     2   512     0 -6.407307676E+00  1.560281417E+00  2.948529655E+01  3.025096333E+01  1.500000000E+00  0.00000E+00  9.000E+00
      21     1     1     2   513   512 -5.037589461E+00 -4.510694399E+00  1.704727685E+00  6.973504716E+00  7.300048300E-08  0.00000E+00  9.000E+00
</event>
<event>
      5  10001  3.52971E+09  5.15411E+00 -1.00000E+00  2.36229E-01
      -1    -1     0     0     0   515  0.000000000E+00  0.000000000E+00  7.702655467E+00  7.702655467E+00  0.000000000E+00  0.00000E+00  9.000E+00
      21    -1     0     0   516   511  0.000000000E+00  0.000000000E+00 -1.617013517E+01  1.617013517E+01  0.000000000E+00  0.00000E+00  9.000E+00
      -1     1     1     2     0   511 -4.997613786E-01 -9.811343670E+00 -6.075075872E+00  1.155541747E+01  3.300000131E-01  0.00000E+00  9.000E+00
      21     1     1     2   516   514  5.837889374E-02  6.439034198E+00  2.017820522E+00  6.748049285E+00  2.128311523E-07  0.00000E+00  9.000E+00
      21     1     1     2   514   515  4.413824849E-01  3.372309472E+00 -4.410224357E+00  5.569323886E+00  8.429369702E-08  0.00000E+00  9.000E+00
</event>
<event>
      5  10001  3.52971E+09  3.32231E+00 -1.00000E+00  2.84027E-01
      21    -1     0     0   512   514  0.000000000E+00  0.000000000E+00  7.008829349E-01  7.008829349E-01  0.000000000E+00  0.00000E+00  9.000E+00
      21    -1     0     0   511   512  0.000000000E+00  0.000000000E+00 -3.044690970E+02  3.044690970E+02  0.000000000E+00  0.00000E+00  9.000E+00
      21     1     1     2   515   514 -9.836317968E+00  5.797423071E+00 -1.448708249E+02  1.453200577E+02  0.000000000E+00  0.00000E+00  9.000E+00
      21     1     1     2   513   515  7.986673994E+00 -8.557238560E+00 -7.694710552E+01  7.783232195E+01  1.907348633E-06  0.00000E+00  9.000E+00
      21     1     1     2   511   513  1.849643974E+00  2.759815490E+00 -8.195028364E+01  8.201760026E+01  0.000000000E+00  0.00000E+00  9.000E+00
</event>
<event>
      5  10001  3.52971E+09  5.41614E+01 -1.00000E+00  1.37121E-01
       1    -1     0     0   512     0  0.000000000E+00  0.000000000E+00  5.641327526E+01  5.641327526E+01  0.000000000E+00  0.00000E+00  9.000E+00
      21    -1     0     0   513   512  0.000000000E+00  0.000000000E+00 -2.186187235E+02  2.186187235E+02  0.000000000E+00  0.00000E+00  9.000E+00
      21     1     1     2   513   514  1.379210170E+00 -4.765000907E+00 -2.562594783E+01  2.610166003E+01  5.840038640E-07  0.00000E+00  9.000E+00
       1     1     1     2   516     0  2.846630359E+00 -1.280794086E+01  5.497758800E+01  5.652247991E+01  3.300000131E-01  0.00000E+00  9.000E+00
      21     1     1     2   514   516 -4.225840529E+00  1.757294177E+01 -1.915570884E+02  1.924078588E+02  2.697398305E-06  0.00000E+00  9.000E+00
</event>
<event>
      5  10001  3.52971E+09  1.31870E+01 -1.00000E+00  1.82817E-01
      21    -1     0     0   511   514  0.000000000E+00  0.000000000E+00  3.101396845E+02  3.101396845E+02  0.000000000E+00  0.00000E+00  9.000E+00
      21    -1     0     0   513   515  0.000000000E+00  0.000000000E+00 -2.238015343E+00  2.238015343E+00  0.000000000E+00  0.00000E+00  9.000E+00
      21     1     1     2   511   515 -1.204818691E+01  7.760151892E+00  2.471672077E+01  2.857087767E+01  1.215700987E-06  0.00000E+00  9.000E+00
      21     1     1     2   513   512  5.941311887E+00  2.241278962E+00  1.396559674E+02  1.398002566E+02  0.000000000E+00  0.00000E+00  9.000E+00
      21     1     1     2   512   514  6.106875023E+00 -1.000143085E+01  1.435289810E+02  1.440065656E+02  2.697398305E-06  0.00000E+00  9.000E+00
</event>
<event>
      5  10001  3.52971E+09  6.46925E+00 -1.00000E+00  2.20504E-01
      21    -1     0     0   516   513  0.000000000E+00  0.000000000E+00  1.829089936E+01  1.829089936E+01  0.000000000E+00  0.00000E+00  9.000E+00
      21    -1     0     0   514   511  0.000000000E+00  0.000000000E+00 -1.347975013E+02  1.347975013E+02  0.000000000E+00  0.00000E+00  9.000E+00
      21     1     1     2   514   517 -1.209340330E+01 -9.345989903E+00 -1.059052476E+01  1.859454612E+01  1.685873940E-07  0.00000E+00  9.000E+00
      21     1     1     2   517   513  6.214669007E+00  6.645669861E+00  1.274334063E+01  1.565821730E+01  2.920019320E-07  0.00000E+00  9.000E+00
      21     1     1     2   516   511  5.878734298E+00  2.700320042E+00 -1.186594178E+02  1.188356372E+02  1.348699152E-06  0.00000E+00  9.000E+00
</event>
<event>
      5  10001  3.52971E+09  1.07270E+01 -1.00000E+00  1.92294E-01
       4    -1     0     0   512     0  0.000000000E+00  0.000000000E+00  9.471499047E+01  9.471499047E+01  0.000000000E+00  0.00000E+00  9.000E+00
      21    -1     0     0   513   511  0.000000000E+00  0.000000000E+00 -2.339439961E+01  2.339439961E+01  0.000000000E+00  0.00000E+00  9.000E+00
      -5     1     1     2     0   511  2.895516180E+00  7.970841540E+00 -3.659698580E+00  1.040921343E+01  4.800000191E+00  0.00000E+00  9.000E+00
       5     1     1     2   512     0 -8.981563023E+00 -1.665150895E+01 -1.008052405E+01  2.196811762E+01  4.800000191E+00  0.00000E+00  9.000E+00
       4     1     1     2   513     0  6.086046843E+00  8.680667413E+00  8.506081349E+01  8.573205903E+01  1.500000000E+00  0.00000E+00  9.000E+00
</event>
<event>
      5  10001  3.52971E+09  2.79178E+00 -1.00000E+00  3.06670E-01
      21    -1     0     0   514   516  0.000000000E+00  0.000000000E+00  6.863389108E+01  6.863389108E+01  0.000000000E+00  0.00000E+00  9.000E+00
      21    -1     0     0   513   514  0.000000000E+00  0.000000000E+00 -1.493410986E+01  1.493410986E+01  0.000000000E+00  0.00000E+00  9.000E+00
      21     1     1     2   515   516 -1.740992966E+01 -4.410301831E+00  6.126774151E+01  6.384585001E+01  6.743495762E-07  0.00000E+00  9.000E+00
      21     1     1     2   511   515  1.059875385E+01  2.718846652E+00 -2.990481905E+00  1.134322231E+01  5.092623082E-07  0.00000E+00  9.000E+00
      21     1     1     2   513   511  6.811175809E+00  1.691455179E+00 -4.577478392E+00  8.378928628E+00  3.908537939E-07  0.00000E+00  9.000E+00
</event>
<event>
      5  10001  3.52971E+09  8.73187E+00 -1.00000E+00  2.02816E-01
      -1    -1     0     0     0   512  0.000000000E+00  0.000000000E+00  1.023652265E+01  1.023652265E+01  0.000000000E+00  0.00000E+00  9.000E+00
      -1    -1     0     0     0   514  0.000000000E+00  0.000000000E+00 -2.495435076E+02  2.495435076E+02  0.000000000E+00  0.00000E+00  9.000E+00
      -1     1     1     2     0   513 -1.883800830E+01  5.832804919E+00 -3.322358945E+00  2.000097845E+01  3.300000131E-01  0.00000E+00  9.000E+00
      21     1     1     2   513   514  2.361491367E+01  1.476251139E+00 -7.697345503E+01  8.052798423E+01  0.000000000E+00  0.00000E+00  9.000E+00
      -1     1     1     2     0   512 -4.776905378E+00 -7.309056058E+00 -1.590111709E+02  1.592510675E+02  3.300000131E-01  0.00000E+00  9.000E+00
</event>
<event>
      5  10001  3.52971E+09  1.01745E+01 -1.00000E+00  1.94888E-01
      21    -1     0     0   511   514  0.000000000E+00  0.000000000E+00  2.633648341E+00  2.633648341E+00  0.000000000E+00  0.00000E+00  9.000E+00
      21    -1     0     0   512   511  0.000000000E+00  0.000000000E+00 -8.845228382E+01  8.845228382E+01  0.000000000E+00  0.00000E+00  9.000E+00
      21     1     1     2   515   514  1.074389638E+01 -3.044928227E+00 -1.470777534E+01  1.846676888E+01  4.129530925E-07  0.00000E+00  9.000E+00
      21     1     1     2   513   515 -4.332230482E+00 -2.747699788E+00 -4.010503739E+01  4.043182038E+01  4.768371582E-07  0.00000E+00  9.000E+00
      21     1     1     2   512   513 -6.411665898E+00  5.792628015E+00 -3.100582275E+01  3.218734291E+01  5.840038640E-07  0.00000E+00  9.000E+00
</event>
<event>
      5  10001  3.52971E+09  8.54976E+00 -1.00000E+00  2.03962E-01
      21    -1     0     0   516   513  0.000000000E+00  0.000000000E+00  1.089987824E+00  1.089987824E+00  0.000000000E+00  0.00000E+00  9.000E+00
      21    -1     0     0   512   517  0.000000000E+00  0.000000000E+00 -3.337645784E+02  3.337645784E+02  0.000000000E+00  0.00000E+00  9.000E+00
      21     1     1     2   516   517  4.369554881E+00 -1.304826110E+01 -5.943956486E+01  6.101157266E+01  1.348699152E-06  0.00000E+00  9.000E+00
      21     1     1     2   512   511 -6.333520669E+00  6.255373183E+00 -2.143757362E+02  2.145604797E+02  3.814697266E-06  0.00000E+00  9.000E+00
      21     1     1     2   511   513  1.963965788E+00  6.792887913E+00 -5.885928943E+01  5.928251378E+01  6.743495762E-07  0.00000E+00  9.000E+00
</event>
<event>
      5  10001  3.52971E+09  6.21789E+00 -1.00000E+00  2.23086E-01
      21    -1     0     0   514   512  0.000000000E+00  0.000000000E+00  4.335871049E+02  4.335871049E+02  0.000000000E+00  0.00000E+00  9.000E+00
      21    -1     0     0   515   513  0.000000000E+00  0.000000000E+00 -6.870763180E-01  6.870763180E-01  0.000000000E+00  0.00000E+00  9.000E+00
      21     1     1     2   514   513  1.047375317E+01 -7.018424345E+00  8.573347252E+01  8.665556009E+01  0.000000000E+00  0.00000E+00  9.000E+00
      21     1     1     2   515   516 -1.242609183E+01  3.697626126E+00  3.053212433E+02  3.055963707E+02  5.394796609E-06  0.00000E+00  9.000E+00
      21     1     1     2   516   512  1.952338661E+00  3.320798219E+00  4.184531277E+01  4.202225039E+01  6.743495762E-07  0.00000E+00  9.000E+00
</event>
<event>
      5  10001  3.52971E+09  1.39931E+01 -1.00000E+00  1.80271E-01
      21    -1     0     0   511   513  0.000000000E+00  0.000000000E+00  6.378231846E+00  6.378231846E+00  0.000000000E+00  0.00000E+00  9.000E+00
      21    -1     0     0   517   512  0.000000000E+00  0.000000000E+00 -6.593968959E+01  6.593968959E+01  0.000000000E+00  0.00000E+00  9.000E+00
      21     1     1     2   511   512 -9.405697382E+00  1.470255154E+00  1.482918602E+00  9.634720600E+00  3.082776199E-07  0.00000E+00  9.000E+00
      21     1     1     2   517   514  1.431695936E+00  4.112527134E+00 -2.332823323E+01  2.373118409E+01  0.000000000E+00  0.00000E+00  9.000E+00
      21     1     1     2   514   513  7.974001446E+00 -5.582782288E+00 -3.771614312E+01  3.895201675E+01  4.768371582E-07  0.00000E+00  9.000E+00
</event>
<event>
      5  10001  3.52971E+09  3.96046E+00 -1.00000E+00  2.64482E-01
      21    -1     0     0   515   511  0.000000000E+00  0.000000000E+00  4.593871669E+01  4.593871669E+01  0.000000000E+00  0.00000E+00  9.000E+00
       2    -1     0     0   513     0  0.000000000E+00  0.000000000E+00 -1.661645943E+02  1.661645943E+02  0.000000000E+00  0.00000E+00  9.000E+00
      21     1     1     2   515   514 -6.928223229E+00  9.688846385E+00 -9.418481706E+00  1.518492078E+01  1.685873940E-07  0.00000E+00  9.000E+00
       2     1     1     2   514     0  3.477372615E+00 -1.163222807E+01 -1.535314880E+02  1.540111281E+02  3.300000131E-01  0.00000E+00  9.000E+00
      21     1     1     2   513   511  3.450850613E+00  1.943381684E+00  4.272409209E+01  4.290726218E+01  8.259061849E-07  0.00000E+00  9.000E+00
</event>
<event>
      5  10001  3.52971E+09  5.04636E+00 -1.00000E+00  2.37811E-01
      21    -1     0     0   512   516  0.000000000E+00  0.000000000E+00  6.703253994E+00  6.703253994E+00  0.000000000E+00  0.00000E+00  9.000E+00
      21    -1     0     0   511   512  0.000000000E+00  0.000000000E+00 -9.320412493E+01  9.320412493E+01  0.000000000E+00  0.00000E+00  9.000E+00
      21     1     1     2   513   516  9.582643568E+00 -4.900933959E+00  1.344049906E+00  1.084678208E+01  5.732591171E-07  0.00000E+00  9.000E+00
      21     1     1     2   511   514 -4.921943647E+00  2.913158018E+00 -7.549954090E+01  7.571586818E+01  0.000000000E+00  0.00000E+00  9.000E+00
      21     1     1     2   514   513 -4.660699921E+00  1.987775941E+00 -1.234537994E+01  1.334472865E+01  1.685873940E-07  0.00000E+00  9.000E+00
</event>
<event>
      5  10001  3.52971E+09  7.08415E+00 -1.00000E+00  2.14817E-01
      21    -1     0     0   515   511  0.000000000E+00  0.000000000E+00  5.215522841E+00  5.215522841E+00  0.000000000E+00  0.00000E+00  9.000E+00
      21    -1     0     0   516   513  0.000000000E+00  0.000000000E+00 -2.981219366E+01  2.981219366E+01  0.000000000E+00  0.00000E+00  9.000E+00
      21     1     1     2   515   513  1.127723919E+00 -9.334713948E+00 -2.138975683E+01  2.336515232E+01  3.371747881E-07  0.00000E+00  9.000E+00
      21     1     1     2   516   512 -2.474549185E+00  4.976501765E+00 -4.233958841E+00  6.986799765E+00  8.429369702E-08  0.00000E+00  9.000E+00
      21     1     1     2   512   511  1.346825266E+00  4.358212183E+00  1.027044852E+00  4.675764415E+00  9.884312124E-08  0.00000E+00  9.000E+00
</event>
<event>
      5  10001  3.52971E+09  2.48735E+00 -1.00000E+00  3.23956E-01
      21    -1     0     0   514   513  0.000000000E+00  0.000000000E+00  2.005216124E+02  2.005216124E+02  0.000000000E+00  0.00000E+00  9.000E+00
       2    -1     0     0   511     0  0.000000000E+00  0.000000000E+00 -1.359006064E+01  1.359006064E+01  0.000000000E+00  0.00000E+00  9.000E+00
      21     1     1     2   514   512 -2.372051066E+01  4.994210898E+00  7.891645334E+01  8.255550482E+01  1.348699152E-06  0.00000E+00  9.000E+00
       2     1     1     2   512     0  2.307996292E+01 -7.397645955E+00  7.377734952E-01  2.425001162E+01  3.300000131E-01  0.00000E+00  9.000E+00
      21     1     1     2   511   513  6.405477452E-01  2.403435058E+00  1.072773249E+02  1.073061566E+02  1.348699152E-06  0.00000E+00  9.000E+00
</event>
<event>
      5  10001  3.52971E+09  6.49024E+00 -1.00000E+00  2.20296E-01
      21    -1     0     0   515   512  0.000000000E+00  0.000000000E+00  7.955584704E+02  7.955584704E+02  0.000000000E+00  0.00000E+00  9.000E+00
      21    -1     0     0   511   513  0.000000000E+00  0.000000000E+00 -8.680733237E-01  8.680733237E-01  0.000000000E+00  0.00000E+00  9.000E+00
      21     1     1     2   515   513  6.104681172E+00  8.466130460E+00  7.543059158E+02  7.543781261E+02  1.525878906E-05  0.00000E+00  9.000E+00
      21     1     1     2   514   512 -9.134809791E-01 -1.517568588E+00  1.895768867E+00  2.594494462E+00  6.664001875E-08  0.00000E+00  9.000E+00
      21     1     1     2   511   514 -5.191200192E+00 -6.948561871E+00  3.848871245E+01  3.945392322E+01  0.000000000E+00  0.00000E+00  9.000E+00
</event>
<event>
      5  10001  3.52971E+09  8.75038E+00 -1.00000E+00  2.02702E-01
      21    -1     0     0   516   513  0.000000000E+00  0.000000000E+00  7.380549754E-01  7.380549754E-01  0.000000000E+00  0.00000E+00  9.000E+00
      21    -1     0     0   511   516  0.000000000E+00  0.000000000E+00 -3.486228598E+02  3.486228598E+02  0.000000000E+00  0.00000E+00  9.000E+00
      21     1     1     2   511   517  3.535557534E+00  1.106964263E+01 -2.840838576E+02  2.843214296E+02  3.814697266E-06  0.00000E+00  9.000E+00
      21     1     1     2   512   513  1.263578100E+00 -2.775890004E+00 -1.527916969E+01  1.558060402E+01  2.920019320E-07  0.00000E+00  9.000E+00
      21     1     1     2   517   512 -4.799135634E+00 -8.293752622E+00 -4.852177750E+01  4.945888118E+01  0.000000000E+00  0.00000E+00  9.000E+00
</event>
<event>
      5  10001  3.52971E+09  1.30921E+01 -1.00000E+00  1.83133E-01
      21    -1     0     0   514   512  0.000000000E+00  0.000000000E+00  8.954384770E-01  8.954384770E-01  0.000000000E+00  0.00000E+00  9.000E+00
      21    -1     0     0   511   515  0.000000000E+00  0.000000000E+00 -2.705236545E+02  2.705236545E+02  0.000000000E+00  0.00000E+00  9.000E+00
      21     1     1     2   514   515 -4.169683722E-01  1.071763462E+01 -1.779017825E+02  1.782248180E+02  0.000000000E+00  0.00000E+00  9.000E+00
      21     1     1     2   513   512  6.291139357E+00 -3.988766067E+00 -3.680720639E+01  3.755341704E+01  4.768371582E-07  0.00000E+00  9.000E+00
      21     1     1     2   511   513 -5.874170985E+00 -6.728868554E+00 -5.491922710E+01  5.564085785E+01  6.743495762E-07  0.00000E+00  9.000E+00
</event>
<event>
      5  10001  3.52971E+09  8.46348E+00 -1.00000E+00  2.04518E-01
      21    -1     0     0   511   512  0.000000000E+00  0.000000000E+00  1.076321370E+02  1.076321370E+02  0.000000000E+00  0.00000E+00  9.000E+00
      -3    -1     0     0     0   516  0.000000000E+00  0.000000000E+00 -2.885543208E+01  2.885543208E+01  0.000000000E+00  0.00000E+00  9.000E+00
      -3     1     1     2     0   514  1.627234028E+00  2.531421849E+00 -1.429703872E+01  1.461886806E+01  5.000000000E-01  0.00000E+00  9.000E+00
      21     1     1     2   511   516  1.735593441E+00 -1.171130159E+01  1.054411956E+02  1.061037822E+02  0.000000000E+00  0.00000E+00  9.000E+00
      21     1     1     2   514   512 -3.362827469E+00  9.179879742E+00 -1.236745190E+01  1.576491887E+01  4.129530925E-07  0.00000E+00  9.000E+00
</event>
<event>
      5  10001  3.52971E+09  5.35549E+00 -1.00000E+00  2.33413E-01
       2    -1     0     0   514     0  0.000000000E+00  0.000000000E+00  2.253175771E+02  2.253175771E+02  0.000000000E+00  0.00000E+00  9.000E+00
      21    -1     0     0   511   515  0.000000000E+00  0.000000000E+00 -1.516204822E+02  1.516204822E+02  0.000000000E+00  0.00000E+00  9.000E+00
      21     1     1     2   511   513 -1.257717483E+01  7.568722036E+00 -2.538782729E+01  2.932597235E+01  4.768371582E-07  0.00000E+00  9.000E+00
       2     1     1     2   513     0  8.214729775E+00 -4.462231729E+00  2.231927877E+02  2.233887255E+02  3.300000131E-01  0.00000E+00  9.000E+00
      21     1     1     2   514   515  4.362445059E+00 -3.106490307E+00 -1.241078656E+02  1.242233614E+02  0.000000000E+00  0.00000E+00  9.000E+00
</event>
<event>
      5  10001  3.52971E+09  5.12177E+00 -1.00000E+00  2.36698E-01
      21    -1     0     0   512   511  0.000000000E+00  0.000000000E+00  4.678524918E+01  4.678524918E+01  0.000000000E+00  0.00000E+00  9.000E+00
      21    -1     0     0   516   512  0.000000000E+00  0.000000000E+00 -2.222913534E+01  2.222913534E+01  0.000000000E+00  0.00000E+00  9.000E+00
      21     1     1     2   515   511 -1.158236924E+01  1.984451302E+00  4.381847231E+01  4.536681430E+01  4.768371582E-07  0.00000E+00  9.000E+00
      21     1     1     2   516   513  4.613885713E+00 -8.226977247E-01 -1.420803586E+01  1.496105130E+01  1.685873940E-07  0.00000E+00  9.000E+00
      21     1     1     2   513   515  6.968483524E+00 -1.161753578E+00 -5.054322609E+00  8.686518925E+00  1.788139343E-07  0.00000E+00  9.000E+00
</event>
<event>
      5  10001  3.52971E+09  6.25870E+00 -1.00000E+00  2.22656E-01
      21    -1     0     0   514   511  0.000000000E+00  0.000000000E+00  7.692788504E+00  7.692788504E+00  0.000000000E+00  0.00000E+00  9.000E+00
      21    -1     0     0   512   514  0.000000000E+00  0.000000000E+00 -8.342918590E+01  8.342918590E+01  0.000000000E+00  0.00000E+00  9.000E+00
      21     1     1     2   517   515 -1.934016388E+00 -1.565090076E+01 -3.502881187E+00  1.615429635E+01  3.182017282E-07  0.00000E+00  9.000E+00
      21     1     1     2   515   511  8.027579984E-01  9.495290566E+00 -1.793217722E+01  2.030684474E+01  4.129530925E-07  0.00000E+00  9.000E+00
      21     1     1     2   512   517  1.131258389E+00  6.155610197E+00 -5.430133899E+01  5.466083331E+01  6.743495762E-07  0.00000E+00  9.000E+00
</event>
<event>
      5  10001  3.52971E+09  4.81110E+00 -1.00000E+00  2.45897E-01
      21    -1     0     0   513   515  0.000000000E+00  0.000000000E+00  4.852742114E+00  4.852742114E+00  0.000000000E+00  0.00000E+00  9.000E+00
      21    -1     0     0   512   516  0.000000000E+00  0.000000000E+00 -7.097234262E+01  7.097234262E+01  0.000000000E+00  0.00000E+00  9.000E+00
      21     1     1     2   513   516 -8.640694648E+00 -3.766225833E+00 -6.050299468E+01  6.123282148E+01  6.743495762E-07  0.00000E+00  9.000E+00
      21     1     1     2   512   511  6.801988152E+00  2.627345681E-01  1.002736603E+00  6.880519818E+00  1.756820995E-07  0.00000E+00  9.000E+00
      21     1     1     2   511   515  1.838706496E+00  3.503491265E+00 -6.619342430E+00  7.711743436E+00  8.429369702E-08  0.00000E+00  9.000E+00
</event>
<event>
      5  10001  3.52971E+09  8.09817E+00 -1.00000E+00  2.06975E-01
      -4    -1     0     0     0   514  0.000000000E+00  0.000000000E+00  3.453675585E+02  3.453675585E+02  0.000000000E+00  0.00000E+00  9.000E+00
      21    -1     0     0   511   513  0.000000000E+00  0.000000000E+00 -1.196845725E+01  1.196845725E+01  0.000000000E+00  0.00000E+00  9.000E+00
      -4     1     1     2     0   513  5.095050903E+00 -1.032042627E+01  3.401020675E+02  3.403000691E+02  1.500000000E+00  0.00000E+00  9.000E+00
      21     1     1     2   512   514 -7.822680803E+00  4.289082871E+00 -4.885794377E+00  1.017160526E+01  7.468440584E-07  0.00000E+00  9.000E+00
      21     1     1     2   511   512  2.727629899E+00  6.031343398E+00 -1.817171899E+00  6.864341320E+00  3.781490785E-07  0.00000E+00  9.000E+00
</event>
<event>
      5  10001  3.52971E+09  5.92032E+00 -1.00000E+00  2.26371E-01
      21    -1     0     0   511   512  0.000000000E+00  0.000000000E+00  1.106328269E+03  1.106328269E+03  0.000000000E+00  0.00000E+00  9.000E+00
       1    -1     0     0   514     0  0.000000000E+00  0.000000000E+00 -9.078416738E+01  9.078416738E+01  0.000000000E+00  0.00000E+00  9.000E+00
      21     1     1     2   514   513  4.166090855E+00  1.704390101E+00  3.189765354E+02  3.190082936E+02  0.000000000E+00  0.00000E+00  9.000E+00
       1     1     1     2   511     0 -1.135387513E+01 -8.582493746E-01 -9.039420064E+01  9.110909660E+01  3.300000131E-01  0.00000E+00  9.000E+00
      21     1     1     2   513   512  7.187784271E+00 -8.461407262E-01  7.869617673E+02  7.869950466E+02  1.078959322E-05  0.00000E+00  9.000E+00
</event>
<event>
      5  10001  3.52971E+09  7.22941E+00 -1.00000E+00  2.13588E-01
      21    -1     0     0   515   513  0.000000000E+00  0.000000000E+00  6.195797644E+00  6.195797644E+00  0.000000000E+00  0.00000E+00  9.000E+00
      21    -1     0     0   512   515  0.000000000E+00  0.000000000E+00 -6.401490520E+02  6.401490520E+02  0.000000000E+00  0.00000E+00  9.000E+00
      21     1     1     2   512   514 -1.002044818E+01  1.424351612E+00 -6.319378503E+02  6.320188959E+02  7.629394531E-06  0.00000E+00  9.000E+00
      21     1     1     2   514   511  2.970656296E+00 -3.922036101E+00  2.572214693E+00  5.551887466E+00  1.999200562E-07  0.00000E+00  9.000E+00
      21     1     1     2   511   513  7.049791881E+00  2.497684489E+00 -4.587618806E+00  8.774066314E+00  1.576990671E-07  0.00000E+00  9.000E+00
</event>
<event>
      5  10001  3.52971E+09  1.77382E+01 -1.00000E+00  1.70784E-01
      -3    -1     0     0     0   513  0.000000000E+00  0.000000000E+00  7.009366944E+02  7.009366944E+02  0.000000000E+00  0.00000E+00  9.000E+00
      21    -1     0     0   511   515  0.000000000E+00  0.000000000E+00 -9.607532676E+01  9.607532676E+01  0.000000000E+00  0.00000E+00  9.000E+00
      -3     1     1     2     0   512  2.524132710E+01  8.928253116E+00  6.670112896E+02  6.675486115E+02  5.000000000E-01  0.00000E+00  9.000E+00
      21     1     1     2   511   513 -1.164495774E+01 -5.245383853E+00 -9.388121385E+01  9.474598359E+01  1.348699152E-06  0.00000E+00  9.000E+00
      21     1     1     2   512   515 -1.359636936E+01 -3.682869263E+00  3.173129194E+01  3.471742608E+01  6.743495762E-07  0.00000E+00  9.000E+00
</event>
<event>
      5  10001  3.52971E+09  5.78980E+00 -1.00000E+00  2.27898E-01
      21    -1     0     0   511   514  0.000000000E+00  0.000000000E+00  2.413423110E+00  2.413423110E+00  0.000000000E+00  0.00000E+00  9.000E+00
      21    -1     0     0   513   515  0.000000000E+00  0.000000000E+00 -7.509236561E+02  7.509236561E+02  0.000000000E+00  0.00000E+00  9.000E+00
      -2     1     1     2     0   515  7.439946676E+00  3.373150543E+00 -9.984290305E+00  1.290449162E+01  3.300000131E-01  0.00000E+00  9.000E+00
      21     1     1     2   513   514 -1.310655884E+01 -2.186967070E+00 -7.300034383E+02  7.301243624E+02  1.525878906E-05  0.00000E+00  9.000E+00
       2     1     1     2   511     0  5.666612166E+00 -1.186183473E+00 -8.522504417E+00  1.030822517E+01  3.300000131E-01  0.00000E+00  9.000E+00
</event>
<event>
      5  10001  3.52971E+09  1.07639E+01 -1.00000E+00  1.92128E-01
      21    -1     0     0   512   513  0.000000000E+00  0.000000000E+00  7.172830096E+01  7.172830096E+01  0.000000000E+00  0.00000E+00  9.000E+00
      21    -1     0     0   514   516  0.000000000E+00  0.000000000E+00 -4.878006230E+01  4.878006230E+01  0.000000000E+00  0.00000E+00  9.000E+00
      21     1     1     2   512   516  3.263638967E+00  2.388947986E+01  4.655092959E+01  5.242468534E+01  9.536743164E-07  0.00000E+00  9.000E+00
      21     1     1     2   517   513  6.558725640E-01 -1.386452046E+01  1.934405906E+01  2.380856395E+01  6.307962682E-07  0.00000E+00  9.000E+00
      21     1     1     2   514   517 -3.919511531E+00 -1.002495940E+01 -4.294675000E+01  4.427511397E+01  4.768371582E-07  0.00000E+00  9.000E+00
</event>
<event>
      5  10001  3.52971E+09  1.61903E+00 -1.00000E+00  4.12121E-01
      -1    -1     0     0     0   511  0.000000000E+00  0.000000000E+00  7.352256300E+00  7.352256300E+00  0.000000000E+00  0.00000E+00  9.000E+00
      -2    -1     0     0     0   513  0.000000000E+00  0.000000000E+00 -1.460135602E+03  1.460135602E+03  0.000000000E+00  0.00000E+00  9.000E+00
      -1     1     1     2     0   513 -5.741742773E-01 -1.031495315E+01  1.971312038E+00  1.052249522E+01  3.300000131E-01  0.00000E+00  9.000E+00
      21     1     1     2   512   511 -1.025641816E+00  1.006634097E+01 -2.206132887E+01  2.427108142E+01  4.768371582E-07  0.00000E+00  9.000E+00
      -2     1     1     2     0   512  1.599816093E+00  2.486121797E-01 -1.432693329E+03  1.432694282E+03  3.300000131E-01  0.00000E+00  9.000E+00
</event>
<event>
      5  10001  3.52971E+09  1.10644E+01 -1.00000E+00  1.90808E-01
      -3    -1     0     0     0   512  0.000000000E+00  0.000000000E+00  2.039298728E+01  2.039298728E+01  0.000000000E+00  0.00000E+00  9.000E+00
      21    -1     0     0   516   515  0.000000000E+00  0.000000000E+00 -2.175510783E+02  2.175510783E+02  0.000000000E+00  0.00000E+00  9.000E+00
      21     1     1     2   514   515 -7.959855736E+00  7.798857799E+00 -1.628064039E+02  1.631873360E+02  0.000000000E+00  0.00000E+00  9.000E+00
      21     1     1     2   516   512  8.969839947E+00 -1.881689532E+01 -5.080940532E+01  5.491929758E+01  1.507891493E-06  0.00000E+00  9.000E+00
      -3     1     1     2     0   514 -1.009984212E+00  1.101803752E+01  1.645771820E+01  1.983743197E+01  5.000000000E-01  0.00000E+00  9.000E+00
</event>
<event>
      5  10001  3.52971E+09  1.04960E+01 -1.00000E+00  1.93353E-01
      21    -1     0     0   511   515  0.000000000E+00  0.000000000E+00  5.953578566E+01  5.953578566E+01  0.000000000E+00  0.00000E+00  9.000E+00
      21    -1     0     0   514   513  0.000000000E+00  0.000000000E+00 -3.114501498E+00  3.114501498E+00  0.000000000E+00  0.00000E+00  9.000E+00
      21     1     1     2   511   513 -2.445971506E+00 -1.161365799E+01  2.880497055E+01  3.115423177E+01  5.840038640E-07  0.00000E+00  9.000E+00
      21     1     1     2   514   512 -3.529965194E+00  5.785778863E+00  1.316693400E+01  1.480891766E+01  0.000000000E+00  0.00000E+00  9.000E+00
      21     1     1     2   512   515  5.975936700E+00  5.827879123E+00  1.444937960E+01  1.668713772E+01  1.685873940E-07  0.00000E+00  9.000E+00
</event>
<event>
      5  10001  3.52971E+09  1.58576E+01 -1.00000E+00  1.75135E-01
      21    -1     0     0   516   513  0.000000000E+00  0.000000000E+00  9.952021126E+00  9.952021126E+00  0.000000000E+00  0.00000E+00  9.000E+00
      21    -1     0     0   511   515  0.000000000E+00  0.000000000E+00 -1.715818834E+02  1.715818834E+02  0.000000000E+00  0.00000E+00  9.000E+00
      21     1     1     2   516   515 -3.058460082E+01 -2.535265932E+00 -7.048120751E+01  7.687292106E+01  1.348699152E-06  0.00000E+00  9.000E+00
      21     1     1     2   517   513  1.473888810E+01  3.148968137E+00 -3.346829460E+00  1.543865572E+01  6.179941104E-07  0.00000E+00  9.000E+00
      21     1     1     2   511   517  1.584571272E+01 -6.137022048E-01 -8.780182532E+01  8.922232777E+01  1.348699152E-06  0.00000E+00  9.000E+00
</event>
<event>
      5  10001  3.52971E+09  8.37917E+00 -1.00000E+00  2.05070E-01
      21    -1     0     0   512   515  0.000000000E+00  0.000000000E+00  9.972136257E+01  9.972136257E+01  0.000000000E+00  0.00000E+00  9.000E+00
      21    -1     0     0   511   514  0.000000000E+00  0.000000000E+00 -1.161522593E+00  1.161522593E+00  0.000000000E+00  0.00000E+00  9.000E+00
      21     1     1     2   512   514  3.799403674E+00  5.949403594E+00  4.701946034E+01  4.754640388E+01  0.000000000E+00  0.00000E+00  9.000E+00
      21     1     1     2   513   515 -5.454695574E+00 -7.352098743E+00  4.956151855E+01  5.039991251E+01  6.743495762E-07  0.00000E+00  9.000E+00
      21     1     1     2   511   513  1.655291901E+00  1.402695149E+00  1.978861085E+00  2.936568772E+00  3.650024150E-08  0.00000E+00  9.000E+00
</event>
<event>
      5  10001  3.52971E+09  1.16143E+01 -1.00000E+00  1.88528E-01
      21    -1     0     0   516   513  0.000000000E+00  0.000000000E+00  1.149977297E+01  1.149977297E+01  0.000000000E+00  0.00000E+00  9.000E+00
      21    -1     0     0   512   517  0.000000000E+00  0.000000000E+00 -3.705466302E+02  3.705466302E+02  0.000000000E+00  0.00000E+00  9.000E+00
      21     1     1     2   516   517 -1.263573372E+01 -3.889580960E+00  6.059679321E+00  1.454339438E+01  9.757700887E-07  0.00000E+00  9.000E+00
      21     1     1     2   511   513  2.398518566E+01  6.355967921E+00 -3.187254027E+02  3.196898024E+02  3.814697266E-06  0.00000E+00  9.000E+00
      21     1     1     2   512   511 -1.134945194E+01 -2.466386961E+00 -4.638113383E+01  4.781320633E+01  1.168007728E-06  0.00000E+00  9.000E+00
</event>
<event>
      5  10001  3.52971E+09  4.75063E+00 -1.00000E+00  2.47021E-01
      21    -1     0     0   512   513  0.000000000E+00  0.000000000E+00  1.847938397E+01  1.847938397E+01  0.000000000E+00  0.00000E+00  9.000E+00
      21    -1     0     0   514   511  0.000000000E+00  0.000000000E+00 -7.732245172E+01  7.732245172E+01  0.000000000E+00  0.00000E+00  9.000E+00
      21     1     1     2   512   511  1.232530491E+01  2.761849230E+00 -6.689074791E+01  6.807285148E+01  9.536743164E-07  0.00000E+00  9.000E+00
       1     1     1     2   514     0 -9.660730065E+00  1.170598945E+00 -6.969969521E+00  1.197453057E+01  3.300000131E-01  0.00000E+00  9.000E+00
      -1     1     1     2     0   513 -2.664574846E+00 -3.932448175E+00  1.501764967E+01  1.575445364E+01  3.300000131E-01  0.00000E+00  9.000E+00
</event>
<event>
      5  10001  3.52971E+09  4.29620E+00 -1.00000E+00  2.56360E-01
      21    -1     0     0   515   511  0.000000000E+00  0.000000000E+00  8.244874293E+01  8.244874293E+01  0.000000000E+00  0.00000E+00  9.000E+00
      21    -1     0     0   512   515  0.000000000E+00  0.000000000E+00 -6.137671251E+01  6.137671251E+01  0.000000000E+00  0.00000E+00  9.000E+00
      21     1     1     2   513   516 -1.666652638E+01 -7.805409538E+00  3.817514836E+01  4.237970589E+01  0.000000000E+00  0.00000E+00  9.000E+00
      21     1     1     2   516   511  1.239627458E+01  8.276915363E+00  4.077210724E+01  4.341128517E+01  6.743495762E-07  0.00000E+00  9.000E+00
      21     1     1     2   512   513  4.270251804E+00 -4.715058255E-01 -5.787522517E+01  5.803446438E+01  6.743495762E-07  0.00000E+00  9.000E+00
</event>
<event>
      5  10001  3.52971E+09  1.29981E+01 -1.00000E+00  1.83448E-01
       1    -1     0     0   512     0  0.000000000E+00  0.000000000E+00  3.800728263E+02  3.800728263E+02  0.000000000E+00  0.00000E+00  9.000E+00
       3    -1     0     0   514     0  0.000000000E+00  0.000000000E+00 -2.098374470E+02  2.098374470E+02  0.000000000E+00  0.00000E+00  9.000E+00
      21     1     1     2   514   511  1.647079082E+01 -1.492087949E+01  1.679745686E+01  2.785810747E+01  1.039242493E-06  0.00000E+00  9.000E+00
       3     1     1     2   512     0 -2.753196355E+01  8.094430606E+00 -2.031800455E+02  2.051972459E+02  5.000000000E-01  0.00000E+00  9.000E+00
       1     1     1     2   511     0  1.106117273E+01  6.826448880E+00  3.566179679E+02  3.568549200E+02  3.300000131E-01  0.00000E+00  9.000E+00
</event>
<event>
      5  10001  3.52971E+09  1.30494E+01 -1.00000E+00  1.83275E-01
      21    -1     0     0   513   515  0.000000000E+00  0.000000000E+00  1.198303727E+01  1.198303727E+01  0.000000000E+00  0.00000E+00  9.000E+00
      21    -1     0     0   515   512  0.000000000E+00  0.000000000E+00 -1.653166191E+01  1.653166191E+01  0.000000000E+00  0.00000E+00  9.000E+00
      -4     1     1     2     0   514 -2.643211098E+00 -6.856250981E+00  3.536367201E-01  7.507982509E+00  1.500000000E+00  0.00000E+00  9.000E+00
       4     1     1     2   513     0 -2.226033207E+00  9.882203503E+00  3.511399799E+00  1.082557613E+01  1.500000000E+00  0.00000E+00  9.000E+00
      21     1     1     2   514   512  4.869244306E+00 -3.025952522E+00 -8.413661157E+00  1.018114055E+01  0.000000000E+00  0.00000E+00  9.000E+00
</event>
<event>
      5  10001  3.52971E+09  3.38346E+00 -1.00000E+00  2.81857E-01
       2    -1     0     0   512     0  0.000000000E+00  0.000000000E+00  2.008054901E+02  2.008054901E+02  0.000000000E+00  0.00000E+00  9.000E+00
      21    -1     0     0   511   513  0.000000000E+00  0.000000000E+00 -1.750996420E+01  1.750996420E+01  0.000000000E+00  0.00000E+00  9.000E+00
       2     1     1     2   511     0  2.285053016E+00  1.166617695E+01  1.852754046E+02  1.856566874E+02  3.300000131E-01  0.00000E+00  9.000E+00
       4     1     1     2   512     0 -1.230168210E-01 -9.068977209E+00  1.372791071E+01  1.652171338E+01  1.500000000E+00  0.00000E+00  9.000E+00
      -4     1     1     2     0   513 -2.162036195E+00 -2.597199739E+00 -1.570778939E+01  1.613705347E+01  1.500000000E+00  0.00000E+00  9.000E+00
</event>
<event>
      5  10001  3.52971E+09  2.52699E+00 -1.00000E+00  3.21467E-01
      21    -1     0     0   514   511  0.000000000E+00  0.000000000E+00  1.548822191E+02  1.548822191E+02  0.000000000E+00  0.00000E+00  9.000E+00
       1    -1     0     0   512     0  0.000000000E+00  0.000000000E+00 -2.238702199E+02  2.238702199E+02  0.000000000E+00  0.00000E+00  9.000E+00
      21     1     1     2   512   515  9.854487080E+00  2.962500083E+00  2.098576408E+00  1.050196864E+01  6.293866659E-07  0.00000E+00  9.000E+00
       1     1     1     2   514     0 -1.232382917E+01 -2.425827709E+00 -2.194780889E+02  2.198374440E+02  3.300000131E-01  0.00000E+00  9.000E+00
      21     1     1     2   515   511  2.469342087E+00 -5.366723734E-01  1.483915116E+02  1.484130263E+02  1.907348633E-06  0.00000E+00  9.000E+00
</event>
<event>
      5  10001  3.52971E+09  1.52263E+01 -1.00000E+00  1.76769E-01
       1    -1     0     0   512     0  0.000000000E+00  0.000000000E+00  1.425257547E+03  1.425257547E+03  0.000000000E+00  0.00000E+00  9.000E+00
       2    -1     0     0   514     0  0.000000000E+00  0.000000000E+00 -1.080501581E+01  1.080501581E+01  0.000000000E+00  0.00000E+00  9.000E+00
       1     1     1     2   513     0 -5.029606178E+00 -2.320247629E+01  1.379659020E+03  1.379863317E+03  3.300000131E-01  0.00000E+00  9.000E+00
       2     1     1     2   512     0 -1.009472899E+01  2.496097089E+01  1.377708269E+01  3.024682675E+01  3.300000131E-01  0.00000E+00  9.000E+00
      21     1     1     2   514   513  1.512433516E+01 -1.758494596E+00  2.101642882E+01  2.595241988E+01  8.259061849E-07  0.00000E+00  9.000E+00
</event>
<event>
      5  10001  3.52971E+09  2.15189E+01 -1.00000E+00  1.63785E-01
      -1    -1     0     0     0   511  0.000000000E+00  0.000000000E+00  7.709140638E+00  7.709140638E+00  0.000000000E+00  0.00000E+00  9.000E+00
      21    -1     0     0   513   512  0.000000000E+00  0.000000000E+00 -3.800076130E+01  3.800076130E+01  0.000000000E+00  0.00000E+00  9.000E+00
      -1     1     1     2     0   515 -6.310669734E+00  4.239240245E-01 -4.784526113E+00  7.937559714E+00  3.300000131E-01  0.00000E+00  9.000E+00
      21     1     1     2   513   511  2.394093436E+00 -1.361261793E+01 -1.545212419E+01  2.073169535E+01  0.000000000E+00  0.00000E+00  9.000E+00
      21     1     1     2   515   512  3.916576298E+00  1.318869391E+01 -1.005497036E+01  1.704064687E+01  2.920019320E-07  0.00000E+00  9.000E+00
</event>
<event>
      5  10001  3.52971E+09  4.26729E+00 -1.00000E+00  2.57014E-01
      -1    -1     0     0     0   514  0.000000000E+00  0.000000000E+00  5.659512853E+01  5.659512853E+01  0.000000000E+00  0.00000E+00  9.000E+00
      21    -1     0     0   511   512  0.000000000E+00  0.000000000E+00 -2.292541851E+00  2.292541851E+00  0.000000000E+00  0.00000E+00  9.000E+00
      -1     1     1     2     0   512 -8.782652836E+00  4.230597891E+00  3.195576845E+01  3.341127035E+01  3.300000131E-01  0.00000E+00  9.000E+00
      21     1     1     2   513   514  7.558572308E+00 -2.335218724E+00  9.183615056E+00  1.212122301E+01  2.384185791E-07  0.00000E+00  9.000E+00
      21     1     1     2   511   513  1.224080528E+00 -1.895379167E+00  1.316320318E+01  1.335517702E+01  1.685873940E-07  0.00000E+00  9.000E+00
</event>
<event>
      5  10001  3.52971E+09  1.28865E+01 -1.00000E+00  1.83827E-01
      21    -1     0     0   515   512  0.000000000E+00  0.000000000E+00  5.690675891E+01  5.690675891E+01  0.000000000E+00  0.00000E+00  9.000E+00
      21    -1     0     0   511   516  0.000000000E+00  0.000000000E+00 -1.299940751E+01  1.299940751E+01  0.000000000E+00  0.00000E+00  9.000E+00
      21     1     1     2   515   516  2.503120315E+00 -1.916160811E+01 -5.418654741E-01  1.933200597E+01  1.623816395E-07  0.00000E+00  9.000E+00
      21     1     1     2   514   512 -1.572957063E+00  1.565089350E+01  1.811721552E+01  2.399287726E+01  3.371747881E-07  0.00000E+00  9.000E+00
      21     1     1     2   511   514 -9.301632520E-01  3.510714614E+00  2.633200135E+01  2.658128319E+01  4.768371582E-07  0.00000E+00  9.000E+00
</event>
<event>
      5  10001  3.52971E+09  2.63338E+01 -1.00000E+00  1.57076E-01
      21    -1     0     0   513   514  0.000000000E+00  0.000000000E+00  1.482123054E+02  1.482123054E+02  0.000000000E+00  0.00000E+00  9.000E+00
      21    -1     0     0   511   517  0.000000000E+00  0.000000000E+00 -1.845622468E+01  1.845622468E+01  0.000000000E+00  0.00000E+00  9.000E+00
      21     1     1     2   513   517  1.404922733E+01 -1.380548927E+01 -1.205949131E+01  2.309553318E+01  0.000000000E+00  0.00000E+00  9.000E+00
      21     1     1     2   512   514 -4.253931310E+00  3.971594137E+00  1.660241011E+01  1.759288245E+01  2.384185791E-07  0.00000E+00  9.000E+00
      21     1     1     2   511   512 -9.795296016E+00  9.833895132E+00  1.252131619E+02  1.259801144E+02  1.907348633E-06  0.00000E+00  9.000E+00
</event>
<event>
      5  10001  3.52971E+09  1.01902E+01 -1.00000E+00  1.94812E-01
      21    -1     0     0   515   512  0.000000000E+00  0.000000000E+00  3.520936048E+02  3.520936048E+02  0.000000000E+00  0.00000E+00  9.000E+00
      -2    -1     0     0     0   516  0.000000000E+00  0.000000000E+00 -4.552030208E+01  4.552030208E+01  0.000000000E+00  0.00000E+00  9.000E+00
      21     1     1     2   515   516 -8.566284599E+00  2.374185229E+01  2.258730617E+00  2.534084935E+01  8.333999785E-07  0.00000E+00  9.000E+00
      21     1     1     2   511   512 -1.616529616E+00 -2.335538987E+01  3.371138100E+02  3.379257437E+02  5.394796609E-06  0.00000E+00  9.000E+00
      -2     1     1     2     0   511  1.018281422E+01 -3.864624114E-01 -3.279923788E+01  3.434731378E+01  3.300000131E-01  0.00000E+00  9.000E+00
</event>
<event>
      5  10001  3.52971E+09  1.04926E+01 -1.00000E+00  1.93369E-01
      21    -1     0     0   513   511  0.000000000E+00  0.000000000E+00  3.015601184E+00  3.015601184E+00  0.000000000E+00  0.00000E+00  9.000E+00
      21    -1     0     0   511   512  0.000000000E+00  0.000000000E+00 -2.241109436E+02  2.241109436E+02  0.000000000E+00  0.00000E+00  9.000E+00
      21     1     1     2   514   512 -9.858915726E+00 -4.482432571E+00 -1.764783486E+02  1.768103446E+02  1.907348633E-06  0.00000E+00  9.000E+00
       4     1     1     2   513     0  4.347041061E+00  8.897677216E+00 -7.523739788E+00  1.252685460E+01  1.500000000E+00  0.00000E+00  9.000E+00
      -4     1     1     2     0   514  5.511874665E+00 -4.415244645E+00 -3.709325402E+01  3.778934561E+01  1.500000000E+00  0.00000E+00  9.000E+00
</event>
<event>
      5  10001  3.52971E+09  5.05550E+00 -1.00000E+00  2.37675E-01
      21    -1     0     0   515   512  0.000000000E+00  0.000000000E+00  4.387600163E+01  4.387600163E+01  0.000000000E+00  0.00000E+00  9.000E+00
      21    -1     0     0   511   514  0.000000000E+00  0.000000000E+00 -9.852415025E+00  9.852415025E+00  0.000000000E+00  0.00000E+00  9.000E+00
      21     1     1     2   515   514 -9.645734596E+00  7.277443668E-01 -6.011486916E+00  1.138893247E+01  3.264680848E-07  0.00000E+00  9.000E+00
      21     1     1     2   511   513  5.071519680E+00 -8.385514750E-01  3.559328780E+01  3.596255854E+01  4.768371582E-07  0.00000E+00  9.000E+00
      21     1     1     2   513   512  4.574214916E+00  1.108071082E-01  4.441785720E+00  6.376925646E+00  5.960464478E-08  0.00000E+00  9.000E+00
</event>
<event>
      5  10001  3.52971E+09  3.19571E+00 -1.00000E+00  2.88771E-01
      21    -1     0     0   516   513  0.000000000E+00  0.000000000E+00  5.361597039E+00  5.361597039E+00  0.000000000E+00  0.00000E+00  9.000E+00
      21    -1     0     0   512   514  0.000000000E+00  0.000000000E+00 -2.621673059E+02  2.621673059E+02  0.000000000E+00  0.00000E+00  9.000E+00
      21     1     1     2   511   513  9.220062784E+00  5.291750102E+00 -5.393334555E-01  1.064439089E+01  5.230816996E-07  0.00000E+00  9.000E+00
      21     1     1     2   512   511 -9.137163251E+00 -8.486381737E+00 -1.346644891E+02  1.352406413E+02  1.907348633E-06  0.00000E+00  9.000E+00
      21     1     1     2   516   514 -8.289953350E-02  3.194631635E+00 -1.216018863E+02  1.216438708E+02  1.348699152E-06  0.00000E+00  9.000E+00
</event>
<event>
      5  10001  3.52971E+09  2.31741E+00 -1.00000E+00  3.35622E-01
      21    -1     0     0   515   512  0.000000000E+00  0.000000000E+00  3.486036090E+02  3.486036090E+02  0.000000000E+00  0.00000E+00  9.000E+00
      21    -1     0     0   513   517  0.000000000E+00  0.000000000E+00 -4.117293696E-01  4.117293696E-01  0.000000000E+00  0.00000E+00  9.000E+00
      21     1     1     2   515   517  1.025138883E+01  4.922373439E+00  1.324082408E+02  1.328956845E+02  1.907348633E-06  0.00000E+00  9.000E+00
      21     1     1     2   511   512 -8.000213162E+00 -4.500076384E+00  1.395133293E+02  1.398149604E+02  0.000000000E+00  0.00000E+00  9.000E+00
      21     1     1     2   513   511 -2.251175668E+00 -4.222970551E-01  7.627030949E+01  7.630469341E+01  9.536743164E-07  0.00000E+00  9.000E+00
</event>
<event>
      5  10001  3.52971E+09  1.13056E+01 -1.00000E+00  1.89787E-01
      -3    -1     0     0     0   514  0.000000000E+00  0.000000000E+00  1.333112848E+01  1.333112848E+01  0.000000000E+00  0.00000E+00  9.000E+00
      21    -1     0     0   514   515  0.000000000E+00  0.000000000E+00 -1.901715138E+01  1.901715138E+01  0.000000000E+00  0.00000E+00  9.000E+00
      -3     1     1     2     0   516  3.053466376E+00  6.330410814E+00  9.924069734E+00  1.217106890E+01  5.000000000E-01  0.00000E+00  9.000E+00
      21     1     1     2   512   515 -6.951383361E+00 -5.130796124E+00 -9.616253076E+00  1.292745616E+01  1.192092896E-07  0.00000E+00  9.000E+00
      21     1     1     2   516   512  3.897916985E+00 -1.199614690E+00 -5.993839552E+00  7.249754809E+00  1.460009660E-07  0.00000E+00  9.000E+00
</event>
<event>
      5  10001  3.52971E+09  6.95375E+00 -1.00000E+00  2.15956E-01
       2    -1     0     0   513     0  0.000000000E+00  0.000000000E+00  2.962886875E+02  2.962886875E+02  0.000000000E+00  0.00000E+00  9.000E+00
      21    -1     0     0   512   513  0.000000000E+00  0.000000000E+00 -4.856527624E+01  4.856527624E+01  0.000000000E+00  0.00000E+00  9.000E+00
      21     1     1     2   512   511  1.135806408E+01  7.131968358E+00 -4.692198346E+01  4.880105659E+01  6.743495762E-07  0.00000E+00  9.000E+00
       2     1     1     2   514     0 -5.075315241E+00 -5.021750620E+00  2.786122078E+02  2.787038716E+02  3.300000131E-01  0.00000E+00  9.000E+00
      21     1     1     2   511   514 -6.282748835E+00 -2.110217739E+00  1.603318692E+01  1.734903556E+01  2.384185791E-07  0.00000E+00  9.000E+00
</event>
<event>
      5  10001  3.52971E+09  1.35502E+01 -1.00000E+00  1.81642E-01
      21    -1     0     0   515   512  0.000000000E+00  0.000000000E+00  4.486618375E+01  4.486618375E+01  0.000000000E+00  0.00000E+00  9.000E+00
      -3    -1     0     0     0   515  0.000000000E+00  0.000000000E+00 -3.135868064E+01  3.135868064E+01  0.000000000E+00  0.00000E+00  9.000E+00
      -3     1     1     2     0   513 -2.234741705E+01  7.671238095E+00 -2.247744706E+01  3.261503593E+01  5.000000000E-01  0.00000E+00  9.000E+00
      21     1     1     2   513   516  5.020733195E+00  1.210901659E+00  7.533756242E+00  9.134086039E+00  1.192092896E-07  0.00000E+00  9.000E+00
      21     1     1     2   516   512  1.732668385E+01 -8.882139754E+00  2.845119392E+01  3.447574242E+01  8.259061849E-07  0.00000E+00  9.000E+00
</event>
<event>
      5  10001  3.52971E+09  5.20377E+00 -1.00000E+00  2.35518E-01
      21    -1     0     0   513   512  0.000000000E+00  0.000000000E+00  3.999155959E+00  3.999155959E+00  0.000000000E+00  0.00000E+00  9.000E+00
      -1    -1     0     0     0   511  0.000000000E+00  0.000000000E+00 -1.640284721E+02  1.640284721E+02  0.000000000E+00  0.00000E+00  9.000E+00
      -1     1     1     2     0   512 -9.261129826E+00 -5.561492156E+00 -3.441607856E+01  3.607317680E+01  3.300000131E-01  0.00000E+00  9.000E+00
      21     1     1     2   514   511  1.121941526E+01  1.038217449E+01 -1.258218629E+02  1.267470158E+02  1.907348633E-06  0.00000E+00  9.000E+00
      21     1     1     2   513   514 -1.958285433E+00 -4.820682333E+00  2.086252995E-01  5.207435502E+00  2.788498612E-07  0.00000E+00  9.000E+00
</event>
<event>
      5  10001  3.52971E+09  5.24822E+00 -1.00000E+00  2.34891E-01
      21    -1     0     0   515   511  0.000000000E+00  0.000000000E+00  6.832036897E+01  6.832036897E+01  0.000000000E+00  0.00000E+00  9.000E+00
      21    -1     0     0   516   515  0.000000000E+00  0.000000000E+00 -8.068525315E+00  8.068525315E+00  0.000000000E+00  0.00000E+00  9.000E+00
      21     1     1     2   514   511  7.622867422E+00 -8.764952545E+00  6.015821904E+01  6.126943625E+01  0.000000000E+00  0.00000E+00  9.000E+00
      21     1     1     2   512   514 -6.377069914E+00  3.659226177E+00 -4.079796448E+00  8.408430053E+00  1.460009660E-07  0.00000E+00  9.000E+00
      21     1     1     2   516   512 -1.245797508E+00  5.105726368E+00  4.173421065E+00  6.711027981E+00  1.884864366E-07  0.00000E+00  9.000E+00
</event>
<event>
      5  10001  3.52971E+09  5.94401E+00 -1.00000E+00  2.26100E-01
      21    -1     0     0   513   514  0.000000000E+00  0.000000000E+00  1.365706218E+01  1.365706218E+01  0.000000000E+00  0.00000E+00  9.000E+00
      21    -1     0     0   516   513  0.000000000E+00  0.000000000E+00 -7.843373094E+00  7.843373094E+00  0.000000000E+00  0.00000E+00  9.000E+00
      21     1     1     2   512   514 -9.293499690E+00 -1.872072944E+00  3.420516553E+00  1.007837919E+01  8.429369702E-08  0.00000E+00  9.000E+00
      21     1     1     2   516   511  4.707351476E+00 -5.681718161E-01 -1.452001456E+00  4.958859280E+00  3.650024150E-08  0.00000E+00  9.000E+00
      21     1     1     2   511   512  4.586148214E+00  2.440244760E+00  3.845173988E+00  6.463196804E+00  9.424321831E-08  0.00000E+00  9.000E+00
</event>
<event>
      5  10001  3.52971E+09  9.37631E+00 -1.00000E+00  1.99042E-01
       2    -1     0     0   515     0  0.000000000E+00  0.000000000E+00  9.438426058E+01  9.438426058E+01  0.000000000E+00  0.00000E+00  9.000E+00
      21    -1     0     0   514   512  0.000000000E+00  0.000000000E+00 -1.265958581E+02  1.265958581E+02  0.000000000E+00  0.00000E+00  9.000E+00
      21     1     1     2   515   512 -2.436323796E+01 -1.343877838E+01 -2.375471432E+01  3.658489553E+01  4.768371582E-07  0.00000E+00  9.000E+00
      21     1     1     2   514   516  1.849152362E+01  2.074888876E+01 -9.416201596E+01  9.817809369E+01  2.336015456E-06  0.00000E+00  9.000E+00
       2     1     1     2   516     0  5.871714341E+00 -7.310110379E+00  8.570513273E+01  8.621712950E+01  3.300000131E-01  0.00000E+00  9.000E+00
</event>
<event>
      5  10001  3.52971E+09  4.07424E+00 -1.00000E+00  2.61594E-01
      21    -1     0     0   511   512  0.000000000E+00  0.000000000E+00  1.652828484E+01  1.652828484E+01  0.000000000E+00  0.00000E+00  9.000E+00
      21    -1     0     0   517   513  0.000000000E+00  0.000000000E+00 -3.313018905E+01  3.313018905E+01  0.000000000E+00  0.00000E+00  9.000E+00
      21     1     1     2   511   513 -7.386452094E+00 -1.431064978E+01  8.117117666E+00  1.803446620E+01  3.576278687E-07  0.00000E+00  9.000E+00
      21     1     1     2   517   514  6.474371624E+00  1.244863908E+01 -2.573754981E+01  2.931394843E+01  3.371747881E-07  0.00000E+00  9.000E+00
      21     1     1     2   514   512  9.120804702E-01  1.862010709E+00  1.018527920E+00  2.310059261E+00  5.372690075E-08  0.00000E+00  9.000E+00
</event>
<event>
      5  10001  3.52971E+09  1.33650E+02 -1.00000E+00  1.18414E-01
       2    -1     0     0   511     0  0.000000000E+00  0.000000000E+00  1.830649259E+02  1.830649259E+02  0.000000000E+00  0.00000E+00  9.000E+00
      21    -1     0     0   515   511  0.000000000E+00  0.000000000E+00 -6.036857406E+01  6.036857406E+01  0.000000000E+00  0.00000E+00  9.000E+00
      21     1     1     2   515   514 -6.953677224E+01  1.151159208E+01  2.870850821E+01  7.610557069E+01  1.469710828E-06  0.00000E+00  9.000E+00
      21     1     1     2   514   513  3.063199595E+01  8.522354086E+00 -2.506492686E+01  4.048703809E+01  4.768371582E-07  0.00000E+00  9.000E+00
       2     1     1     2   513     0  3.890477629E+01 -2.003394617E+01  1.190527704E+02  1.268408912E+02  3.300000131E-01  0.00000E+00  9.000E+00
</event>
<event>
      5  10001  3.52971E+09  1.56273E+01 -1.00000E+00  1.75720E-01
       1    -1     0     0   513     0  0.000000000E+00  0.000000000E+00  1.077998946E+02  1.077998946E+02  0.000000000E+00  0.00000E+00  9.000E+00
      21    -1     0     0   512   511  0.000000000E+00  0.000000000E+00 -9.291725396E+00  9.291725396E+00  0.000000000E+00  0.00000E+00  9.000E+00
      21     1     1     2   513   511  1.243220482E+01  4.616054496E+00 -3.360494345E+00  1.368066512E+01  5.575503985E-07  0.00000E+00  9.000E+00
       1     1     1     2   514     0 -1.019801079E+00 -6.173740922E+00  3.747581321E+01  3.799605963E+01  3.300000131E-01  0.00000E+00  9.000E+00
      21     1     1     2   512   514 -1.141240374E+01  1.557686426E+00  6.439285031E+01  6.541489522E+01  9.536743164E-07  0.00000E+00  9.000E+00
</event>
<event>
      5  10001  3.52971E+09  5.23468E+00 -1.00000E+00  2.35081E-01
       1    -1     0     0   512     0  0.000000000E+00  0.000000000E+00  4.746619860E+02  4.746619860E+02  0.000000000E+00  0.00000E+00  9.000E+00
       2    -1     0     0   515     0  0.000000000E+00  0.000000000E+00 -3.829111218E+02  3.829111218E+02  0.000000000E+00  0.00000E+00  9.000E+00
      21     1     1     2   515   514 -2.120618477E-01  1.318850006E+01 -1.976913882E+01  2.376552869E+01  1.039242493E-06  0.00000E+00  9.000E+00
       2     1     1     2   512     0 -7.752892181E-01 -8.047784047E+00 -3.610839080E+02  3.611745636E+02  3.300000131E-01  0.00000E+00  9.000E+00
       1     1     1     2   514     0  9.873510659E-01 -5.140716012E+00  4.726039109E+02  4.726330155E+02  3.300000131E-01  0.00000E+00  9.000E+00
</event>
<event>
      5  10001  3.52971E+09  3.38352E+00 -1.00000E+00  2.81854E-01
      21    -1     0     0   511   513  0.000000000E+00  0.000000000E+00  1.064026818E+00  1.064026818E+00  0.000000000E+00  0.00000E+00  9.000E+00
       1    -1     0     0   515     0  0.000000000E+00  0.000000000E+00 -2.593518649E+02  2.593518649E+02  0.000000000E+00  0.00000E+00  9.000E+00
      21     1     1     2   512   513 -2.082197475E+00  1.329931763E+01 -5.705301614E+01  5.861957050E+01  9.536743164E-07  0.00000E+00  9.000E+00
       1     1     1     2   511     0  4.362860914E+00 -1.080052043E+01 -1.533119294E+02  1.537541622E+02  3.300000131E-01  0.00000E+00  9.000E+00
      21     1     1     2   515   512 -2.280663440E+00 -2.498797193E+00 -4.792289259E+01  4.804215906E+01  9.536743164E-07  0.00000E+00  9.000E+00
</event>
<event>
      5  10001  3.52971E+09  8.39664E+00 -1.00000E+00  2.04955E-01
      21    -1     0     0   514   515  0.000000000E+00  0.000000000E+00  1.506163766E+00  1.506163766E+00  0.000000000E+00  0.00000E+00  9.000E+00
      -1    -1     0     0     0   512  0.000000000E+00  0.000000000E+00 -7.458308761E+01  7.458308761E+01  0.000000000E+00  0.00000E+00  9.000E+00
      -1     1     1     2     0   515 -1.492856170E+00 -8.381907070E+00 -2.839590465E+01  2.964660666E+01  3.300000131E-01  0.00000E+00  9.000E+00
      21     1     1     2   511   512 -2.815534833E+00  5.972917733E+00 -1.551297115E+01  1.685987119E+01  3.371747881E-07  0.00000E+00  9.000E+00
      21     1     1     2   514   511  4.308391003E+00  2.408989337E+00 -2.916804805E+01  2.958277353E+01  3.371747881E-07  0.00000E+00  9.000E+00
</event>
<event>
      5  10001  3.52971E+09  6.87850E+00 -1.00000E+00  2.16628E-01
      -3    -1     0     0     0   513  0.000000000E+00  0.000000000E+00  4.699307817E+01  4.699307817E+01  0.000000000E+00  0.00000E+00  9.000E+00
      21    -1     0     0   514   511  0.000000000E+00  0.000000000E+00 -2.007161815E+01  2.007161815E+01  0.000000000E+00  0.00000E+00  9.000E+00
      21     1     1     2   512   511 -7.486334365E+00 -4.405684492E+00 -1.577839922E+01  1.801147246E+01  6.078504936E-07  0.00000E+00  9.000E+00
      21     1     1     2   514   513  7.811324712E+00  1.020311483E+01  4.102346245E+01  4.298889179E+01  6.743495762E-07  0.00000E+00  9.000E+00
      -3     1     1     2     0   512 -3.249903470E-01 -5.797430340E+00  1.676396786E+00  6.064332071E+00  5.000000000E-01  0.00000E+00  9.000E+00
</event>
<event>
      5  10001  3.52971E+09  3.95509E+00 -1.00000E+00  2.64623E-01
      21    -1     0     0   515   512  0.000000000E+00  0.000000000E+00  4.730936040E+01  4.730936040E+01  0.000000000E+00  0.00000E+00  9.000E+00
      21    -1     0     0   516   515  0.000000000E+00  0.000000000E+00 -4.782242152E+01  4.782242152E+01  0.000000000E+00  0.00000E+00  9.000E+00
      21     1     1     2   514   512 -8.909029891E+00  8.630474204E+00  4.564984465E+01  4.730501258E+01  0.000000000E+00  0.00000E+00  9.000E+00
      21     1     1     2   511   514  1.541093155E+00 -1.634341995E+00 -6.267388139E+00  6.657792123E+00  1.460009660E-07  0.00000E+00  9.000E+00
      21     1     1     2   516   511  7.367936737E+00 -6.996132209E+00 -3.989551763E+01  4.116897721E+01  8.259061849E-07  0.00000E+00  9.000E+00
</event>
<event>
      5  10001  3.52971E+09  5.95130E+00 -1.00000E+00  2.26017E-01
      21    -1     0     0   513   511  0.000000000E+00  0.000000000E+00  1.537868104E+01  1.537868104E+01  0.000000000E+00  0.00000E+00  9.000E+00
       3    -1     0     0   512     0  0.000000000E+00  0.000000000E+00 -2.430716389E+01  2.430716389E+01  0.000000000E+00  0.00000E+00  9.000E+00
      21     1     1     2   512   514  8.818058790E-01 -7.181198770E+00  5.492015098E+00  9.083469999E+00  1.032382731E-07  0.00000E+00  9.000E+00
       3     1     1     2   513     0 -2.569856300E+00  1.615872785E+01 -1.386234815E+01  2.145048585E+01  5.000000000E-01  0.00000E+00  9.000E+00
      21     1     1     2   514   511  1.688050421E+00 -8.977529076E+00 -5.581497877E-01  9.151889079E+00  1.630639183E-07  0.00000E+00  9.000E+00
</event>
<event>
      5  10001  3.52971E+09  7.77693E+00 -1.00000E+00  2.09284E-01
      21    -1     0     0   515   514  0.000000000E+00  0.000000000E+00  4.038709184E+01  4.038709184E+01  0.000000000E+00  0.00000E+00  9.000E+00
      21    -1     0     0   512   511  0.000000000E+00  0.000000000E+00 -2.967630449E+01  2.967630449E+01  0.000000000E+00  0.00000E+00  9.000E+00
      21     1     1     2   515   511  1.202873402E+01 -2.568470101E+00  3.676480848E+01  3.876775236E+01  8.259061849E-07  0.00000E+00  9.000E+00
      -5     1     1     2     0   514 -5.988811609E+00  5.037730148E+00 -1.257259955E+01  1.556775035E+01  4.800000191E+00  0.00000E+00  9.000E+00
       5     1     1     2   512     0 -6.039922411E+00 -2.469260047E+00 -1.348142158E+01  1.572789362E+01  4.800000191E+00  0.00000E+00  9.000E+00
</event>
<event>
      5  10001  3.52971E+09  4.48457E+00 -1.00000E+00  2.52285E-01
      21    -1     0     0   513   511  0.000000000E+00  0.000000000E+00  5.661169498E+00  5.661169498E+00  0.000000000E+00  0.00000E+00  9.000E+00
      21    -1     0     0   514   516  0.000000000E+00  0.000000000E+00 -3.838238528E+02  3.838238528E+02  0.000000000E+00  0.00000E+00  9.000E+00
      21     1     1     2   513   516 -1.079257636E+01  6.426496643E+00 -1.541735936E+01  1.988654151E+01  4.129530925E-07  0.00000E+00  9.000E+00
      21     1     1     2   512   511  7.145218811E+00 -3.817246978E+00 -1.394833646E+00  8.220163456E+00  4.214684851E-08  0.00000E+00  9.000E+00
      21     1     1     2   514   512  3.647357549E+00 -2.609249665E+00 -3.613504903E+02  3.613783174E+02  3.814697266E-06  0.00000E+00  9.000E+00
</event>
<event>
      5  10001  3.52971E+09  4.08298E+00 -1.00000E+00  2.61378E-01
      21    -1     0     0   515   511  0.000000000E+00  0.000000000E+00  1.214501421E+02  1.214501421E+02  0.000000000E+00  0.00000E+00  9.000E+00
      21    -1     0     0   514   515  0.000000000E+00  0.000000000E+00 -3.068784865E+01  3.068784865E+01  0.000000000E+00  0.00000E+00  9.000E+00
      21     1     1     2   514   517 -1.255840153E+00  9.685029577E+00 -2.929871706E+01  3.088351913E+01  1.011524364E-06  0.00000E+00  9.000E+00
      21     1     1     2   517   512 -2.134020122E+00 -1.196090179E+01  1.028816604E+02  1.035965890E+02  1.907348633E-06  0.00000E+00  9.000E+00
      21     1     1     2   512   511  3.389860275E+00  2.275872217E+00  1.717935013E+01  1.765788260E+01  2.384185791E-07  0.00000E+00  9.000E+00
</event>
<event>
      5  10001  3.52971E+09  6.82885E+00 -1.00000E+00  2.17079E-01
      21    -1     0     0   513   511  0.000000000E+00  0.000000000E+00  3.946872724E+00  3.946872724E+00  0.000000000E+00  0.00000E+00  9.000E+00
      21    -1     0     0   512   513  0.000000000E+00  0.000000000E+00 -3.556773838E+01  3.556773838E+01  0.000000000E+00  0.00000E+00  9.000E+00
      -3     1     1     2     0   511 -2.552632995E+00 -8.992186009E+00 -8.417372760E+00  1.258878503E+01  5.000000000E-01  0.00000E+00  9.000E+00
       3     1     1     2   514     0  5.843701578E+00  7.446109970E+00 -1.296142564E+01  1.605745797E+01  5.000000000E-01  0.00000E+00  9.000E+00
      21     1     1     2   512   514 -3.291068583E+00  1.546076039E+00 -1.024206725E+01  1.086836810E+01  0.000000000E+00  0.00000E+00  9.000E+00
</event>
<event>
      5  10001  3.52971E+09  6.36234E+00 -1.00000E+00  2.21582E-01
      -2    -1     0     0     0   515  0.000000000E+00  0.000000000E+00  5.658249795E+01  5.658249795E+01  0.000000000E+00  0.00000E+00  9.000E+00
      21    -1     0     0   511   513  0.000000000E+00  0.000000000E+00 -6.468712828E+00  6.468712828E+00  0.000000000E+00  0.00000E+00  9.000E+00
      -2     1     1     2     0   513  1.508398360E+01  3.127985125E+00  3.880841005E+01  4.175538819E+01  3.300000131E-01  0.00000E+00  9.000E+00
      21     1     1     2   516   515 -9.563217473E+00 -6.289330566E+00  5.565629075E+00  1.272741271E+01  3.209808354E-07  0.00000E+00  9.000E+00
      21     1     1     2   511   516 -5.520766130E+00  3.161345440E+00  5.739745995E+00  8.568409873E+00  8.429369702E-08  0.00000E+00  9.000E+00
</event>
<event>
      5  10001  3.52971E+09  2.58160E+00 -1.00000E+00  3.18165E-01
      21    -1     0     0   512   515  0.000000000E+00  0.000000000E+00  2.992704110E+00  2.992704110E+00  0.000000000E+00  0.00000E+00  9.000E+00
      21    -1     0     0   511   512  0.000000000E+00  0.000000000E+00 -6.576348095E+01  6.576348095E+01  0.000000000E+00  0.00000E+00  9.000E+00
      21     1     1     2   514   515  1.096695580E+01 -2.714136481E+00 -1.158972555E+01  1.618525238E+01  3.769728732E-07  0.00000E+00  9.000E+00
      21     1     1     2   511   513 -6.966017364E+00  2.896288850E+00 -3.972390406E+01  4.043392685E+01  6.743495762E-07  0.00000E+00  9.000E+00
      21     1     1     2   513   514 -4.000938432E+00 -1.821523683E-01 -1.145714723E+01  1.213700583E+01  2.384185791E-07  0.00000E+00  9.000E+00
</event>
<event>
      5  10001  3.52971E+09  7.62241E+00 -1.00000E+00  2.10449E-01
      21    -1     0     0   516   511  0.000000000E+00  0.000000000E+00  2.677653746E+01  2.677653746E+01  0.000000000E+00  0.00000E+00  9.000E+00
      21    -1     0     0   512   514  0.000000000E+00  0.000000000E+00 -1.279959687E+02  1.279959687E+02  0.000000000E+00  0.00000E+00  9.000E+00
      21     1     1     2   516   514  1.832205754E-01  1.117784879E+01 -5.624094620E+00  1.251432434E+01  2.920019320E-07  0.00000E+00  9.000E+00
      21     1     1     2   515   511 -7.804562070E+00 -1.105046458E+01  2.123560068E+01  2.517885408E+01  4.129530925E-07  0.00000E+00  9.000E+00
      21     1     1     2   512   515  7.621341495E+00 -1.273842092E-01 -1.168309373E+02  1.170793277E+02  1.907348633E-06  0.00000E+00  9.000E+00
</event>
<event>
      5  10001  3.52971E+09  7.67584E+00 -1.00000E+00  2.10042E-01
      21    -1     0     0   513   511  0.000000000E+00  0.000000000E+00  3.710829545E+02  3.710829545E+02  0.000000000E+00  0.00000E+00  9.000E+00
      21    -1     0     0   512   513  0.000000000E+00  0.000000000E+00 -4.819532749E+00  4.819532749E+00  0.000000000E+00  0.00000E+00  9.000E+00
      21     1     1     2   515   511  1.998998358E+00  1.135680573E+01  3.384028203E+02  3.385992348E+02  3.814697266E-06  0.00000E+00  9.000E+00
      21     1     1     2   512   514  1.858899888E+00 -1.439379505E+01  7.456529340E+00  1.631676054E+01  7.102713160E-07  0.00000E+00  9.000E+00
      21     1     1     2   514   515 -3.857898246E+00  3.036989328E+00  2.040407209E+01  2.098649186E+01  2.384185791E-07  0.00000E+00  9.000E+00
</event>
<event>
      5  10001  3.52971E+09  3.30759E+01 -1.00000E+00  1.50150E-01
      21    -1     0     0   514   515  0.000000000E+00  0.000000000E+00  1.042624008E+01  1.042624008E+01  0.000000000E+00  0.00000E+00  9.000E+00
      21    -1     0     0   515   513  0.000000000E+00  0.000000000E+00 -3.711814016E+01  3.711814016E+01  0.000000000E+00  0.00000E+00  9.000E+00
      -2     1     1     2     0   511 -1.050277876E+00 -5.674906214E+00 -3.015217185E+00  6.519821994E+00  3.300000131E-01  0.00000E+00  9.000E+00
       2     1     1     2   514     0 -1.463638913E+01 -2.833590382E+00 -6.538852977E+00  1.628246355E+01  3.300000131E-01  0.00000E+00  9.000E+00
      21     1     1     2   511   513  1.568666700E+01  8.508496595E+00 -1.713782992E+01  2.474209470E+01  3.371747881E-07  0.00000E+00  9.000E+00
</event>
<event>
      5  10001  3.52971E+09  5.62003E+00 -1.00000E+00  2.29970E-01
      21    -1     0     0   514   512  0.000000000E+00  0.000000000E+00  4.955712598E+00  4.955712598E+00  0.000000000E+00  0.00000E+00  9.000E+00
      21    -1     0     0   512   513  0.000000000E+00  0.000000000E+00 -1.326409030E+02  1.326409030E+02  0.000000000E+00  0.00000E+00  9.000E+00
      -2     1     1     2     0   515  1.285888995E+01 -3.346163404E+00 -1.624156837E+01  2.098678878E+01  3.300000131E-01  0.00000E+00  9.000E+00
      21     1     1     2   515   513 -1.013565690E+01  8.261340246E+00 -1.100325870E+02  1.108068206E+02  1.907348633E-06  0.00000E+00  9.000E+00
       2     1     1     2   514     0 -2.723233051E+00 -4.915176842E+00 -1.411035035E+00  5.803006248E+00  3.300000131E-01  0.00000E+00  9.000E+00
</event>
<event>
      5  10001  3.52971E+09  7.28660E+00 -1.00000E+00  2.13114E-01
       2    -1     0     0   513     0  0.000000000E+00  0.000000000E+00  1.759810973E+02  1.759810973E+02  0.000000000E+00  0.00000E+00  9.000E+00
      21    -1     0     0   514   513  0.000000000E+00  0.000000000E+00 -6.868067293E+01  6.868067293E+01  0.000000000E+00  0.00000E+00  9.000E+00
      21     1     1     2   514   512 -1.455511989E+01  7.646445886E+00 -6.123599798E+01  6.340478766E+01  1.348699152E-06  0.00000E+00  9.000E+00
       2     1     1     2   511     0  1.507793594E+01 -1.480470492E+00  1.729775911E+02  1.736401218E+02  3.300000131E-01  0.00000E+00  9.000E+00
      21     1     1     2   512   511 -5.228160481E-01 -6.165975395E+00 -4.441168755E+00  7.616860843E+00  1.685873940E-07  0.00000E+00  9.000E+00
</event>
<event>
      5  10001  3.52971E+09  3.88087E+00 -1.00000E+00  2.66594E-01
      21    -1     0     0   513   511  0.000000000E+00  0.000000000E+00  1.147758804E+01  1.147758804E+01  0.000000000E+00  0.00000E+00  9.000E+00
      21    -1     0     0   512   516  0.000000000E+00  0.000000000E+00 -2.085580582E+01  2.085580582E+01  0.000000000E+00  0.00000E+00  9.000E+00
      21     1     1     2   515   516  3.410747465E+00  1.133149169E+01 -6.651810419E-01  1.185235707E+01  2.142608739E-07  0.00000E+00  9.000E+00
      21     1     1     2   512   511  4.412910489E-01 -1.085928447E+01 -1.140792226E+01  1.575625232E+01  1.685873940E-07  0.00000E+00  9.000E+00
      21     1     1     2   513   515 -3.852038514E+00 -4.722072246E-01  2.694885524E+00  4.724784478E+00  8.429369702E-08  0.00000E+00  9.000E+00
</event>
<event>
      5  10001  3.52971E+09  6.27136E+00 -1.00000E+00  2.22523E-01
      21    -1     0     0   515   512  0.000000000E+00  0.000000000E+00  2.020070940E+01  2.020070940E+01  0.000000000E+00  0.00000E+00  9.000E+00
      21    -1     0     0   514   515  0.000000000E+00  0.000000000E+00 -2.982660640E+01  2.982660640E+01  0.000000000E+00  0.00000E+00  9.000E+00
      -2     1     1     2     0   511 -7.548464052E+00 -1.258021901E+00  1.296026403E+01  1.505454324E+01  3.300000131E-01  0.00000E+00  9.000E+00
       2     1     1     2   514     0  1.265819276E+01  4.892864624E+00 -2.484166816E+01  2.830878566E+01  3.300000131E-01  0.00000E+00  9.000E+00
      21     1     1     2   511   512 -5.109728705E+00 -3.634842722E+00  2.255507136E+00  6.663986907E+00  0.000000000E+00  0.00000E+00  9.000E+00
</event>
<event>
      5  10001  3.52971E+09  1.34914E+01 -1.00000E+00  1.81829E-01
      21    -1     0     0   513   516  0.000000000E+00  0.000000000E+00  7.451118954E+01  7.451118954E+01  0.000000000E+00  0.00000E+00  9.000E+00
      21    -1     0     0   512   513  0.000000000E+00  0.000000000E+00 -1.210232545E+01  1.210232545E+01  0.000000000E+00  0.00000E+00  9.000E+00
      21     1     1     2   514   516 -1.578880158E+00  1.208185203E+01  6.111061710E+01  6.231349399E+01  0.000000000E+00  0.00000E+00  9.000E+00
      21     1     1     2   512   515 -6.867750813E+00 -7.317962242E+00 -6.413422272E+00  1.191010318E+01  2.230201594E-07  0.00000E+00  9.000E+00
      21     1     1     2   515   514  8.446630971E+00 -4.763889793E+00  7.711669260E+00  1.238991782E+01  1.685873940E-07  0.00000E+00  9.000E+00
</event>
<event>
      5  10001  3.52971E+09  9.27980E+00 -1.00000E+00  1.99581E-01
      21    -1     0     0   511   512  0.000000000E+00  0.000000000E+00  1.084500783E+00  1.084500783E+00  0.000000000E+00  0.00000E+00  9.000E+00
      21    -1     0     0   516   514  0.000000000E+00  0.000000000E+00 -1.640444865E+02  1.640444865E+02  0.000000000E+00  0.00000E+00  9.000E+00
      21     1     1     2   511   514 -2.959000398E+00 -9.888512615E+00 -6.459624411E+01  6.541569474E+01  1.348699152E-06  0.00000E+00  9.000E+00
      21     1     1     2   513   512 -2.709956384E+00  1.029508015E+01 -6.646711841E+01  6.731426571E+01  9.536743164E-07  0.00000E+00  9.000E+00
      21     1     1     2   516   513  5.668956782E+00 -4.065675359E-01 -3.189662318E+01  3.239902682E+01  3.371747881E-07  0.00000E+00  9.000E+00
</event>
<event>
      5  10001  3.52971E+09  9.37070E+00 -1.00000E+00  1.99073E-01
       3    -1     0     0   511     0  0.000000000E+00  0.000000000E+00  3.747052047E+02  3.747052047E+02  0.000000000E+00  0.00000E+00  9.000E+00
      -3    -1     0     0     0   511  0.000000000E+00  0.000000000E+00 -5.894421204E+00  5.894421204E+00  0.000000000E+00  0.00000E+00  9.000E+00
      21     1     1     2   514   512  5.767752979E+00 -1.893921717E+00 -1.363676378E+00  6.222019540E+00  5.440454562E-07  0.00000E+00  9.000E+00
       3     1     1     2   512     0 -2.992988276E+00  9.883431689E+00  3.633538805E+02  3.635009391E+02  5.000000000E-01  0.00000E+00  9.000E+00
      -3     1     1     2     0   514 -2.774764704E+00 -7.989509972E+00  6.820579308E+00  1.087666727E+01  5.000000000E-01  0.00000E+00  9.000E+00
</event>
<event>
      5  10001  3.52971E+09  6.01978E+00 -1.00000E+00  2.25244E-01
      21    -1     0     0   514   515  0.000000000E+00  0.000000000E+00  2.660933898E+01  2.660933898E+01  0.000000000E+00  0.00000E+00  9.000E+00
      -3    -1     0     0     0   511  0.000000000E+00  0.000000000E+00 -5.552914698E+02  5.552914698E+02  0.000000000E+00  0.00000E+00  9.000E+00
      -3     1     1     2     0   515 -4.865553351E+00 -1.272920178E+01 -5.003344208E+02  5.005202182E+02  5.000000000E-01  0.00000E+00  9.000E+00
      21     1     1     2   514   513 -7.272439007E-01  1.050254905E+01  2.529647306E+01  2.739970747E+01  2.158972058E-06  0.00000E+00  9.000E+00
      21     1     1     2   513   511  5.592797252E+00  2.226652736E+00 -5.364418311E+01  5.398088314E+01  0.000000000E+00  0.00000E+00  9.000E+00
</event>
<event>
      5  10001  3.52971E+09  1.14497E+01 -1.00000E+00  1.89193E-01
      21    -1     0     0   512   511  0.000000000E+00  0.000000000E+00  3.297258048E-01  3.297258048E-01  0.000000000E+00  0.00000E+00  9.000E+00
      21    -1     0     0   515   516  0.000000000E+00  0.000000000E+00 -4.798815447E+02  4.798815447E+02  0.000000000E+00  0.00000E+00  9.000E+00
      21     1     1     2   512   516 -6.421387970E+00 -5.740640498E+00 -8.628369552E+01  8.671254402E+01  1.651812370E-06  0.00000E+00  9.000E+00
      21     1     1     2   515   514  6.100285258E+00 -1.412724767E+00 -1.671162985E+02  1.672335687E+02  2.697398305E-06  0.00000E+00  9.000E+00
      21     1     1     2   514   511  3.211027123E-01  7.153365265E+00 -2.261518249E+02  2.262651578E+02  3.814697266E-06  0.00000E+00  9.000E+00
</event>
<event>
      5  10001  3.52971E+09  9.87158E+00 -1.00000E+00  1.96404E-01
      21    -1     0     0   514   511  0.000000000E+00  0.000000000E+00  1.835255521E+01  1.835255521E+01  0.000000000E+00  0.00000E+00  9.000E+00
       2    -1     0     0   511     0  0.000000000E+00  0.000000000E+00 -5.120021501E+01  5.120021501E+01  0.000000000E+00  0.00000E+00  9.000E+00
      21     1     1     2   512   513 -2.982091311E+00 -4.319744161E+00  1.694460520E+01  1.773901642E+01  7.152557373E-07  0.00000E+00  9.000E+00
       2     1     1     2   513     0  6.896682075E+00  5.659167222E+00 -4.251843687E+01  4.344556100E+01  3.300000131E-01  0.00000E+00  9.000E+00
      21     1     1     2   514   512 -3.914590764E+00 -1.339423061E+00 -7.273828131E+00  8.368192796E+00  8.429369702E-08  0.00000E+00  9.000E+00
</event>
<event>
      5  10001 -3.52971E+09  9.17204E+00 -1.00000E+00  2.00194E-01
      21    -1     0     0   515   511  0.000000000E+00  0.000000000E+00  3.786964812E+02  3.786964812E+02  0.000000000E+00  0.00000E+00  9.000E+00
       5    -1     0     0   516     0  0.000000000E+00  0.000000000E+00 -3.799348456E+02  3.799348456E+02  0.000000000E+00  0.00000E+00  9.000E+00
      21     1     1     2   513   511  6.464084228E+00  3.130420716E-02  3.779521183E+02  3.780073929E+02  5.394796609E-06  0.00000E+00  9.000E+00
       5     1     1     2   515     0 -1.537942643E+01 -2.180335278E+00 -1.024868370E+02  1.037683592E+02  4.800000191E+00  0.00000E+00  9.000E+00
      21     1     1     2   516   513  8.915342200E+00  2.149031071E+00 -2.767036458E+02  2.768555747E+02  0.000000000E+00  0.00000E+00  9.000E+00
</event>
<event>
      5  10001  3.52971E+09  6.79538E+00 -1.00000E+00  2.17385E-01
      -1    -1     0     0     0   512  0.000000000E+00  0.000000000E+00  9.548809576E-01  9.548809576E-01  0.000000000E+00  0.00000E+00  9.000E+00
       2    -1     0     0   512     0  0.000000000E+00  0.000000000E+00 -7.550788042E+02  7.550788042E+02  0.000000000E+00  0.00000E+00  9.000E+00
      -1     1     1     2     0   513  2.315767713E+00  1.151157738E+01 -3.793509909E+01  3.971221269E+01  3.300000131E-01  0.00000E+00  9.000E+00
       2     1     1     2   511     0 -7.547713303E-01 -2.933881148E+00 -4.024310344E+02  4.024425719E+02  3.300000131E-01  0.00000E+00  9.000E+00
      21     1     1     2   513   511 -1.560996383E+00 -8.577696235E+00 -3.137577898E+02  3.138789006E+02  0.000000000E+00  0.00000E+00  9.000E+00
</event>
<event>
      5  10001  3.52971E+09  6.82079E+00 -1.00000E+00  2.17152E-01
      21    -1     0     0   514   515  0.000000000E+00  0.000000000E+00  2.218164132E+02  2.218164132E+02  0.000000000E+00  0.00000E+00  9.000E+00
      21    -1     0     0   512   514  0.000000000E+00  0.000000000E+00 -6.193175016E+00  6.193175016E+00  0.000000000E+00  0.00000E+00  9.000E+00
      21     1     1     2   511   515  1.248424125E+01 -1.284456388E-01  2.128370247E+02  2.132028890E+02  2.697398305E-06  0.00000E+00  9.000E+00
      21     1     1     2   516   511 -5.687160002E+00 -3.440384213E+00  2.099125633E-02  6.646839329E+00  2.772657148E-07  0.00000E+00  9.000E+00
      21     1     1     2   512   516 -6.797081246E+00  3.568829852E+00  2.765222221E+00  8.159859919E+00  1.299053116E-07  0.00000E+00  9.000E+00
</event>
<event>
      5  10001  3.52971E+09  9.67490E+00 -1.00000E+00  1.97426E-01
      21    -1     0     0   513   515  0.000000000E+00  0.000000000E+00  1.355062806E+01  1.355062806E+01  0.000000000E+00  0.00000E+00  9.000E+00
      21    -1     0     0   512   517  0.000000000E+00  0.000000000E+00 -8.253004959E+00  8.253004959E+00  0.000000000E+00  0.00000E+00  9.000E+00
      21     1     1     2   513   517  8.810693895E-02  7.708988467E+00  7.657080494E-01  7.747423754E+00  1.591008641E-07  0.00000E+00  9.000E+00
      21     1     1     2   512   511 -2.333561649E+00 -4.404721329E+00  7.551551217E+00  9.048370336E+00  2.528810911E-07  0.00000E+00  9.000E+00
      21     1     1     2   511   515  2.245454710E+00 -3.304267138E+00 -3.019636165E+00  5.007838929E+00  2.107342426E-07  0.00000E+00  9.000E+00
</event>
<event>
      5  10001  3.52971E+09  8.18493E+00 -1.00000E+00  2.06376E-01
      21    -1     0     0   514   512  0.000000000E+00  0.000000000E+00  6.664897459E+01  6.664897459E+01  0.000000000E+00  0.00000E+00  9.000E+00
      21    -1     0     0   516   515  0.000000000E+00  0.000000000E+00 -1.804075465E+01  1.804075465E+01  0.000000000E+00  0.00000E+00  9.000E+00
      21     1     1     2   514   515 -1.591503823E+01 -4.733346752E-01  5.770396810E+01  5.986034098E+01  6.743495762E-07  0.00000E+00  9.000E+00
      21     1     1     2   516   513  8.867739398E+00  1.091598729E+00 -1.372360470E+01  1.637576611E+01  5.591411304E-07  0.00000E+00  9.000E+00
      21     1     1     2   513   512  7.047298833E+00 -6.182640543E-01  4.627856542E+00  8.453622151E+00  0.000000000E+00  0.00000E+00  9.000E+00
</event>
<event>
      5  10001  3.52971E+09  1.49385E+01 -1.00000E+00  1.77548E-01
       1    -1     0     0   511     0  0.000000000E+00  0.000000000E+00  1.154622287E+02  1.154622287E+02  0.000000000E+00  0.00000E+00  9.000E+00
       1    -1     0     0   513     0  0.000000000E+00  0.000000000E+00 -7.313622718E+01  7.313622718E+01  0.000000000E+00  0.00000E+00  9.000E+00
      21     1     1     2   513   512 -1.063069634E+01 -1.024661187E+01 -3.419724297E+01  3.724857294E+01  8.259061849E-07  0.00000E+00  9.000E+00
       1     1     1     2   511     0 -3.635406646E+00  1.467755336E+01 -3.536754563E+01  3.846581519E+01  3.300000131E-01  0.00000E+00  9.000E+00
       1     1     1     2   512     0  1.426610299E+01 -4.430941489E+00  1.118907901E+02  1.128840677E+02  3.300000131E-01  0.00000E+00  9.000E+00
</event>
<event>
      5  10001  3.52971E+09  7.23818E+00 -1.00000E+00  2.13515E-01
      21    -1     0     0   511   513  0.000000000E+00  0.000000000E+00  8.963382676E+01  8.963382676E+01  0.000000000E+00  0.00000E+00  9.000E+00
      21    -1     0     0   515   514  0.000000000E+00  0.000000000E+00 -1.251222133E+01  1.251222133E+01  0.000000000E+00  0.00000E+00  9.000E+00
      21     1     1     2   516   513 -9.400541997E+00  4.335756868E+00  2.546523472E+01  2.748903702E+01  5.840038640E-07  0.00000E+00  9.000E+00
      21     1     1     2   515   516  1.565709668E+01 -6.961476114E-01 -5.826240932E+00  1.672047790E+01  4.129530925E-07  0.00000E+00  9.000E+00
      21     1     1     2   511   514 -6.256554682E+00 -3.639609257E+00  5.748261165E+01  5.793653315E+01  6.743495762E-07  0.00000E+00  9.000E+00
</event>
<event>
      5  10001  3.52971E+09  1.54107E+01 -1.00000E+00  1.76282E-01
      21    -1     0     0   512   514  0.000000000E+00  0.000000000E+00  6.434731893E+00  6.434731893E+00  0.000000000E+00  0.00000E+00  9.000E+00
      21    -1     0     0   513   517  0.000000000E+00  0.000000000E+00 -3.556557192E+01  3.556557192E+01  0.000000000E+00  0.00000E+00  9.000E+00
      21     1     1     2   512   517 -8.129689286E+00  6.743268885E+00 -4.371076873E-01  1.057140418E+01  1.785032235E-07  0.00000E+00  9.000E+00
      21     1     1     2   515   514 -1.058321389E+00 -2.357086853E+00 -4.677005885E+00  5.343246825E+00  8.429369702E-08  0.00000E+00  9.000E+00
      21     1     1     2   513   515  9.188010675E+00 -4.386182032E+00 -2.401672645E+01  2.608565281E+01  3.371747881E-07  0.00000E+00  9.000E+00
</event>
<event>
      5  10001  3.52971E+09  6.95806E+00 -1.00000E+00  2.15918E-01
       2    -1     0     0   512     0  0.000000000E+00  0.000000000E+00  6.310274306E+02  6.310274306E+02  0.000000000E+00  0.00000E+00  9.000E+00
      21    -1     0     0   511   515  0.000000000E+00  0.000000000E+00 -8.489319088E+02  8.489319088E+02  0.000000000E+00  0.00000E+00  9.000E+00
      21     1     1     2   513   515  7.846811694E+00 -2.435908646E+00 -8.472127354E+02  8.472525746E+02  1.868812365E-05  0.00000E+00  9.000E+00
       2     1     1     2   511     0 -1.217961193E+01  7.880298873E+00  6.234278005E+02  6.235966432E+02  3.300000131E-01  0.00000E+00  9.000E+00
      21     1     1     2   512   513  4.332800240E+00 -5.444390227E+00  5.880456799E+00  9.110121570E+00  1.192092896E-07  0.00000E+00  9.000E+00
</event>
<event>
      5  10001  3.52971E+09  2.00847E+01 -1.00000E+00  1.66214E-01
       2    -1     0     0   513     0  0.000000000E+00  0.000000000E+00  1.114724206E+03  1.114724206E+03  0.000000000E+00  0.00000E+00  9.000E+00
      21    -1     0     0   511   513  0.000000000E+00  0.000000000E+00 -3.589627050E+01  3.589627050E+01  0.000000000E+00  0.00000E+00  9.000E+00
      21     1     1     2   514   512  6.353413623E+00 -3.487335580E+01  2.229902307E+01  4.187795648E+01  2.092114541E-06  0.00000E+00  9.000E+00
       2     1     1     2   512     0 -2.462317966E+01  2.653003263E+01  1.078423666E+03  1.079030980E+03  3.300000131E-01  0.00000E+00  9.000E+00
      21     1     1     2   511   514  1.826976604E+01  8.343323164E+00 -2.189475338E+01  2.971154015E+01  2.185142372E-06  0.00000E+00  9.000E+00
</event>
<event>
      5  10001  3.52971E+09  5.32933E+00 -1.00000E+00  2.33769E-01
      21    -1     0     0   515   512  0.000000000E+00  0.000000000E+00  7.455518056E+00  7.455518056E+00  0.000000000E+00  0.00000E+00  9.000E+00
      21    -1     0     0   513   514  0.000000000E+00  0.000000000E+00 -4.713065936E+01  4.713065936E+01  0.000000000E+00  0.00000E+00  9.000E+00
      21     1     1     2   515   514 -1.110222094E+00  9.211536607E+00 -3.370613895E+01  3.495981697E+01  0.000000000E+00  0.00000E+00  9.000E+00
      21     1     1     2   511   512  6.428531905E+00 -9.554104441E+00  1.440601022E-01  1.151640949E+01  1.902088137E-07  0.00000E+00  9.000E+00
      21     1     1     2   513   511 -5.318309811E+00  3.425678334E-01 -6.113062458E+00  8.109950961E+00  1.460009660E-07  0.00000E+00  9.000E+00
</event>
<event>
      5  10001  3.52971E+09  4.37484E+00 -1.00000E+00  2.54621E-01
      21    -1     0     0   516   511  0.000000000E+00  0.000000000E+00  1.458516761E+02  1.458516761E+02  0.000000000E+00  0.00000E+00  9.000E+00
      21    -1     0     0   513   517  0.000000000E+00  0.000000000E+00 -1.580978758E+00  1.580978758E+00  0.000000000E+00  0.00000E+00  9.000E+00
      21     1     1     2   516   517  9.935759352E+00  1.813782203E+00  1.720676858E+01  1.995199250E+01  4.129530925E-07  0.00000E+00  9.000E+00
      21     1     1     2   513   512 -1.536510497E+00  3.988790376E-01  2.314464243E+01  2.319901813E+01  3.371747881E-07  0.00000E+00  9.000E+00
      21     1     1     2   512   511 -8.399248855E+00 -2.212661241E+00  1.039192864E+02  1.042816443E+02  1.907348633E-06  0.00000E+00  9.000E+00
</event>
<event>
      5  10001  3.52971E+09  8.00929E+00 -1.00000E+00  2.07599E-01
      21    -1     0     0   514   512  0.000000000E+00  0.000000000E+00  1.756303862E+02  1.756303862E+02  0.000000000E+00  0.00000E+00  9.000E+00
      21    -1     0     0   515   514  0.000000000E+00  0.000000000E+00 -5.438332534E+00  5.438332534E+00  0.000000000E+00  0.00000E+00  9.000E+00
      21     1     1     2   513   512 -5.736388723E+00 -1.063398755E+01  1.080437788E+02  1.087172755E+02  2.336015456E-06  0.00000E+00  9.000E+00
      21     1     1     2   511   513  1.165315676E+01  5.235781793E+00  6.301355261E+01  6.429554639E+01  0.000000000E+00  0.00000E+00  9.000E+00
      21     1     1     2   515   511 -5.916768041E+00  5.398205754E+00 -8.652777171E-01  8.055896904E+00  2.803636748E-07  0.00000E+00  9.000E+00
</event>
<event>
      5  10001  3.52971E+09  3.23537E+00 -1.00000E+00  2.87247E-01
      21    -1     0     0   516   513  0.000000000E+00  0.000000000E+00  4.487714288E+01  4.487714288E+01  0.000000000E+00  0.00000E+00  9.000E+00
      21    -1     0     0   512   517  0.000000000E+00  0.000000000E+00 -2.143060897E+02  2.143060897E+02  0.000000000E+00  0.00000E+00  9.000E+00
      21     1     1     2   516   517 -8.437537190E+00  7.157102726E-01 -4.946887400E+00  9.806934790E+00  6.690604782E-07  0.00000E+00  9.000E+00
      21     1     1     2   512   511  1.164953025E+01 -1.103949219E+00 -2.067018055E+02  2.070327671E+02  2.697398305E-06  0.00000E+00  9.000E+00
      21     1     1     2   511   513 -3.211993059E+00  3.882389463E-01  4.221974610E+01  4.234353067E+01  0.000000000E+00  0.00000E+00  9.000E+00
</event>
<event>
      5  10001  3.52971E+09  5.16423E+00 -1.00000E+00  2.36083E-01
      21    -1     0     0   514   511  0.000000000E+00  0.000000000E+00  1.204758991E+01  1.204758991E+01  0.000000000E+00  0.00000E+00  9.000E+00
      21    -1     0     0   513   514  0.000000000E+00  0.000000000E+00 -4.838220581E+01  4.838220581E+01  0.000000000E+00  0.00000E+00  9.000E+00
      21     1     1     2   512   511  9.119348554E+00 -1.151919109E+01  5.670194315E+00  1.574818672E+01  2.795705652E-07  0.00000E+00  9.000E+00
      21     1     1     2   513   515 -2.517818500E+00  3.057338713E+00 -1.727769606E+01  1.772584303E+01  2.384185791E-07  0.00000E+00  9.000E+00
      21     1     1     2   515   512 -6.601530054E+00  8.461852373E+00 -2.472711416E+01  2.695576597E+01  3.371747881E-07  0.00000E+00  9.000E+00
</event>
<event>
      5  10001  3.52971E+09  4.51748E+00 -1.00000E+00  2.51604E-01
      21    -1     0     0   515   511  0.000000000E+00  0.000000000E+00  7.985800514E+01  7.985800514E+01  0.000000000E+00  0.00000E+00  9.000E+00
      21    -1     0     0   512   515  0.000000000E+00  0.000000000E+00 -1.355996774E+01  1.355996774E+01  0.000000000E+00  0.00000E+00  9.000E+00
      -1     1     1     2     0   513 -1.904340571E+01  1.392981987E+00  5.930197852E+01  6.230108551E+01  3.300000131E-01  0.00000E+00  9.000E+00
       1     1     1     2   512     0  1.657801874E+01  2.392154593E+00 -5.656495717E+00  1.768213654E+01  3.300000131E-01  0.00000E+00  9.000E+00
      21     1     1     2   513   511  2.465386977E+00 -3.785136580E+00  1.265255459E+01  1.343475082E+01  1.685873940E-07  0.00000E+00  9.000E+00
</event>
<event>
      5  10001  3.52971E+09  1.81238E+01 -1.00000E+00  1.69975E-01
      -4    -1     0     0     0   511  0.000000000E+00  0.000000000E+00  1.095045986E+02  1.095045986E+02  0.000000000E+00  0.00000E+00  9.000E+00
      21    -1     0     0   511   514  0.000000000E+00  0.000000000E+00 -1.330846363E+01  1.330846363E+01  0.000000000E+00  0.00000E+00  9.000E+00
      21     1     1     2   512   515  7.490347363E+00 -5.649982135E+00  4.908162187E+01  4.997032326E+01  0.000000000E+00  0.00000E+00  9.000E+00
      21     1     1     2   515   514  1.798563218E+00  1.421057315E+01 -7.912803600E+00  1.636421950E+01  3.953724850E-07  0.00000E+00  9.000E+00
      -4     1     1     2     0   512 -9.288910581E+00 -8.560591017E+00  5.502731667E+01  5.647851944E+01  1.500000000E+00  0.00000E+00  9.000E+00
</event>
<event>
      5  10001  3.52971E+09  2.12005E+01 -1.00000E+00  1.64304E-01
      21    -1     0     0   513   515  0.000000000E+00  0.000000000E+00  1.072315048E+03  1.072315048E+03  0.000000000E+00  0.00000E+00  9.000E+00
      21    -1     0     0   511   512  0.000000000E+00  0.000000000E+00 -5.829464268E-01  5.829464268E-01  0.000000000E+00  0.00000E+00  9.000E+00
      21     1     1     2   513   512  1.014449527E+01 -9.007520632E+00  8.928217248E+01  9.030699051E+01  3.015782986E-06  0.00000E+00  9.000E+00
      21     1     1     2   511   514 -2.513191447E+00  3.636713130E+00  1.069214955E+02  1.070128404E+02  0.000000000E+00  0.00000E+00  9.000E+00
      21     1     1     2   514   515 -7.631303826E+00  5.370807502E+00  8.755284341E+02  8.755781640E+02  1.078959322E-05  0.00000E+00  9.000E+00
</event>
<event>
      5  10001  3.52971E+09  8.49404E+00 -1.00000E+00  2.04320E-01
      21    -1     0     0   516   514  0.000000000E+00  0.000000000E+00  1.093311483E+02  1.093311483E+02  0.000000000E+00  0.00000E+00  9.000E+00
      21    -1     0     0   512   516  0.000000000E+00  0.000000000E+00 -3.934805409E+01  3.934805409E+01  0.000000000E+00  0.00000E+00  9.000E+00
      21     1     1     2   511   514 -1.597580253E+00  1.047908345E+01  1.042069411E+02  1.047446897E+02  1.348699152E-06  0.00000E+00  9.000E+00
      21     1     1     2   515   511  1.009116264E+01 -1.039129127E+01 -3.204324285E+01  3.516503818E+01  9.536743164E-07  0.00000E+00  9.000E+00
      21     1     1     2   512   515 -8.493582385E+00 -8.779218290E-02 -2.180604025E+00  8.769474506E+00  1.192092896E-07  0.00000E+00  9.000E+00
</event>
<event>
      5  10001  3.52971E+09  3.61803E+00 -1.00000E+00  2.74173E-01
      21    -1     0     0   513   511  0.000000000E+00  0.000000000E+00  3.311814734E+00  3.311814734E+00  0.000000000E+00  0.00000E+00  9.000E+00
      21    -1     0     0   512   513  0.000000000E+00  0.000000000E+00 -1.768096533E+02  1.768096533E+02  0.000000000E+00  0.00000E+00  9.000E+00
      21     1     1     2   512   517  1.038775537E+01  6.216523085E+00 -1.606168438E+02  1.610724096E+02  2.697398305E-06  0.00000E+00  9.000E+00
      21     1     1     2   517   514 -1.006936052E+01 -2.612528621E+00 -9.909819955E+00  1.436738872E+01  5.196212463E-07  0.00000E+00  9.000E+00
      21     1     1     2   514   511 -3.183948471E-01 -3.603994464E+00 -2.971174744E+00  4.681669652E+00  1.685873940E-07  0.00000E+00  9.000E+00
</event>
<event>
      5  10001  3.52971E+09  8.46905E+00 -1.00000E+00  2.04482E-01
      21    -1     0     0   515   516  0.000000000E+00  0.000000000E+00  1.732852056E+00  1.732852056E+00  0.000000000E+00  0.00000E+00  9.000E+00
      21    -1     0     0   511   515  0.000000000E+00  0.000000000E+00 -9.664284767E+01  9.664284767E+01  0.000000000E+00  0.00000E+00  9.000E+00
      21     1     1     2   511   512  7.892346806E+00 -5.229025495E+00 -6.371463693E+01  6.441418170E+01  1.507891493E-06  0.00000E+00  9.000E+00
      21     1     1     2   513   516 -1.418552638E+00  4.968931689E+00 -5.869661109E+00  7.820197904E+00  0.000000000E+00  0.00000E+00  9.000E+00
      21     1     1     2   512   513 -6.473794168E+00  2.600938059E-01 -2.532569758E+01  2.614132012E+01  3.371747881E-07  0.00000E+00  9.000E+00
</event>
<event>
      5  10001  3.52971E+09  2.34564E+00 -1.00000E+00  3.33563E-01
      21    -1     0     0   515   513  0.000000000E+00  0.000000000E+00  1.991059685E+01  1.991059685E+01  0.000000000E+00  0.00000E+00  9.000E+00
      -2    -1     0     0     0   514  0.000000000E+00  0.000000000E+00 -1.833950539E+01  1.833950539E+01  0.000000000E+00  0.00000E+00  9.000E+00
      -2     1     1     2     0   513 -3.700377417E+00 -1.207625895E+01 -5.861232344E+00  1.392809276E+01  3.300000131E-01  0.00000E+00  9.000E+00
      21     1     1     2   511   514  6.025738754E+00  1.238223999E+01 -2.604547364E+00  1.401474444E+01  3.839760639E-07  0.00000E+00  9.000E+00
      21     1     1     2   515   511 -2.325361337E+00 -3.059810350E-01  1.003687117E+01  1.030726504E+01  2.064765462E-07  0.00000E+00  9.000E+00
</event>
<event>
      5  10001  3.52971E+09  1.19987E+01 -1.00000E+00  1.87029E-01
      21    -1     0     0   511   514  0.000000000E+00  0.000000000E+00  3.347287614E+01  3.347287614E+01  0.000000000E+00  0.00000E+00  9.000E+00
       4    -1     0     0   513     0  0.000000000E+00  0.000000000E+00 -1.097169501E+02  1.097169501E+02  0.000000000E+00  0.00000E+00  9.000E+00
      21     1     1     2   511   512  6.051114232E+00 -2.476564769E+01 -9.222924733E+00  2.711117168E+01  3.769728732E-07  0.00000E+00  9.000E+00
       4     1     1     2   512     0  4.995607362E+00  2.008716078E+01 -8.881157820E+01  9.120414763E+01  1.500000000E+00  0.00000E+00  9.000E+00
      21     1     1     2   513   514 -1.104672159E+01  4.678486916E+00  2.179042901E+01  2.487450691E+01  0.000000000E+00  0.00000E+00  9.000E+00
</event>
<event>
      5  10001  3.52971E+09  9.71279E+00 -1.00000E+00  1.97227E-01
       1    -1     0     0   511     0  0.000000000E+00  0.000000000E+00  2.774597957E+01  2.774597957E+01  0.000000000E+00  0.00000E+00  9.000E+00
      21    -1     0     0   512   511  0.000000000E+00  0.000000000E+00 -4.275495130E+01  4.275495130E+01  0.000000000E+00  0.00000E+00  9.000E+00
      21     1     1     2   512   516 -1.668964941E+00 -6.031717424E+00 -3.555241931E+01  3.609905231E+01  8.259061849E-07  0.00000E+00  9.000E+00
       1     1     1     2   515     0 -4.091473887E+00  1.119126334E+01  2.331614494E+01  2.618656237E+01  3.300000131E-01  0.00000E+00  9.000E+00
      21     1     1     2   516   515  5.760438828E+00 -5.159545912E+00 -2.772697372E+00  8.215316198E+00  1.228781231E-07  0.00000E+00  9.000E+00
</event>
<event>
      5  10001  3.52971E+09  5.01237E+00 -1.00000E+00  2.38322E-01
      21    -1     0     0   513   515  0.000000000E+00  0.000000000E+00  4.790322800E+01  4.790322800E+01  0.000000000E+00  0.00000E+00  9.000E+00
      -2    -1     0     0     0   514  0.000000000E+00  0.000000000E+00 -7.720438522E+01  7.720438522E+01  0.000000000E+00  0.00000E+00  9.000E+00
      21     1     1     2   513   514  1.334491997E+01  3.958569811E+00  4.423105108E+01  4.636963493E+01  4.768371582E-07  0.00000E+00  9.000E+00
      21     1     1     2   512   515 -8.645504056E+00 -5.701804783E+00 -8.191289719E+00  1.320426240E+01  0.000000000E+00  0.00000E+00  9.000E+00
      -2     1     1     2     0   512 -4.699415919E+00  1.743234972E+00 -6.534091858E+01  6.553371590E+01  3.300000131E-01  0.00000E+00  9.000E+00
</event>
<event>
      5  10001  3.52971E+09  1.16699E+01 -1.00000E+00  1.88307E-01
      21    -1     0     0   511   512  0.000000000E+00  0.000000000E+00  3.420544862E+02  3.420544862E+02  0.000000000E+00  0.00000E+00  9.000E+00
      21    -1     0     0   516   511  0.000000000E+00  0.000000000E+00 -9.380444688E-01  9.380444688E-01  0.000000000E+00  0.00000E+00  9.000E+00
      21     1     1     2   516   517  1.125160932E+00  9.661502871E+00  3.011166846E+01  3.164369135E+01  0.000000000E+00  0.00000E+00  9.000E+00
      21     1     1     2   517   513  4.597006692E+00 -6.085684332E+00  1.355822319E+02  1.357965745E+02  3.303624740E-06  0.00000E+00  9.000E+00
      21     1     1     2   513   512 -5.722167624E+00 -3.575818539E+00  1.754225414E+02  1.755522649E+02  0.000000000E+00  0.00000E+00  9.000E+00
</event>
<event>
      5  10001  3.52971E+09  1.08710E+01 -1.00000E+00  1.91652E-01
       2    -1     0     0   514     0  0.000000000E+00  0.000000000E+00  1.383679065E+03  1.383679065E+03  0.000000000E+00  0.00000E+00  9.000E+00
      21    -1     0     0   513   511  0.000000000E+00  0.000000000E+00 -7.431920714E+00  7.431920714E+00  0.000000000E+00  0.00000E+00  9.000E+00
      21     1     1     2   514   515 -4.763239587E+00  1.470815611E+01  3.022411298E+00  1.575288157E+01  2.021291847E-06  0.00000E+00  9.000E+00
       2     1     1     2   513     0  1.029475891E+01 -7.832710750E+00  1.355466080E+03  1.355527844E+03  3.300000131E-01  0.00000E+00  9.000E+00
      21     1     1     2   515   511 -5.531519321E+00 -6.875445363E+00  1.775865314E+01  1.983026011E+01  7.907449699E-07  0.00000E+00  9.000E+00
</event>
<event>
      5  10001  3.52971E+09  5.04178E+00 -1.00000E+00  2.37880E-01
      21    -1     0     0   512   511  0.000000000E+00  0.000000000E+00  8.255399989E+01  8.255399989E+01  0.000000000E+00  0.00000E+00  9.000E+00
      21    -1     0     0   513   516  0.000000000E+00  0.000000000E+00 -7.862891820E+01  7.862891820E+01  0.000000000E+00  0.00000E+00  9.000E+00
      21     1     1     2   512   516  8.924449297E+00  8.382847614E-01  8.119252706E+01  8.168583089E+01  1.651812370E-06  0.00000E+00  9.000E+00
      21     1     1     2   515   511 -1.204747964E+01  3.119770038E+00 -6.585514795E+01  6.702070756E+01  1.907348633E-06  0.00000E+00  9.000E+00
      21     1     1     2   513   515  3.123030342E+00 -3.958054800E+00 -1.141229742E+01  1.247637963E+01  0.000000000E+00  0.00000E+00  9.000E+00
</event>
<event>
      5  10001  3.52971E+09  2.63533E+00 -1.00000E+00  3.15051E-01
      21    -1     0     0   512   511  0.000000000E+00  0.000000000E+00  2.838014030E+01  2.838014030E+01  0.000000000E+00  0.00000E+00  9.000E+00
      21    -1     0     0   513   514  0.000000000E+00  0.000000000E+00 -5.565585046E+01  5.565585046E+01  0.000000000E+00  0.00000E+00  9.000E+00
      21     1     1     2   515   511  7.253268882E+00  9.018912625E+00 -9.297717970E+00  1.484581604E+01  1.685873940E-07  0.00000E+00  9.000E+00
      21     1     1     2   513   515 -6.311321305E+00 -6.557669645E+00 -4.303908959E+01  4.399089725E+01  4.768371582E-07  0.00000E+00  9.000E+00
      21     1     1     2   512   514 -9.419475775E-01 -2.461242979E+00  2.506109740E+01  2.519927748E+01  4.768371582E-07  0.00000E+00  9.000E+00
</event>
<event>
      5  10001  3.52971E+09  5.94526E+00 -1.00000E+00  2.26085E-01
       3    -1     0     0   511     0  0.000000000E+00  0.000000000E+00  1.404476830E+00  1.404476830E+00  0.000000000E+00  0.00000E+00  9.000E+00
      21    -1     0     0   516   514  0.000000000E+00  0.000000000E+00 -3.622179741E+02  3.622179741E+02  0.000000000E+00  0.00000E+00  9.000E+00
      21     1     1     2   516   512  9.885911065E+00  7.953752159E+00 -2.836336357E+02  2.839172991E+02  5.394796609E-06  0.00000E+00  9.000E+00
       3     1     1     2   512     0 -1.322204927E+01 -3.033994540E+00 -6.030369579E+01  6.181272875E+01  5.000000000E-01  0.00000E+00  9.000E+00
      21     1     1     2   511   514  3.336138208E+00 -4.919757619E+00 -1.687616575E+01  1.789242308E+01  6.307962682E-07  0.00000E+00  9.000E+00
</event>
<event>
      5  10001  3.52971E+09  1.01360E+01 -1.00000E+00  1.95077E-01
      21    -1     0     0   513   512  0.000000000E+00  0.000000000E+00  5.201316621E+01  5.201316621E+01  0.000000000E+00  0.00000E+00  9.000E+00
      21    -1     0     0   515   513  0.000000000E+00  0.000000000E+00 -3.433918549E+01  3.433918549E+01  0.000000000E+00  0.00000E+00  9.000E+00
      21     1     1     2   515   514 -1.471364975E+01  9.934296683E-01 -2.935563079E+01  3.285165826E+01  3.371747881E-07  0.00000E+00  9.000E+00
      21     1     1     2   516   512  6.271811165E+00  1.110136072E-01  4.402903177E+01  4.447362790E+01  9.536743164E-07  0.00000E+00  9.000E+00
      21     1     1     2   514   516  8.441838588E+00 -1.104443276E+00  3.000579726E+00  9.027065546E+00  1.788139343E-07  0.00000E+00  9.000E+00
</event>
<event>
      5  10001  3.52971E+09  1.27169E+01 -1.00000E+00  1.84413E-01
      21    -1     0     0   516   512  0.000000000E+00  0.000000000E+00  3.336964308E+01  3.336964308E+01  0.000000000E+00  0.00000E+00  9.000E+00
      21    -1     0     0   511   516  0.000000000E+00  0.000000000E+00 -1.148779117E+01  1.148779117E+01  0.000000000E+00  0.00000E+00  9.000E+00
      -2     1     1     2     0   513  1.172229462E+01  3.336040756E+00  1.722980903E+01  2.110726364E+01  3.300000131E-01  0.00000E+00  9.000E+00
       2     1     1     2   511     0 -5.971522442E+00 -6.438644646E+00 -6.427377063E+00  1.088739184E+01  3.300000131E-01  0.00000E+00  9.000E+00
      21     1     1     2   513   512 -5.750772181E+00  3.102603890E+00  1.107941994E+01  1.286277877E+01  2.920019320E-07  0.00000E+00  9.000E+00
</event>
<event>
      5  10001  3.52971E+09  9.04183E+00 -1.00000E+00  2.00949E-01
      21    -1     0     0   514   511  0.000000000E+00  0.000000000E+00  2.592072103E+01  2.592072103E+01  0.000000000E+00  0.00000E+00  9.000E+00
      21    -1     0     0   513   512  0.000000000E+00  0.000000000E+00 -5.336085905E+01  5.336085905E+01  0.000000000E+00  0.00000E+00  9.000E+00
      21     1     1     2   514   512 -9.597934231E+00 -2.481751165E+00  2.343827377E+01  2.544861701E+01  4.768371582E-07  0.00000E+00  9.000E+00
      21     1     1     2   515   511  4.806348517E+00  7.765927911E+00 -3.828905908E+01  3.936321465E+01  4.768371582E-07  0.00000E+00  9.000E+00
      21     1     1     2   513   515  4.791585714E+00 -5.284176746E+00 -1.258935271E+01  1.446974842E+01  2.920019320E-07  0.00000E+00  9.000E+00
</event>
<event>
      5  10001  3.52971E+09  7.76683E+00 -1.00000E+00  2.09359E-01
       1    -1     0     0   512     0  0.000000000E+00  0.000000000E+00  1.218040378E+03  1.218040378E+03  0.000000000E+00  0.00000E+00  9.000E+00
      21    -1     0     0   516   511  0.000000000E+00  0.000000000E+00 -2.104343870E+01  2.104343870E+01  0.000000000E+00  0.00000E+00  9.000E+00
      21     1     1     2   512   515 -8.703325930E+00 -4.362215568E+00  1.180312922E+03  1.180353071E+03  2.157918644E-05  0.00000E+00  9.000E+00
       1     1     1     2   516     0  1.646790170E+01  4.177827508E+00  3.496102892E+01  3.887194969E+01  3.300000131E-01  0.00000E+00  9.000E+00
      21     1     1     2   515   511 -7.764575772E+00  1.843880601E-01 -1.827701183E+01  1.985879647E+01  2.697398305E-06  0.00000E+00  9.000E+00
</event>
<event>
      5  10001  3.52971E+09  2.57141E+00 -1.00000E+00  3.18770E-01
      21    -1     0     0   513   515  0.000000000E+00  0.000000000E+00  4.785119996E+01  4.785119996E+01  0.000000000E+00  0.00000E+00  9.000E+00
      21    -1     0     0   514   513  0.000000000E+00  0.000000000E+00 -4.809787187E+00  4.809787187E+00  0.000000000E+00  0.00000E+00  9.000E+00
      21     1     1     2   514   511 -1.280733569E+01  5.102019184E+00  1.068263899E+01  1.744067725E+01  1.192092896E-07  0.00000E+00  9.000E+00
      21     1     1     2   511   512  3.795424048E+00 -2.139130042E+00  1.179315479E+01  1.257217646E+01  0.000000000E+00  0.00000E+00  9.000E+00
      21     1     1     2   512   515  9.011911643E+00 -2.962889143E+00  2.056561898E+01  2.264813343E+01  0.000000000E+00  0.00000E+00  9.000E+00
</event>
<event>
      5  10001  3.52971E+09  1.14775E+01 -1.00000E+00  1.89080E-01
       2    -1     0     0   513     0  0.000000000E+00  0.000000000E+00  9.047401571E+02  9.047401571E+02  0.000000000E+00  0.00000E+00  9.000E+00
      21    -1     0     0   511   513  0.000000000E+00  0.000000000E+00 -1.098004767E+01  1.098004767E+01  0.000000000E+00  0.00000E+00  9.000E+00
      21     1     1     2   511   514 -5.829050096E-01 -2.126541304E+00  1.733245604E-02  2.205052513E+00  6.644164188E-08  0.00000E+00  9.000E+00
       2     1     1     2   512     0  5.808643035E-01  1.101192409E+01  9.015919061E+02  9.016594002E+02  3.300000131E-01  0.00000E+00  9.000E+00
      21     1     1     2   514   512  2.040706034E-03 -8.885382789E+00 -7.849129076E+00  1.185575214E+01  1.758084441E-06  0.00000E+00  9.000E+00
</event>
<event>
      5  10001  3.52971E+09  4.11363E+00 -1.00000E+00  2.60628E-01
      21    -1     0     0   513   511  0.000000000E+00  0.000000000E+00  7.899121699E+01  7.899121699E+01  0.000000000E+00  0.00000E+00  9.000E+00
      21    -1     0     0   516   515  0.000000000E+00  0.000000000E+00 -6.605286058E+01  6.605286058E+01  0.000000000E+00  0.00000E+00  9.000E+00
      21     1     1     2   512   511  9.707324391E+00 -2.832958547E+00  7.878058532E+00  1.281879898E+01  3.039252468E-07  0.00000E+00  9.000E+00
      21     1     1     2   516   512 -1.369593165E+01  1.826494710E+00 -6.276878413E+01  6.427157138E+01  1.168007728E-06  0.00000E+00  9.000E+00
      21     1     1     2   513   515  3.988607258E+00  1.006463837E+00  6.782908201E+01  6.795370721E+01  0.000000000E+00  0.00000E+00  9.000E+00
</event>
<event>
      5  10001  3.52971E+09  1.46867E+01 -1.00000E+00  1.78248E-01
      21    -1     0     0   514   515  0.000000000E+00  0.000000000E+00  3.557832298E+01  3.557832298E+01  0.000000000E+00  0.00000E+00  9.000E+00
      21    -1     0     0   511   512  0.000000000E+00  0.000000000E+00 -1.698605940E+02  1.698605940E+02  0.000000000E+00  0.00000E+00  9.000E+00
      21     1     1     2   514   517 -1.180175745E+01 -1.894367627E+01  9.788547898E+00  2.437129500E+01  2.384185791E-07  0.00000E+00  9.000E+00
      21     1     1     2   511   515  1.097661056E+01  4.280147040E+00  1.625217101E+01  2.007333308E+01  5.331201500E-07  0.00000E+00  9.000E+00
      21     1     1     2   517   512  8.251468923E-01  1.466352923E+01 -1.603229899E+02  1.609942889E+02  2.697398305E-06  0.00000E+00  9.000E+00
</event>
<event>
      5  10001  3.52971E+09  1.65888E+01 -1.00000E+00  1.73357E-01
      -3    -1     0     0     0   513  0.000000000E+00  0.000000000E+00  6.294730225E+01  6.294730225E+01  0.000000000E+00  0.00000E+00  9.000E+00
      21    -1     0     0   513   512  0.000000000E+00  0.000000000E+00 -4.143582670E+01  4.143582670E+01  0.000000000E+00  0.00000E+00  9.000E+00
      21     1     1     2   511   514 -1.157886137E+01  2.493745217E+00  2.236705130E+01  2.530955906E+01  2.384185791E-07  0.00000E+00  9.000E+00
      21     1     1     2   514   512  1.369446454E+01 -5.976008830E-01 -3.873272735E+01  4.108673331E+01  4.768371582E-07  0.00000E+00  9.000E+00
      -3     1     1     2     0   511 -2.115603170E+00 -1.896144334E+00  3.787715160E+01  3.798683658E+01  5.000000000E-01  0.00000E+00  9.000E+00
</event>
<event>
      5  10001  3.52971E+09  2.08495E+00 -1.00000E+00  3.54831E-01
       2    -1     0     0   511     0  0.000000000E+00  0.000000000E+00  4.541415241E+01  4.541415241E+01  0.000000000E+00  0.00000E+00  9.000E+00
      -3    -1     0     0     0   511  0.000000000E+00  0.000000000E+00 -3.070454239E+00  3.070454239E+00  0.000000000E+00  0.00000E+00  9.000E+00
      21     1     1     2   513   512  5.835817163E-02 -1.237754064E+00  1.153904030E+00  1.693202678E+00  1.490116119E-08  0.00000E+00  9.000E+00
       2     1     1     2   512     0  1.437375255E+00  9.906558658E+00  3.392182260E+01  3.536954765E+01  3.300000131E-01  0.00000E+00  9.000E+00
      -3     1     1     2     0   513 -1.495733427E+00 -8.668804593E+00  7.267971534E+00  1.142185632E+01  5.000000000E-01  0.00000E+00  9.000E+00
</event>
<event>
      5  10001  3.52971E+09  4.85241E+00 -1.00000E+00  2.45143E-01
      21    -1     0     0   514   511  0.000000000E+00  0.000000000E+00  1.589902076E+02  1.589902076E+02  0.000000000E+00  0.00000E+00  9.000E+00
      21    -1     0     0   515   513  0.000000000E+00  0.000000000E+00 -3.883564578E+01  3.883564578E+01  0.000000000E+00  0.00000E+00  9.000E+00
      21     1     1     2   514   513 -4.335203510E+00  7.417601299E+00 -3.314592214E+01  3.424130478E+01  0.000000000E+00  0.00000E+00  9.000E+00
      21     1     1     2   515   512  7.343591870E+00 -1.122489488E+01  3.712588218E+00  1.391797104E+01  4.636153336E-07  0.00000E+00  9.000E+00
      21     1     1     2   512   511 -3.008388360E+00  3.807293578E+00  1.495878957E+02  1.496665775E+02  2.697398305E-06  0.00000E+00  9.000E+00
</event>
<event>
      5  10001  3.52971E+09  5.83467E+00 -1.00000E+00  2.27367E-01
      21    -1     0     0   516   513  0.000000000E+00  0.000000000E+00  3.299625495E+00  3.299625495E+00  0.000000000E+00  0.00000E+00  9.000E+00
      21    -1     0     0   514   511  0.000000000E+00  0.000000000E+00 -2.445744352E+02  2.445744352E+02  0.000000000E+00  0.00000E+00  9.000E+00
      21     1     1     2   516   511 -8.456928781E+00 -4.013854566E+00 -3.879323126E+01  3.990670952E+01  0.000000000E+00  0.00000E+00  9.000E+00
      21     1     1     2   517   513  6.532440790E+00  9.522003716E+00 -9.653335357E+00  1.505085449E+01  1.685873940E-07  0.00000E+00  9.000E+00
      21     1     1     2   514   517  1.924487991E+00 -5.508149150E+00 -1.928282431E+02  1.929164967E+02  0.000000000E+00  0.00000E+00  9.000E+00
</event>
<event>
      5  10001  3.52971E+09  2.49631E+01 -1.00000E+00  1.58796E-01
      21    -1     0     0   512   511  0.000000000E+00  0.000000000E+00  5.683395911E+02  5.683395911E+02  0.000000000E+00  0.00000E+00  9.000E+00
      21    -1     0     0   514   512  0.000000000E+00  0.000000000E+00 -3.174718378E+02  3.174718378E+02  0.000000000E+00  0.00000E+00  9.000E+00
      21     1     1     2   514   515  1.727542037E+01  2.651186434E+00 -3.108386531E+02  3.113296279E+02  8.529922400E-06  0.00000E+00  9.000E+00
      21     1     1     2   513   511 -2.210250012E+01  1.478425982E+01  5.542930219E+02  5.549304902E+02  1.078959322E-05  0.00000E+00  9.000E+00
      21     1     1     2   515   513  4.827079744E+00 -1.743544626E+01  7.413384495E+00  1.955131082E+01  4.042583694E-07  0.00000E+00  9.000E+00
</event>
<event>
      5  10001  3.52971E+09  4.56126E+00 -1.00000E+00  2.50712E-01
      21    -1     0     0   512   511  0.000000000E+00  0.000000000E+00  1.308801959E+01  1.308801959E+01  0.000000000E+00  0.00000E+00  9.000E+00
      -4    -1     0     0     0   516  0.000000000E+00  0.000000000E+00 -9.934105894E+01  9.934105894E+01  0.000000000E+00  0.00000E+00  9.000E+00
      -4     1     1     2     0   511 -6.814057803E+00  2.089973840E+01 -5.495061828E+01  5.920347033E+01  1.500000000E+00  0.00000E+00  9.000E+00
      21     1     1     2   514   516  1.104887212E+01 -2.258704332E+01 -3.773280418E+01  4.534331938E+01  9.536743164E-07  0.00000E+00  9.000E+00
      21     1     1     2   512   514 -4.234814315E+00  1.687304918E+00  6.430383112E+00  7.882288827E+00  0.000000000E+00  0.00000E+00  9.000E+00
</event>
<event>
      5  10001  3.52971E+09  1.26840E+01 -1.00000E+00  1.84528E-01
      -1    -1     0     0     0   513  0.000000000E+00  0.000000000E+00  7.051768481E+02  7.051768481E+02  0.000000000E+00  0.00000E+00  9.000E+00
      21    -1     0     0   512   514  0.000000000E+00  0.000000000E+00 -7.941010110E+01  7.941010110E+01  0.000000000E+00  0.00000E+00  9.000E+00
      -1     1     1     2     0   514 -2.132132330E+01  7.385241764E+00  7.005675374E+02  7.009308982E+02  3.300000131E-01  0.00000E+00  9.000E+00
      21     1     1     2   512   511  1.020273024E+01 -1.335602708E+01 -6.640306944E+01  6.849705683E+01  3.932099939E-06  0.00000E+00  9.000E+00
      21     1     1     2   511   513  1.111859307E+01  5.970785320E+00 -8.397720948E+00  1.515899424E+01  8.596304120E-07  0.00000E+00  9.000E+00
</event>
<event>
      5  10001  3.52971E+09  3.09678E+00 -1.00000E+00  2.92735E-01
      -3    -1     0     0     0   513  0.000000000E+00  0.000000000E+00  3.135010287E+01  3.135010287E+01  0.000000000E+00  0.00000E+00  9.000E+00
      21    -1     0     0   513   515  0.000000000E+00  0.000000000E+00 -8.890392517E+01  8.890392517E+01  0.000000000E+00  0.00000E+00  9.000E+00
      -3     1     1     2     0   511  1.207528758E+01  7.268492819E+00  2.881029177E+01  3.207688373E+01  5.000000000E-01  0.00000E+00  9.000E+00
      -5     1     1     2     0   515 -9.754190366E+00 -4.583027552E+00 -5.527291780E+01  5.651799550E+01  4.800000191E+00  0.00000E+00  9.000E+00
       5     1     1     2   511     0 -2.321097213E+00 -2.685465267E+00 -3.109119628E+01  3.165914881E+01  4.800000191E+00  0.00000E+00  9.000E+00
</event>
<event>
      5  10001  3.52971E+09  6.36921E+00 -1.00000E+00  2.21512E-01
      21    -1     0     0   512   513  0.000000000E+00  0.000000000E+00  3.197234935E+00  3.197234935E+00  0.000000000E+00  0.00000E+00  9.000E+00
      21    -1     0     0   511   514  0.000000000E+00  0.000000000E+00 -5.802725131E+01  5.802725131E+01  0.000000000E+00  0.00000E+00  9.000E+00
      21     1     1     2   512   514 -9.895354948E+00 -5.737642249E+00 -4.023258846E+01  4.182702192E+01  6.743495762E-07  0.00000E+00  9.000E+00
      21     1     1     2   515   513  5.083452655E+00 -1.813310298E-02 -4.307726167E+00  6.663206768E+00  1.976862425E-07  0.00000E+00  9.000E+00
      21     1     1     2   511   515  4.811902293E+00  5.755775352E+00 -1.028970174E+01  1.273425756E+01  1.685873940E-07  0.00000E+00  9.000E+00
</event>
<event>
      5  10001  3.52971E+09  9.42900E+00 -1.00000E+00  1.98751E-01
      21    -1     0     0   516   513  0.000000000E+00  0.000000000E+00  2.128719398E+01  2.128719398E+01  0.000000000E+00  0.00000E+00  9.000E+00
      21    -1     0     0   511   516  0.000000000E+00  0.000000000E+00 -5.660301865E+00  5.660301865E+00  0.000000000E+00  0.00000E+00  9.000E+00
      21     1     1     2   515   513 -4.501726654E+00 -5.765614066E+00  4.351138284E+00  8.511183983E+00  8.429369702E-08  0.00000E+00  9.000E+00
       5     1     1     2   511     0  5.122038094E+00  1.348110000E+00  2.693792614E+00  7.638664497E+00  4.800000191E+00  0.00000E+00  9.000E+00
      -5     1     1     2     0   515 -6.203114405E-01  4.417504066E+00  8.581961216E+00  1.079764736E+01  4.800000191E+00  0.00000E+00  9.000E+00
</event>
<event>
      5  10001  3.52971E+09  9.97130E+00 -1.00000E+00  1.95897E-01
       1    -1     0     0   512     0  0.000000000E+00  0.000000000E+00  6.794464397E+02  6.794464397E+02  0.000000000E+00  0.00000E+00  9.000E+00
      21    -1     0     0   513   514  0.000000000E+00  0.000000000E+00 -1.260233095E+01  1.260233095E+01  0.000000000E+00  0.00000E+00  9.000E+00
      21     1     1     2   512   514  1.726043336E+01  5.911883533E+00 -1.612734316E+00  1.831594493E+01  2.920019320E-07  0.00000E+00  9.000E+00
      21     1     1     2   513   511 -7.922873733E+00 -9.409900274E+00  1.194922675E+01  1.714940731E+01  1.685873940E-07  0.00000E+00  9.000E+00
       1     1     1     2   511     0 -9.337559626E+00  3.498016740E+00  6.565076163E+02  6.565834184E+02  3.300000131E-01  0.00000E+00  9.000E+00
</event>
<event>
      5  10001  3.52971E+09  5.94578E+00 -1.00000E+00  2.26080E-01
       1    -1     0     0   513     0  0.000000000E+00  0.000000000E+00  1.796763007E+02  1.796763007E+02  0.000000000E+00  0.00000E+00  9.000E+00
      21    -1     0     0   515   512  0.000000000E+00  0.000000000E+00 -2.157168417E+02  2.157168417E+02  0.000000000E+00  0.00000E+00  9.000E+00
      21     1     1     2   515   511  8.149585463E+00  1.770976291E+00 -2.137722947E+02  2.139349109E+02  0.000000000E+00  0.00000E+00  9.000E+00
       1     1     1     2   511     0 -1.051483732E+01 -7.226050438E+00  1.739371900E+02  1.744047951E+02  3.300000131E-01  0.00000E+00  9.000E+00
      21     1     1     2   513   512  2.365251861E+00  5.455074147E+00  3.794563741E+00  7.053436347E+00  1.519626234E-07  0.00000E+00  9.000E+00
</event>
<event>
      5  10001  3.52971E+09  5.11788E+00 -1.00000E+00  2.36755E-01
      21    -1     0     0   514   511  0.000000000E+00  0.000000000E+00  1.136386138E+02  1.136386138E+02  0.000000000E+00  0.00000E+00  9.000E+00
      21    -1     0     0   515   517  0.000000000E+00  0.000000000E+00 -3.306120495E+02  3.306120495E+02  0.000000000E+00  0.00000E+00  9.000E+00
      21     1     1     2   514   516 -6.778662826E+00  1.496749900E+01  1.398583901E+01  2.157730264E+01  6.307962682E-07  0.00000E+00  9.000E+00
      21     1     1     2   515   511  1.724063003E+00 -1.416518915E+01  9.530579873E+01  9.636814955E+01  1.348699152E-06  0.00000E+00  9.000E+00
      21     1     1     2   516   517  5.054599823E+00 -8.023098492E-01 -3.262650734E+02  3.263052111E+02  3.814697266E-06  0.00000E+00  9.000E+00
</event>
<event>
      5  10001  3.52971E+09  4.49965E+00 -1.00000E+00  2.51972E-01
      21    -1     0     0   512   513  0.000000000E+00  0.000000000E+00  2.314659763E+01  2.314659763E+01  0.000000000E+00  0.00000E+00  9.000E+00
      -1    -1     0     0     0   512  0.000000000E+00  0.000000000E+00 -6.167229773E+01  6.167229773E+01  0.000000000E+00  0.00000E+00  9.000E+00
      21     1     1     2   514   511 -1.818491705E+00 -6.372641864E+00 -4.843249084E+01  4.888377691E+01  0.000000000E+00  0.00000E+00  9.000E+00
      21     1     1     2   511   513  3.715389413E+00  1.176699216E+01  2.048000711E+01  2.391018432E+01  8.596304120E-07  0.00000E+00  9.000E+00
      -1     1     1     2     0   514 -1.896897707E+00 -5.394350295E+00 -1.057321639E+01  1.202493413E+01  3.300000131E-01  0.00000E+00  9.000E+00
</event>
<event>
      5  10001  3.52971E+09  6.48110E+00 -1.00000E+00  2.20386E-01
      21    -1     0     0   515   511  0.000000000E+00  0.000000000E+00  6.786709862E+01  6.786709862E+01  0.000000000E+00  0.00000E+00  9.000E+00
      21    -1     0     0   516   514  0.000000000E+00  0.000000000E+00 -1.207581970E+01  1.207581970E+01  0.000000000E+00  0.00000E+00  9.000E+00
      21     1     1     2   515   514  7.448640619E+00 -1.074061130E+01 -7.498790357E+00  1.506900245E+01  1.884864366E-07  0.00000E+00  9.000E+00
      21     1     1     2   516   512 -1.268693290E+00  3.032590033E+00  2.909945772E+01  2.928454583E+01  4.768371582E-07  0.00000E+00  9.000E+00
      21     1     1     2   512   511 -6.179947329E+00  7.708021264E+00  3.419061156E+01  3.558937003E+01  4.768371582E-07  0.00000E+00  9.000E+00
</event>
<event>
      5  10001  3.52971E+09  7.70002E+00 -1.00000E+00  2.09859E-01
       1    -1     0     0   513     0  0.000000000E+00  0.000000000E+00  4.933753006E+02  4.933753006E+02  0.000000000E+00  0.00000E+00  9.000E+00
      21    -1     0     0   517   511  0.000000000E+00  0.000000000E+00 -8.469544688E+00  8.469544688E+00  0.000000000E+00  0.00000E+00  9.000E+00
      21     1     1     2   513   511 -2.337547512E-01 -1.537205088E+01  1.073507681E+01  1.875090568E+01  2.064765462E-07  0.00000E+00  9.000E+00
      21     1     1     2   517   514  3.339001997E+00  8.325997061E+00  1.106381042E-01  8.971254215E+00  1.915085474E-07  0.00000E+00  9.000E+00
       1     1     1     2   514     0 -3.105247246E+00  7.046053824E+00  4.740600410E+02  4.741226854E+02  3.300000131E-01  0.00000E+00  9.000E+00
</event>
<event>
      5  10001  3.52971E+09  3.59131E+00 -1.00000E+00  2.75001E-01
      21    -1     0     0   512   514  0.000000000E+00  0.000000000E+00  8.630231491E+01  8.630231491E+01  0.000000000E+00  0.00000E+00  9.000E+00
      21    -1     0     0   515   511  0.000000000E+00  0.000000000E+00 -4.813787166E+01  4.813787166E+01  0.000000000E+00  0.00000E+00  9.000E+00
      21     1     1     2   516   514  1.153313028E+01 -3.206539498E+00  8.351150984E+01  8.436508322E+01  1.651812370E-06  0.00000E+00  9.000E+00
      21     1     1     2   515   516 -8.147096538E+00  4.403332446E+00 -7.124798821E+00  1.168448873E+01  1.192092896E-07  0.00000E+00  9.000E+00
      21     1     1     2   512   511 -3.386033747E+00 -1.196792949E+00 -3.822226777E+01  3.839061463E+01  0.000000000E+00  0.00000E+00  9.000E+00
</event>
<event>
      5  10001  3.52971E+09  2.48720E+01 -1.00000E+00  1.58915E-01
      21    -1     0     0   513   511  0.000000000E+00  0.000000000E+00  5.219345565E+01  5.219345565E+01  0.000000000E+00  0.00000E+00  9.000E+00
      21    -1     0     0   514   517  0.000000000E+00  0.000000000E+00 -9.809432320E+00  9.809432320E+00  0.000000000E+00  0.00000E+00  9.000E+00
      21     1     1     2   513   517  5.481758492E+00  8.729886745E+00  3.454742489E+01  3.605253341E+01  4.768371582E-07  0.00000E+00  9.000E+00
      21     1     1     2   514   515 -1.106060066E+01 -6.184801660E+00  1.283685827E+01  1.803811489E+01  0.000000000E+00  0.00000E+00  9.000E+00
      21     1     1     2   515   511  5.578842168E+00 -2.545085085E+00 -5.000259838E+00  7.912239663E+00  3.998401125E-07  0.00000E+00  9.000E+00
</event>
<event>
      5  10001  3.52971E+09  2.37978E+01 -1.00000E+00  1.60368E-01
       3    -1     0     0   514     0  0.000000000E+00  0.000000000E+00  2.456533205E+01  2.456533205E+01  0.000000000E+00  0.00000E+00  9.000E+00
       1    -1     0     0   511     0  0.000000000E+00  0.000000000E+00 -1.538450299E+02  1.538450299E+02  0.000000000E+00  0.00000E+00  9.000E+00
      21     1     1     2   514   512 -2.519552200E+01 -1.332230193E+01 -6.357729100E+01  6.967330902E+01  0.000000000E+00  0.00000E+00  9.000E+00
       1     1     1     2   512     0  3.338887939E+00  2.273447948E+01 -7.844260962E+01  8.173956591E+01  3.300000131E-01  0.00000E+00  9.000E+00
       3     1     1     2   511     0  2.185663406E+01 -9.412177552E+00  1.274020278E+01  2.699748703E+01  5.000000000E-01  0.00000E+00  9.000E+00
</event>
<event>
      5  10001  3.52971E+09  1.10991E+01 -1.00000E+00  1.90659E-01
      21    -1     0     0   514   512  0.000000000E+00  0.000000000E+00  1.005630500E+02  1.005630500E+02  0.000000000E+00  0.00000E+00  9.000E+00
      21    -1     0     0   511   515  0.000000000E+00  0.000000000E+00 -1.155234964E+03  1.155234964E+03  0.000000000E+00  0.00000E+00  9.000E+00
      21     1     1     2   513   515  6.026031442E-01  1.286041396E+01 -5.176504324E+01  5.334203858E+01  1.348699152E-06  0.00000E+00  9.000E+00
      21     1     1     2   511   512  1.047349050E+01 -1.214608039E+01 -1.102314238E+03  1.102430905E+03  2.157918644E-05  0.00000E+00  9.000E+00
      21     1     1     2   514   513 -1.107609365E+01 -7.143335685E-01  9.940736701E+01  1.000250706E+02  5.394796609E-06  0.00000E+00  9.000E+00
</event>
<event>
      5  10001  3.52971E+09  5.72749E+00 -1.00000E+00  2.28647E-01
      21    -1     0     0   516   512  0.000000000E+00  0.000000000E+00  5.069903347E+01  5.069903347E+01  0.000000000E+00  0.00000E+00  9.000E+00
      21    -1     0     0   517   516  0.000000000E+00  0.000000000E+00 -6.247298314E+00  6.247298314E+00  0.000000000E+00  0.00000E+00  9.000E+00
      21     1     1     2   511   512 -6.765269038E+00  1.369838126E+01  3.227783317E+01  3.571096510E+01  0.000000000E+00  0.00000E+00  9.000E+00
      21     1     1     2   517   515  3.735068500E+00 -1.199642278E+01  1.252660626E+01  1.774206190E+01  2.920019320E-07  0.00000E+00  9.000E+00
      21     1     1     2   515   511  3.030200539E+00 -1.701958480E+00 -3.527042785E-01  3.493304779E+00  1.148211584E-07  0.00000E+00  9.000E+00
</event>
<event>
      5  10001  3.52971E+09  3.97541E+00 -1.00000E+00  2.64094E-01
      -2    -1     0     0     0   511  0.000000000E+00  0.000000000E+00  9.714193427E+00  9.714193427E+00  0.000000000E+00  0.00000E+00  9.000E+00
      21    -1     0     0   513   514  0.000000000E+00  0.000000000E+00 -3.669758699E+01  3.669758699E+01  0.000000000E+00  0.00000E+00  9.000E+00
      -2     1     1     2     0   514 -9.507348942E+00 -6.265155634E-01  5.502012938E+00  1.100741805E+01  3.300000131E-01  0.00000E+00  9.000E+00
      21     1     1     2   512   511  1.147921662E+01  1.754071995E+00 -2.905950635E+01  3.129383473E+01  3.371747881E-07  0.00000E+00  9.000E+00
      21     1     1     2   513   512 -1.971867676E+00 -1.127556431E+00 -3.425900149E+00  4.110527639E+00  0.000000000E+00  0.00000E+00  9.000E+00
</event>
<event>
      5  10001  3.52971E+09  1.19661E+01 -1.00000E+00  1.87153E-01
       1    -1     0     0   514     0  0.000000000E+00  0.000000000E+00  4.572524279E+02  4.572524279E+02  0.000000000E+00  0.00000E+00  9.000E+00
      21    -1     0     0   512   514  0.000000000E+00  0.000000000E+00 -5.390824799E+00  5.390824799E+00  0.000000000E+00  0.00000E+00  9.000E+00
      21     1     1     2   512   515  4.327366048E+00  1.413265791E+01  5.320883772E+00  1.570891214E+01  5.230286352E-07  0.00000E+00  9.000E+00
      21     1     1     2   515   511 -2.118449215E+00 -1.230644380E+01  2.070387036E+02  2.074149493E+02  2.697398305E-06  0.00000E+00  9.000E+00
       1     1     1     2   511     0 -2.208916833E+00 -1.826214109E+00  2.395020157E+02  2.395193913E+02  3.300000131E-01  0.00000E+00  9.000E+00
</event>
<event>
      5  10001  3.52971E+09  7.75009E+00 -1.00000E+00  2.09484E-01
      21    -1     0     0   511   513  0.000000000E+00  0.000000000E+00  1.970407913E+02  1.970407913E+02  0.000000000E+00  0.00000E+00  9.000E+00
       4    -1     0     0   515     0  0.000000000E+00  0.000000000E+00 -1.627719339E+01  1.627719339E+01  0.000000000E+00  0.00000E+00  9.000E+00
      21     1     1     2   512   513  8.837148043E+00 -3.287597408E+00  1.550296685E+02  1.553161344E+02  1.907348633E-06  0.00000E+00  9.000E+00
       4     1     1     2   511     0 -5.097276317E+00  8.599881511E+00 -1.426224629E+01  1.748147182E+01  1.500000000E+00  0.00000E+00  9.000E+00
      21     1     1     2   515   512 -3.739871726E+00 -5.312284102E+00  3.999617571E+01  4.052037851E+01  9.536743164E-07  0.00000E+00  9.000E+00
</event>
<event>
      5  10001  3.52971E+09  2.88911E+00 -1.00000E+00  3.01910E-01
       2    -1     0     0   512     0  0.000000000E+00  0.000000000E+00  7.720407044E+02  7.720407044E+02  0.000000000E+00  0.00000E+00  9.000E+00
      21    -1     0     0   511   513  0.000000000E+00  0.000000000E+00 -6.256034294E+00  6.256034294E+00  0.000000000E+00  0.00000E+00  9.000E+00
      21     1     1     2   511   514  6.997092442E+00  7.306155580E+00  1.870309071E+02  1.873042963E+02  3.814697266E-06  0.00000E+00  9.000E+00
       2     1     1     2   514     0 -6.171969642E+00 -1.007490994E+01  5.844689867E+02  5.845884898E+02  3.300000131E-01  0.00000E+00  9.000E+00
      21     1     1     2   512   513 -8.251228001E-01  2.768754360E+00 -5.715223655E+00  6.403952668E+00  5.654593098E-07  0.00000E+00  9.000E+00
</event>
<event>
      5  10001  3.52971E+09  9.55766E+00 -1.00000E+00  1.98052E-01
      21    -1     0     0   514   513  0.000000000E+00  0.000000000E+00  1.497788435E+01  1.497788435E+01  0.000000000E+00  0.00000E+00  9.000E+00
      21    -1     0     0   511   516  0.000000000E+00  0.000000000E+00 -5.052514132E+01  5.052514132E+01  0.000000000E+00  0.00000E+00  9.000E+00
      21     1     1     2   515   516  4.043074818E+00  9.635064826E+00 -8.863415878E+00  1.370186371E+01  2.384185791E-07  0.00000E+00  9.000E+00
      21     1     1     2   511   513 -1.060381081E+00 -1.871539263E+01 -3.462588220E+01  3.937438314E+01  0.000000000E+00  0.00000E+00  9.000E+00
      21     1     1     2   514   515 -2.982693736E+00  9.080327800E+00  7.942041103E+00  1.242677882E+01  1.884864366E-07  0.00000E+00  9.000E+00
</event>
<event>
      5  10001  3.52971E+09  4.95499E+00 -1.00000E+00  2.43318E-01
      21    -1     0     0   515   511  0.000000000E+00  0.000000000E+00  9.533922076E+01  9.533922076E+01  0.000000000E+00  0.00000E+00  9.000E+00
      -3    -1     0     0     0   512  0.000000000E+00  0.000000000E+00 -2.071778806E+00  2.071778806E+00  0.000000000E+00  0.00000E+00  9.000E+00
      21     1     1     2   513   511  2.823473911E+00 -8.376497920E+00  2.038833296E+01  2.222210259E+01  2.384185791E-07  0.00000E+00  9.000E+00
      21     1     1     2   515   512 -1.312549100E+00  1.072397165E+01  7.092878280E+01  7.174690643E+01  1.651812370E-06  0.00000E+00  9.000E+00
      -3     1     1     2     0   513 -1.510924811E+00 -2.347473726E+00  1.950326191E+00  3.441990548E+00  5.000000000E-01  0.00000E+00  9.000E+00
</event>
<event>
      5  10001  3.52971E+09  6.93618E+00 -1.00000E+00  2.16112E-01
       2    -1     0     0   515     0  0.000000000E+00  0.000000000E+00  1.224764190E+01  1.224764190E+01  0.000000000E+00  0.00000E+00  9.000E+00
      -2    -1     0     0     0   512  0.000000000E+00  0.000000000E+00 -3.352731324E+02  3.352731324E+02  0.000000000E+00  0.00000E+00  9.000E+00
      21     1     1     2   515   512  6.584144824E+00 -6.852570294E+00 -1.849291040E+01  2.079173917E+01  2.384185791E-07  0.00000E+00  9.000E+00
       2     1     1     2   514     0 -1.279884468E+01  3.772513398E+00  7.032449830E+00  1.508663426E+01  3.300000131E-01  0.00000E+00  9.000E+00
      -2     1     1     2     0   514  6.214699860E+00  3.080056896E+00 -3.115650300E+02  3.116424009E+02  3.300000131E-01  0.00000E+00  9.000E+00
</event>
<event>
      5  10001  3.52971E+09  6.52489E+00 -1.00000E+00  2.19954E-01
       2    -1     0     0   512     0  0.000000000E+00  0.000000000E+00  6.666709703E+02  6.666709703E+02  0.000000000E+00  0.00000E+00  9.000E+00
      21    -1     0     0   515   513  0.000000000E+00  0.000000000E+00 -5.492840224E-01  5.492840224E-01  0.000000000E+00  0.00000E+00  9.000E+00
      21     1     1     2   512   513 -2.292573680E+00  1.514213486E+01  2.122579221E+02  2.128096935E+02  4.672030912E-06  0.00000E+00  9.000E+00
       2     1     1     2   511     0  5.664361087E+00 -9.556737543E+00  3.998153286E+02  3.999697765E+02  3.300000131E-01  0.00000E+00  9.000E+00
      21     1     1     2   515   511 -3.371787408E+00 -5.585397321E+00  5.404843556E+01  5.444078434E+01  6.743495762E-07  0.00000E+00  9.000E+00
</event>
<event>
      5  10001  3.52971E+09  8.08871E+00 -1.00000E+00  2.07041E-01
      21    -1     0     0   514   511  0.000000000E+00  0.000000000E+00  5.623999397E-01  5.623999397E-01  0.000000000E+00  0.00000E+00  9.000E+00
       2    -1     0     0   515     0  0.000000000E+00  0.000000000E+00 -5.950772627E+02  5.950772627E+02  0.000000000E+00  0.00000E+00  9.000E+00
      21     1     1     2   515   511 -1.065357821E+00 -1.299611887E+01 -1.057795981E+02  1.065802865E+02  2.336015456E-06  0.00000E+00  9.000E+00
       2     1     1     2   512     0 -1.905218862E+00  7.779655720E+00 -4.158693449E+02  4.159465998E+02  3.300000131E-01  0.00000E+00  9.000E+00
      21     1     1     2   514   512  2.970576684E+00  5.216463149E+00 -7.286591970E+01  7.311277636E+01  1.348699152E-06  0.00000E+00  9.000E+00
</event>
<event>
      5  10001  3.52971E+09  2.55978E+01 -1.00000E+00  1.57983E-01
      21    -1     0     0   513   512  0.000000000E+00  0.000000000E+00  4.022020860E+01  4.022020860E+01  0.000000000E+00  0.00000E+00  9.000E+00
       2    -1     0     0   511     0  0.000000000E+00  0.000000000E+00 -5.965581777E+00  5.965581777E+00  0.000000000E+00  0.00000E+00  9.000E+00
      21     1     1     2   511   512  4.390806128E+00  2.034435890E+00  1.592937738E+01  1.664821827E+01  2.920019320E-07  0.00000E+00  9.000E+00
      21     1     1     2   513   515 -2.825992359E+00 -7.459050252E+00  2.158381378E+01  2.301053413E+01  0.000000000E+00  0.00000E+00  9.000E+00
       2     1     1     2   515     0 -1.564813769E+00  5.424614361E+00 -3.258564345E+00  6.527037973E+00  3.300000131E-01  0.00000E+00  9.000E+00
</event>
<event>
      5  10001  3.52971E+09  4.99468E+00 -1.00000E+00  2.42630E-01
      21    -1     0     0   514   512  0.000000000E+00  0.000000000E+00  1.103843951E+01  1.103843951E+01  0.000000000E+00  0.00000E+00  9.000E+00
      21    -1     0     0   511   516  0.000000000E+00  0.000000000E+00 -1.558499106E+02  1.558499106E+02  0.000000000E+00  0.00000E+00  9.000E+00
      21     1     1     2   514   516 -1.602087690E+01  9.661785668E+00  1.553649694E+00  1.877318370E+01  5.247240323E-07  0.00000E+00  9.000E+00
      21     1     1     2   511   513  1.303104256E+01 -5.314895329E+00 -1.330606248E+02  1.338027879E+02  1.907348633E-06  0.00000E+00  9.000E+00
      21     1     1     2   513   512  2.989834335E+00 -4.346890339E+00 -1.330449606E+01  1.431237857E+01  1.685873940E-07  0.00000E+00  9.000E+00
</event>
<event>
      5  10001  3.52971E+09  4.05392E+00 -1.00000E+00  2.62099E-01
      21    -1     0     0   514   511  0.000000000E+00  0.000000000E+00  1.765001133E+03  1.765001133E+03  0.000000000E+00  0.00000E+00  9.000E+00
      21    -1     0     0   517   512  0.000000000E+00  0.000000000E+00 -5.726312257E+01  5.726312257E+01  0.000000000E+00  0.00000E+00  9.000E+00
      21     1     1     2   515   512 -1.911747762E+01 -1.217561581E+00  5.260372758E+00  1.986534491E+01  5.264139692E-07  0.00000E+00  9.000E+00
      21     1     1     2   517   511  2.301505192E+01  2.332549243E+00 -4.728038743E+01  5.263618942E+01  6.743495762E-07  0.00000E+00  9.000E+00
      21     1     1     2   514   515 -3.897574300E+00 -1.114987662E+00  1.749758025E+03  1.749762721E+03  0.000000000E+00  0.00000E+00  9.000E+00
</event>
<event>
      5  10001  3.52971E+09  5.43575E+00 -1.00000E+00  2.32340E-01
      21    -1     0     0   512   511  0.000000000E+00  0.000000000E+00  3.156768370E+01  3.156768370E+01  0.000000000E+00  0.00000E+00  9.000E+00
      21    -1     0     0   516   513  0.000000000E+00  0.000000000E+00 -1.551478333E+02  1.551478333E+02  0.000000000E+00  0.00000E+00  9.000E+00
      21     1     1     2   517   511 -3.143503423E+00 -6.643834605E+00  1.091014736E+00  7.430509080E+00  5.891143501E-07  0.00000E+00  9.000E+00
      21     1     1     2   516   517  5.830922282E+00  1.136879006E+01 -1.514358583E+02  1.519739063E+02  1.907348633E-06  0.00000E+00  9.000E+00
      21     1     1     2   512   513 -2.687418859E+00 -4.724955453E+00  2.676469396E+01  2.731110154E+01  6.743495762E-07  0.00000E+00  9.000E+00
</event>
<event>
      5  10001  3.52971E+09  4.80111E+00 -1.00000E+00  2.46081E-01
      -5    -1     0     0     0   514  0.000000000E+00  0.000000000E+00  5.978310816E+00  5.978310816E+00  0.000000000E+00  0.00000E+00  9.000E+00
      21    -1     0     0   512   513  0.000000000E+00  0.000000000E+00 -8.668341135E+01  8.668341135E+01  0.000000000E+00  0.00000E+00  9.000E+00
      -5     1     1     2     0   513 -1.045273565E+01 -4.085398432E+00 -2.459302348E+00  1.245143898E+01  4.800000191E+00  0.00000E+00  9.000E+00
      21     1     1     2   511   514  1.274803167E+01  2.845164750E+00 -7.455478709E+01  7.569031346E+01  1.348699152E-06  0.00000E+00  9.000E+00
      21     1     1     2   512   511 -2.295296019E+00  1.240233682E+00 -3.691011103E+00  4.519969730E+00  0.000000000E+00  0.00000E+00  9.000E+00
</event>
<event>
      5  10001  3.52971E+09  5.16687E+00 -1.00000E+00  2.36045E-01
      21    -1     0     0   515   511  0.000000000E+00  0.000000000E+00  5.797378675E+02  5.797378675E+02  0.000000000E+00  0.00000E+00  9.000E+00
      21    -1     0     0   513   515  0.000000000E+00  0.000000000E+00 -1.545670387E+01  1.545670387E+01  0.000000000E+00  0.00000E+00  9.000E+00
      21     1     1     2   512   516  1.345071772E+01  1.710007353E+01 -4.182381183E+00  2.215460752E+01  7.725644944E-07  0.00000E+00  9.000E+00
      21     1     1     2   516   511 -8.861049700E+00 -1.947315640E+01  5.673515427E+02  5.677547842E+02  1.321449896E-05  0.00000E+00  9.000E+00
      21     1     1     2   513   512 -4.589668015E+00  2.373082862E+00  1.112002096E+00  5.285179602E+00  1.837138534E-07  0.00000E+00  9.000E+00
</event>
<event>
      5  10001  3.52971E+09  1.76243E+01 -1.00000E+00  1.71028E-01
      21    -1     0     0   514   516  0.000000000E+00  0.000000000E+00  9.179879782E+01  9.179879782E+01  0.000000000E+00  0.00000E+00  9.000E+00
      21    -1     0     0   511   514  0.000000000E+00  0.000000000E+00 -2.596009007E+01  2.596009007E+01  0.000000000E+00  0.00000E+00  9.000E+00
      21     1     1     2   513   512  1.658109916E+00  4.092957520E+01  4.012401292E+01  5.734035112E+01  4.768371582E-07  0.00000E+00  9.000E+00
      21     1     1     2   512   516  1.218850301E+00 -2.354168156E+01  3.365381220E+01  4.108862911E+01  9.536743164E-07  0.00000E+00  9.000E+00
      21     1     1     2   511   513 -2.876960217E+00 -1.738789364E+01 -7.939117378E+00  1.932990766E+01  3.039252468E-07  0.00000E+00  9.000E+00
</event>
<event>
      5  10001  3.52971E+09  5.88138E+00 -1.00000E+00  2.26821E-01
      21    -1     0     0   515   512  0.000000000E+00  0.000000000E+00  1.210473507E+01  1.210473507E+01  0.000000000E+00  0.00000E+00  9.000E+00
      21    -1     0     0   511   513  0.000000000E+00  0.000000000E+00 -1.087491985E+02  1.087491985E+02  0.000000000E+00  0.00000E+00  9.000E+00
      21     1     1     2   515   513  7.026239970E+00 -8.108940416E+00 -1.020312360E+02  1.025938404E+02  1.348699152E-06  0.00000E+00  9.000E+00
      21     1     1     2   514   512 -3.767544931E+00  3.718271275E+00  9.863017161E+00  1.119370553E+01  1.209842153E-06  0.00000E+00  9.000E+00
      21     1     1     2   511   514 -3.258695039E+00  4.390669141E+00 -4.476244570E+00  7.066387643E+00  1.332800375E-07  0.00000E+00  9.000E+00
</event>
<event>
      5  10001  3.52971E+09  7.24982E+00 -1.00000E+00  2.13418E-01
      21    -1     0     0   513   512  0.000000000E+00  0.000000000E+00  1.122115182E+02  1.122115182E+02  0.000000000E+00  0.00000E+00  9.000E+00
       4    -1     0     0   512     0  0.000000000E+00  0.000000000E+00 -8.003378208E+01  8.003378208E+01  0.000000000E+00  0.00000E+00  9.000E+00
      21     1     1     2   514   511  5.897718382E+00 -1.653046855E+01  2.279752318E+01  2.877093213E+01  9.536743164E-07  0.00000E+00  9.000E+00
       4     1     1     2   511     0 -7.382300684E+00  9.434764361E+00 -7.642031643E+01  7.736813236E+01  1.500000000E+00  0.00000E+00  9.000E+00
      21     1     1     2   513   514  1.484582302E+00  7.095704190E+00  8.580052941E+01  8.610623583E+01  0.000000000E+00  0.00000E+00  9.000E+00
</event>
<event>
      5  10001  3.52971E+09  8.60178E+00 -1.00000E+00  2.03631E-01
      21    -1     0     0   515   511  0.000000000E+00  0.000000000E+00  1.964052282E+02  1.964052282E+02  0.000000000E+00  0.00000E+00  9.000E+00
       2    -1     0     0   512     0  0.000000000E+00  0.000000000E+00 -5.238888136E+02  5.238888136E+02  0.000000000E+00  0.00000E+00  9.000E+00
      21     1     1     2   515   514 -2.334551667E+00  8.587120676E+00 -1.337772341E+01  1.606711725E+01  1.685873940E-07  0.00000E+00  9.000E+00
      21     1     1     2   512   511 -3.813425287E+00 -1.460318542E+01  1.947321186E+02  1.953161367E+02  2.697398305E-06  0.00000E+00  9.000E+00
       2     1     1     2   514     0  6.147976954E+00  6.016064741E+00 -5.088379806E+02  5.089107879E+02  3.300000131E-01  0.00000E+00  9.000E+00
</event>
<event>
      5  10001  3.52971E+09  1.38416E+01 -1.00000E+00  1.80732E-01
      21    -1     0     0   515   511  0.000000000E+00  0.000000000E+00  3.960790671E+01  3.960790671E+01  0.000000000E+00  0.00000E+00  9.000E+00
       2    -1     0     0   512     0  0.000000000E+00  0.000000000E+00 -3.023579393E+02  3.023579393E+02  0.000000000E+00  0.00000E+00  9.000E+00
      21     1     1     2   512   511 -7.104220723E+00  1.613003993E+01 -6.403855177E+00  1.875253320E+01  4.298152060E-07  0.00000E+00  9.000E+00
       2     1     1     2   513     0 -4.249479872E+00 -8.212830213E+00 -2.882697176E+02  2.884181819E+02  3.300000131E-01  0.00000E+00  9.000E+00
      21     1     1     2   515   513  1.135370059E+01 -7.917209716E+00  3.192354012E+01  3.479513099E+01  1.390207266E-06  0.00000E+00  9.000E+00
</event>
<event>
      5  10001  3.52971E+09  2.12408E+00 -1.00000E+00  3.51283E-01
      21    -1     0     0   511   512  0.000000000E+00  0.000000000E+00  3.762357190E+01  3.762357190E+01  0.000000000E+00  0.00000E+00  9.000E+00
      21    -1     0     0   516   514  0.000000000E+00  0.000000000E+00 -5.113015700E+01  5.113015700E+01  0.000000000E+00  0.00000E+00  9.000E+00
      21     1     1     2   513   512 -1.239725556E+01 -1.012815223E+00 -1.119414096E+01  1.673399330E+01  3.153981341E-07  0.00000E+00  9.000E+00
      21     1     1     2   516   513  1.088010314E+01  2.499403493E+00 -3.629389252E+01  3.797196724E+01  9.536743164E-07  0.00000E+00  9.000E+00
      21     1     1     2   511   514  1.517152423E+00 -1.486588270E+00  3.398144838E+01  3.404776836E+01  0.000000000E+00  0.00000E+00  9.000E+00
</event>
<event>
      5  10001  3.52971E+09  1.04936E+01 -1.00000E+00  1.93365E-01
      21    -1     0     0   515   514  0.000000000E+00  0.000000000E+00  6.399689710E+00  6.399689710E+00  0.000000000E+00  0.00000E+00  9.000E+00
      21    -1     0     0   512   517  0.000000000E+00  0.000000000E+00 -6.412831181E+01  6.412831181E+01  0.000000000E+00  0.00000E+00  9.000E+00
      21     1     1     2   515   517 -1.591155403E+01 -2.653163048E+00 -4.122652549E+01  4.427011667E+01  4.768371582E-07  0.00000E+00  9.000E+00
       4     1     1     2   512     0  8.455187901E+00 -2.956139884E+00 -2.597948728E+00  9.446073420E+00  1.500000000E+00  0.00000E+00  9.000E+00
      -4     1     1     2     0   514  7.456366130E+00  5.609302932E+00 -1.390414788E+01  1.681181143E+01  1.500000000E+00  0.00000E+00  9.000E+00
</event>
<event>
      5  10001  3.52971E+09  7.24632E+00 -1.00000E+00  2.13447E-01
      21    -1     0     0   511   512  0.000000000E+00  0.000000000E+00  3.387842776E+02  3.387842776E+02  0.000000000E+00  0.00000E+00  9.000E+00
      21    -1     0     0   514   513  0.000000000E+00  0.000000000E+00 -6.176664530E+00  6.176664530E+00  0.000000000E+00  0.00000E+00  9.000E+00
      21     1     1     2   511   513  1.065865663E+01 -6.541390614E+00  5.639235818E-01  1.251857668E+01  4.844596448E-07  0.00000E+00  9.000E+00
      21     1     1     2   515   512 -3.284515282E+00  2.044097312E+00  2.303632710E+02  2.303957530E+02  3.814697266E-06  0.00000E+00  9.000E+00
      21     1     1     2   514   515 -7.374141351E+00  4.497293302E+00  1.016804185E+02  1.020466124E+02  1.348699152E-06  0.00000E+00  9.000E+00
</event>
<event>
      5  10001  3.52971E+09  7.57274E+00 -1.00000E+00  2.10831E-01
      21    -1     0     0   514   512  0.000000000E+00  0.000000000E+00  8.748904108E+00  8.748904108E+00  0.000000000E+00  0.00000E+00  9.000E+00
      -3    -1     0     0     0   516  0.000000000E+00  0.000000000E+00 -4.845496243E+01  4.845496243E+01  0.000000000E+00  0.00000E+00  9.000E+00
      -3     1     1     2     0   511  7.719689807E+00  2.059412676E-01 -2.997696293E+01  3.095972107E+01  5.000000000E-01  0.00000E+00  9.000E+00
      21     1     1     2   514   516 -7.486455433E+00 -6.211913061E+00  4.558980752E+00  1.074333209E+01  1.576990671E-07  0.00000E+00  9.000E+00
      21     1     1     2   511   512 -2.332343739E-01  6.005971794E+00 -1.428807615E+01  1.550081338E+01  2.384185791E-07  0.00000E+00  9.000E+00
</event>
<event>
      5  10001  3.52971E+09  8.52778E+00 -1.00000E+00  2.04103E-01
       2    -1     0     0   511     0  0.000000000E+00  0.000000000E+00  7.037689664E+02  7.037689664E+02  0.000000000E+00  0.00000E+00  9.000E+00
      21    -1     0     0   515   514  0.000000000E+00  0.000000000E+00 -1.429024462E+01  1.429024462E+01  0.000000000E+00  0.00000E+00  9.000E+00
      21     1     1     2   511   514 -2.475691425E+01  7.561578237E+00  3.883857124E-01  2.588886077E+01  1.104748012E-06  0.00000E+00  9.000E+00
       2     1     1     2   513     0  1.686861084E+01 -4.321615707E+00  6.777881741E+02  6.780119057E+02  3.300000131E-01  0.00000E+00  9.000E+00
      21     1     1     2   515   513  7.888303407E+00 -3.239962530E+00  1.130216200E+01  1.415844461E+01  2.384185791E-07  0.00000E+00  9.000E+00
</event>
<event>
      5  10001  3.52971E+09  4.18919E+00 -1.00000E+00  2.58821E-01
      21    -1     0     0   512   513  0.000000000E+00  0.000000000E+00  1.383371860E+02  1.383371860E+02  0.000000000E+00  0.00000E+00  9.000E+00
       2    -1     0     0   511     0  0.000000000E+00  0.000000000E+00 -1.927604647E+01  1.927604647E+01  0.000000000E+00  0.00000E+00  9.000E+00
      21     1     1     2   515   513 -1.632113952E+01 -5.940201821E+00  1.304841789E+02  1.316350506E+02  1.907348633E-06  0.00000E+00  9.000E+00
       2     1     1     2   512     0  1.444961487E+01  2.192362330E+00 -1.464555167E+01  2.069296755E+01  3.300000131E-01  0.00000E+00  9.000E+00
      21     1     1     2   511   515  1.871524657E+00  3.747839491E+00  3.222512323E+00  5.285214382E+00  9.424321831E-08  0.00000E+00  9.000E+00
</event>
<event>
      5  10001  3.52971E+09  2.11280E+00 -1.00000E+00  3.52291E-01
      21    -1     0     0   512   515  0.000000000E+00  0.000000000E+00  4.120325499E+02  4.120325499E+02  0.000000000E+00  0.00000E+00  9.000E+00
      -1    -1     0     0     0   514  0.000000000E+00  0.000000000E+00 -5.046094145E-01  5.046094145E-01  0.000000000E+00  0.00000E+00  9.000E+00
      -1     1     1     2     0   515 -3.246922022E+00  1.169550585E+01  1.023867463E+02  1.031042292E+02  3.300000131E-01  0.00000E+00  9.000E+00
      21     1     1     2   511   514  1.207790503E+00 -1.114353751E+01  2.730469359E+02  2.732769042E+02  6.607249480E-06  0.00000E+00  9.000E+00
      21     1     1     2   512   511  2.039131519E+00 -5.519683349E-01  3.609425831E+01  3.615602591E+01  0.000000000E+00  0.00000E+00  9.000E+00
</event>
<event>
      5  10001  3.52971E+09  4.21679E+00 -1.00000E+00  2.58176E-01
      21    -1     0     0   514   511  0.000000000E+00  0.000000000E+00  1.141871290E+02  1.141871290E+02  0.000000000E+00  0.00000E+00  9.000E+00
      21    -1     0     0   515   516  0.000000000E+00  0.000000000E+00 -9.724900662E+01  9.724900662E+01  0.000000000E+00  0.00000E+00  9.000E+00
      21     1     1     2   513   516  6.302539510E+00  1.148749752E+01 -6.439213470E-01  1.311865993E+01  5.097525860E-07  0.00000E+00  9.000E+00
      21     1     1     2   515   511 -4.095943608E+00 -7.894139618E+00 -9.010754072E+01  9.054536481E+01  1.348699152E-06  0.00000E+00  9.000E+00
      21     1     1     2   514   513 -2.206595902E+00 -3.593357906E+00  1.076895844E+02  1.077721109E+02  1.348699152E-06  0.00000E+00  9.000E+00
</event>
<event>
      5  10001  3.52971E+09  7.42765E+00 -1.00000E+00  2.11971E-01
       1    -1     0     0   512     0  0.000000000E+00  0.000000000E+00  4.684550896E+00  4.684550896E+00  0.000000000E+00  0.00000E+00  9.000E+00
      -2    -1     0     0     0   512  0.000000000E+00  0.000000000E+00 -1.653274911E+02  1.653274911E+02  0.000000000E+00  0.00000E+00  9.000E+00
      -2     1     1     2     0   511  1.046036727E+01 -8.661800934E+00 -1.289954294E+02  1.297088115E+02  3.300000131E-01  0.00000E+00  9.000E+00
      21     1     1     2   511   513 -3.077743585E+00  9.472594962E+00 -3.131573063E+01  3.286149032E+01  1.011524364E-06  0.00000E+00  9.000E+00
       1     1     1     2   513     0 -7.382623688E+00 -8.107940274E-01 -3.317802383E-01  7.441740227E+00  3.300000131E-01  0.00000E+00  9.000E+00
</event>
<event>
      5  10001  3.52971E+09  6.22708E+00 -1.00000E+00  2.22989E-01
      21    -1     0     0   513   515  0.000000000E+00  0.000000000E+00  6.216159513E-01  6.216159513E-01  0.000000000E+00  0.00000E+00  9.000E+00
      -1    -1     0     0     0   514  0.000000000E+00  0.000000000E+00 -2.926212357E+02  2.926212357E+02  0.000000000E+00  0.00000E+00  9.000E+00
      -1     1     1     2     0   511  1.057423978E+01 -1.828207655E+00 -5.981546075E+01  6.077133481E+01  3.300000131E-01  0.00000E+00  9.000E+00
      21     1     1     2   513   514 -8.373718365E+00 -2.746696938E-01 -1.846801928E+02  1.848701388E+02  2.697398305E-06  0.00000E+00  9.000E+00
      21     1     1     2   511   515 -2.200521420E+00  2.102877349E+00 -4.750396614E+01  4.760137799E+01  6.743495762E-07  0.00000E+00  9.000E+00
</event>
<event>
      5  10001  3.52971E+09  2.63808E+00 -1.00000E+00  3.14895E-01
      21    -1     0     0   512   513  0.000000000E+00  0.000000000E+00  6.958517998E+01  6.958517998E+01  0.000000000E+00  0.00000E+00  9.000E+00
      21    -1     0     0   515   512  0.000000000E+00  0.000000000E+00 -3.465943206E+00  3.465943206E+00  0.000000000E+00  0.00000E+00  9.000E+00
      21     1     1     2   516   514 -1.465698416E+00  1.048232369E+01  2.333849119E+01  2.562640344E+01  0.000000000E+00  0.00000E+00  9.000E+00
      21     1     1     2   515   516  3.656475815E+00 -1.195201044E+01  1.502584837E+01  1.954473044E+01  3.769728732E-07  0.00000E+00  9.000E+00
      21     1     1     2   514   513 -2.190777399E+00  1.469686744E+00  2.775489721E+01  2.787998931E+01  3.371747881E-07  0.00000E+00  9.000E+00
</event>
<event>
      5  10001  3.52971E+09  3.41535E+00 -1.00000E+00  2.80754E-01
      21    -1     0     0   512   516  0.000000000E+00  0.000000000E+00  2.597496140E+00  2.597496140E+00  0.000000000E+00  0.00000E+00  9.000E+00
      21    -1     0     0   513   511  0.000000000E+00  0.000000000E+00 -2.640751201E+02  2.640751201E+02  0.000000000E+00  0.00000E+00  9.000E+00
      21     1     1     2   515   516  1.218649632E+01 -6.344635198E+00 -8.453932469E+01  8.564848222E+01  1.651812370E-06  0.00000E+00  9.000E+00
      21     1     1     2   513   515 -1.556782889E+01  6.825459937E+00 -1.767902643E+02  1.776055792E+02  2.697398305E-06  0.00000E+00  9.000E+00
      21     1     1     2   512   511  3.381332571E+00 -4.808247385E-01 -1.480348897E-01  3.418554770E+00  1.283198941E-07  0.00000E+00  9.000E+00
</event>
<event>
      5  10001  3.52971E+09  5.50972E+00 -1.00000E+00  2.31373E-01
      21    -1     0     0   514   513  0.000000000E+00  0.000000000E+00  2.003031615E+01  2.003031615E+01  0.000000000E+00  0.00000E+00  9.000E+00
      21    -1     0     0   517   514  0.000000000E+00  0.000000000E+00 -3.511652373E+01  3.511652373E+01  0.000000000E+00  0.00000E+00  9.000E+00
      21     1     1     2   517   511  9.680619308E+00 -2.190601658E+01  2.830137561E+00  2.411633536E+01  2.384185791E-07  0.00000E+00  9.000E+00
      21     1     1     2   511   515 -4.049363686E+00  1.754631518E+01 -1.099066906E+01  2.109657150E+01  4.768371582E-07  0.00000E+00  9.000E+00
      21     1     1     2   515   513 -5.631255622E+00  4.359701398E+00 -6.925676080E+00  9.933933024E+00  8.429369702E-08  0.00000E+00  9.000E+00
</event>
<event>
      5  10001  3.52971E+09  8.95552E+00 -1.00000E+00  2.01459E-01
      21    -1     0     0   512   511  0.000000000E+00  0.000000000E+00  8.473376646E+02  8.473376646E+02  0.000000000E+00  0.00000E+00  9.000E+00
      21    -1     0     0   516   514  0.000000000E+00  0.000000000E+00 -1.369546980E+00  1.369546980E+00  0.000000000E+00  0.00000E+00  9.000E+00
      21     1     1     2   512   513 -7.190026980E+00  1.264155440E+01  4.609295628E+02  4.611589393E+02  9.344061824E-06  0.00000E+00  9.000E+00
      21     1     1     2   516   511  1.390435761E+01 -6.715415929E+00  3.677847442E+02  3.681087421E+02  7.629394531E-06  0.00000E+00  9.000E+00
      21     1     1     2   513   514 -6.714330635E+00 -5.926138470E+00  1.725381057E+01  1.943953015E+01  1.430511475E-06  0.00000E+00  9.000E+00
</event>
<event>
      5  10001  3.52971E+09  5.39956E+00 -1.00000E+00  2.32821E-01
      21    -1     0     0   512   511  0.000000000E+00  0.000000000E+00  2.317275046E+01  2.317275046E+01  0.000000000E+00  0.00000E+00  9.000E+00
       2    -1     0     0   511     0  0.000000000E+00  0.000000000E+00 -2.444855819E+02  2.444855819E+02  0.000000000E+00  0.00000E+00  9.000E+00
      21     1     1     2   513   515  1.208913607E+01 -2.139755398E+00  2.043805322E+01  2.384197524E+01  1.215700987E-06  0.00000E+00  9.000E+00
       2     1     1     2   515     0 -7.283454415E+00  4.601533981E+00 -2.350620671E+02  2.352201248E+02  3.300000131E-01  0.00000E+00  9.000E+00
      21     1     1     2   512   513 -4.805681652E+00 -2.461778583E+00 -6.688817632E+00  8.596232386E+00  8.429369702E-08  0.00000E+00  9.000E+00
</event>
<event>
      5  10001  3.52971E+09  5.43910E+00 -1.00000E+00  2.32295E-01
       2    -1     0     0   514     0  0.000000000E+00  0.000000000E+00  7.144541572E+01  7.144541572E+01  0.000000000E+00  0.00000E+00  9.000E+00
      21    -1     0     0   511   513  0.000000000E+00  0.000000000E+00 -3.032526229E+02  3.032526229E+02  0.000000000E+00  0.00000E+00  9.000E+00
      21     1     1     2   514   513 -1.191698762E+01 -4.498402364E+00  9.145855624E+00  1.568109986E+01  4.129530925E-07  0.00000E+00  9.000E+00
      21     1     1     2   511   515  9.634798806E+00  9.435539466E+00 -2.997073086E+02  3.000105491E+02  3.814697266E-06  0.00000E+00  9.000E+00
       2     1     1     2   515     0  2.282188813E+00 -4.937137102E+00  5.875424584E+01  5.900638959E+01  3.300000131E-01  0.00000E+00  9.000E+00
</event>
<event>
      5  10001  3.52971E+09  8.17035E+00 -1.00000E+00  2.06476E-01
      21    -1     0     0   512   511  0.000000000E+00  0.000000000E+00  5.693949182E+01  5.693949182E+01  0.000000000E+00  0.00000E+00  9.000E+00
      21    -1     0     0   517   516  0.000000000E+00  0.000000000E+00 -2.647033613E+01  2.647033613E+01  0.000000000E+00  0.00000E+00  9.000E+00
      21     1     1     2   512   516 -8.636779987E+00  7.295295616E+00  5.373012804E+01  5.490666595E+01  0.000000000E+00  0.00000E+00  9.000E+00
      21     1     1     2   517   513  6.353532899E+00  3.173776994E-01 -1.768551742E+01  1.879483001E+01  4.129530925E-07  0.00000E+00  9.000E+00
      21     1     1     2   513   511  2.283247088E+00 -7.612673315E+00 -5.575454935E+00  9.708331989E+00  1.192092896E-07  0.00000E+00  9.000E+00
</event>
<event>
      5  10001  3.52971E+09  1.26535E+01 -1.00000E+00  1.84635E-01
      21    -1     0     0   514   513  0.000000000E+00  0.000000000E+00  4.983228808E+01  4.983228808E+01  0.000000000E+00  0.00000E+00  9.000E+00
      21    -1     0     0   512   514  0.000000000E+00  0.000000000E+00 -3.177487473E+01  3.177487473E+01  0.000000000E+00  0.00000E+00  9.000E+00
      21     1     1     2   515   513  1.675401089E+01  1.202210776E+01  9.740139959E+00  2.280566338E+01  6.307962682E-07  0.00000E+00  9.000E+00
      21     1     1     2   511   515 -9.654854779E+00 -2.249654819E+01  2.686663311E+01  3.634730906E+01  5.840038640E-07  0.00000E+00  9.000E+00
      21     1     1     2   512   511 -7.099156108E+00  1.047444043E+01 -1.854935971E+01  2.245419038E+01  3.371747881E-07  0.00000E+00  9.000E+00
</event>
<event>
      5  10001  3.52971E+09  1.84926E+01 -1.00000E+00  1.69223E-01
      21    -1     0     0   513   511  0.000000000E+00  0.000000000E+00  1.530103172E+02  1.530103172E+02  0.000000000E+00  0.00000E+00  9.000E+00
      21    -1     0     0   512   517  0.000000000E+00  0.000000000E+00 -1.932283067E+01  1.932283067E+01  0.000000000E+00  0.00000E+00  9.000E+00
      21     1     1     2   516   517 -2.772103819E+01 -2.404325548E+01  6.288326189E+01  7.280685901E+01  1.168007728E-06  0.00000E+00  9.000E+00
      21     1     1     2   512   511  1.567017202E+01  1.001633615E+01 -6.759769876E+00  1.978827354E+01  1.192092896E-07  0.00000E+00  9.000E+00
      21     1     1     2   513   516  1.205086617E+01  1.402691933E+01  7.756399448E+01  7.973801528E+01  1.348699152E-06  0.00000E+00  9.000E+00
</event>
<event>
      5  10001  3.52971E+09  1.21166E+01 -1.00000E+00  1.86583E-01
      21    -1     0     0   514   512  0.000000000E+00  0.000000000E+00  2.778672400E+01  2.778672400E+01  0.000000000E+00  0.00000E+00  9.000E+00
      21    -1     0     0   516   515  0.000000000E+00  0.000000000E+00 -2.883276104E+01  2.883276104E+01  0.000000000E+00  0.00000E+00  9.000E+00
      21     1     1     2   514   515  5.107975271E+00 -1.693983506E+01 -1.970443702E+01  2.648233867E+01  5.840038640E-07  0.00000E+00  9.000E+00
      21     1     1     2   516   511 -8.457925857E+00  6.626838846E+00  1.546864210E+01  1.883428765E+01  4.460403188E-07  0.00000E+00  9.000E+00
      21     1     1     2   511   512  3.349950586E+00  1.031299621E+01  3.189757879E+00  1.130285872E+01  0.000000000E+00  0.00000E+00  9.000E+00
</event>
<event>
      5  10001  3.52971E+09  4.07151E+00 -1.00000E+00  2.61662E-01
      -4    -1     0     0     0   512  0.000000000E+00  0.000000000E+00  6.144869218E+01  6.144869218E+01  0.000000000E+00  0.00000E+00  9.000E+00
      21    -1     0     0   511   513  0.000000000E+00  0.000000000E+00 -2.352977545E+01  2.352977545E+01  0.000000000E+00  0.00000E+00  9.000E+00
      -4     1     1     2     0   513  8.699126463E+00 -4.417564048E+00  5.837731135E+01  5.920599761E+01  1.500000000E+00  0.00000E+00  9.000E+00
      21     1     1     2   514   512 -5.031849868E+00  4.447050042E+00 -2.101609691E+01  2.206291224E+01  6.307962682E-07  0.00000E+00  9.000E+00
      21     1     1     2   511   514 -3.667276595E+00 -2.948599401E-02  5.577022959E-01  3.709557777E+00  7.598131170E-08  0.00000E+00  9.000E+00
</event>
<event>
      5  10001  3.52971E+09  7.10616E+00 -1.00000E+00  2.14628E-01
      21    -1     0     0   515   512  0.000000000E+00  0.000000000E+00  5.597099431E+01  5.597099431E+01  0.000000000E+00  0.00000E+00  9.000E+00
      21    -1     0     0   511   515  0.000000000E+00  0.000000000E+00 -2.174467047E+01  2.174467047E+01  0.000000000E+00  0.00000E+00  9.000E+00
      21     1     1     2   514   512 -9.509070842E+00 -6.746728103E+00  5.122247353E+01  5.253268090E+01  6.743495762E-07  0.00000E+00  9.000E+00
      21     1     1     2   513   514  9.237470063E+00  5.906905077E-01 -1.660238218E+01  1.900838927E+01  3.371747881E-07  0.00000E+00  9.000E+00
      21     1     1     2   511   513  2.716007789E-01  6.156037595E+00 -3.937675050E-01  6.174594619E+00  1.521451612E-07  0.00000E+00  9.000E+00
</event>
<event>
      5  10001  3.52971E+09  8.50463E+00 -1.00000E+00  2.04252E-01
      21    -1     0     0   511   513  0.000000000E+00  0.000000000E+00  7.926870924E+00  7.926870924E+00  0.000000000E+00  0.00000E+00  9.000E+00
       1    -1     0     0   512     0  0.000000000E+00  0.000000000E+00 -4.692435328E+01  4.692435328E+01  0.000000000E+00  0.00000E+00  9.000E+00
      21     1     1     2   514   513 -4.165012935E+00 -3.327682507E+00  3.826663099E-02  5.331253881E+00  8.987986642E-08  0.00000E+00  9.000E+00
       1     1     1     2   511     0  1.123706189E+01  2.143823287E-01 -4.016656672E+01  4.171066413E+01  3.300000131E-01  0.00000E+00  9.000E+00
      21     1     1     2   512   514 -7.072048957E+00  3.113300178E+00  1.130817736E+00  7.809306193E+00  2.269677253E-07  0.00000E+00  9.000E+00
</event>
<event>
      5  10001  3.52971E+09  7.48784E+00 -1.00000E+00  2.11494E-01
      21    -1     0     0   512   515  0.000000000E+00  0.000000000E+00  1.684381606E+01  1.684381606E+01  0.000000000E+00  0.00000E+00  9.000E+00
      -1    -1     0     0     0   514  0.000000000E+00  0.000000000E+00 -2.538476964E+02  2.538476964E+02  0.000000000E+00  0.00000E+00  9.000E+00
      -1     1     1     2     0   515 -1.486052041E+01 -3.861044280E+00 -2.491233139E+02  2.495962283E+02  3.300000131E-01  0.00000E+00  9.000E+00
      21     1     1     2   511   514  9.355288770E+00  5.626823571E+00  5.241333919E+00  1.211008475E+01  3.153981341E-07  0.00000E+00  9.000E+00
      21     1     1     2   512   511  5.505231643E+00 -1.765779291E+00  6.878099720E+00  8.985199370E+00  4.129530925E-07  0.00000E+00  9.000E+00
</event>
<event>
      5  10001  3.52971E+09  1.90346E+00 -1.00000E+00  3.73387E-01
      21    -1     0     0   513   511  0.000000000E+00  0.000000000E+00  3.293654015E+01  3.293654015E+01  0.000000000E+00  0.00000E+00  9.000E+00
      21    -1     0     0   515   516  0.000000000E+00  0.000000000E+00 -1.229813105E+01  1.229813105E+01  0.000000000E+00  0.00000E+00  9.000E+00
      21     1     1     2   513   516 -4.053463218E+00  9.297595841E+00 -8.893882883E+00  1.348988529E+01  2.665600750E-07  0.00000E+00  9.000E+00
      21     1     1     2   514   511  2.703019690E+00 -7.804184239E+00  2.806068057E+01  2.925087009E+01  3.371747881E-07  0.00000E+00  9.000E+00
      21     1     1     2   515   514  1.350443529E+00 -1.493411602E+00  1.471611415E+00  2.493915815E+00  0.000000000E+00  0.00000E+00  9.000E+00
</event>
<event>
      5  10001  3.52971E+09  1.51568E+01 -1.00000E+00  1.76955E-01
      21    -1     0     0   512   514  0.000000000E+00  0.000000000E+00  8.546999392E+00  8.546999392E+00  0.000000000E+00  0.00000E+00  9.000E+00
      21    -1     0     0   515   517  0.000000000E+00  0.000000000E+00 -1.324499549E+01  1.324499549E+01  0.000000000E+00  0.00000E+00  9.000E+00
      21     1     1     2   512   517 -7.227046931E+00  4.034928695E-02  9.346690311E-02  7.227763933E+00  1.722468450E-07  0.00000E+00  9.000E+00
      21     1     1     2   511   514  1.599891111E+00  3.596819138E-01  3.883938305E+00  4.215922130E+00  1.115100797E-07  0.00000E+00  9.000E+00
      21     1     1     2   515   511  5.627155820E+00 -4.000312007E-01 -8.675401305E+00  1.034830882E+01  2.064765462E-07  0.00000E+00  9.000E+00
</event>
<event>
      5  10001  3.52971E+09  1.29588E+01 -1.00000E+00  1.83581E-01
       2    -1     0     0   515     0  0.000000000E+00  0.000000000E+00  1.418961827E+02  1.418961827E+02  0.000000000E+00  0.00000E+00  9.000E+00
      21    -1     0     0   513   511  0.000000000E+00  0.000000000E+00 -2.110003316E+01  2.110003316E+01  0.000000000E+00  0.00000E+00  9.000E+00
      21     1     1     2   515   511 -2.177844145E+01  1.020988028E+01  1.291055372E+02  1.313270037E+02  2.697398305E-06  0.00000E+00  9.000E+00
      21     1     1     2   513   512  7.878155318E+00 -1.097999791E+01 -1.107430861E+01  1.747186299E+01  5.462855929E-07  0.00000E+00  9.000E+00
       2     1     1     2   512     0  1.390028613E+01  7.701176249E-01  2.764920966E+00  1.419734917E+01  3.300000131E-01  0.00000E+00  9.000E+00
</event>
<event>
      5  10001  3.52971E+09  1.87425E+01 -1.00000E+00  1.68727E-01
      -2    -1     0     0     0   511  0.000000000E+00  0.000000000E+00  1.072158388E+02  1.072158388E+02  0.000000000E+00  0.00000E+00  9.000E+00
      -1    -1     0     0     0   512  0.000000000E+00  0.000000000E+00 -1.637545773E+02  1.637545773E+02  0.000000000E+00  0.00000E+00  9.000E+00
      -2     1     1     2     0   512 -6.565789790E+01  5.717567996E+00  6.653339294E+01  9.365068829E+01  3.300000131E-01  0.00000E+00  9.000E+00
      -1     1     1     2     0   514  4.799877192E+01 -1.199734303E+01 -1.421870127E+02  1.505492405E+02  3.300000131E-01  0.00000E+00  9.000E+00
      21     1     1     2   514   511  1.765912598E+01  6.279775038E+00  1.911488130E+01  2.677048733E+01  2.384185791E-07  0.00000E+00  9.000E+00
</event>
<event>
      5  10001  3.52971E+09  4.87592E+00 -1.00000E+00  2.44719E-01
      -2    -1     0     0     0   511  0.000000000E+00  0.000000000E+00  4.772185128E+02  4.772185128E+02  0.000000000E+00  0.00000E+00  9.000E+00
      21    -1     0     0   513   512  0.000000000E+00  0.000000000E+00 -6.417366632E+00  6.417366632E+00  0.000000000E+00  0.00000E+00  9.000E+00
      -2     1     1     2     0   514 -4.633734073E-01  1.307599614E+01  4.672149680E+02  4.673982581E+02  3.300000131E-01  0.00000E+00  9.000E+00
      21     1     1     2   513   511 -1.289382948E+00 -8.526051417E+00  6.279664756E+00  1.066725131E+01  1.275595102E-06  0.00000E+00  9.000E+00
      21     1     1     2   514   512  1.752756355E+00 -4.549944722E+00 -2.693486652E+00  5.570370020E+00  1.763129170E-07  0.00000E+00  9.000E+00
</event>
<event>
      5  10001  3.52971E+09  2.49204E+00 -1.00000E+00  3.23657E-01
       3    -1     0     0   514     0  0.000000000E+00  0.000000000E+00  5.993179948E-01  5.993179948E-01  0.000000000E+00  0.00000E+00  9.000E+00
       1    -1     0     0   511     0  0.000000000E+00  0.000000000E+00 -4.213106205E+02  4.213106205E+02  0.000000000E+00  0.00000E+00  9.000E+00
       1     1     1     2   514     0  1.337407987E+01  7.990278516E+00 -2.158092573E+02  2.163711048E+02  3.300000131E-01  0.00000E+00  9.000E+00
       3     1     1     2   513     0 -9.429033225E+00 -7.545590393E+00 -1.638823462E+02  1.643274657E+02  5.000000000E-01  0.00000E+00  9.000E+00
      21     1     1     2   511   513 -3.945046642E+00 -4.446881221E-01 -4.101969909E+01  4.121136802E+01  4.768371582E-07  0.00000E+00  9.000E+00
</event>
<event>
      5  10001  3.52971E+09  5.43490E+00 -1.00000E+00  2.32351E-01
      21    -1     0     0   512   513  0.000000000E+00  0.000000000E+00  5.660765900E+01  5.660765900E+01  0.000000000E+00  0.00000E+00  9.000E+00
      21    -1     0     0   513   514  0.000000000E+00  0.000000000E+00 -1.145122365E+01  1.145122365E+01  0.000000000E+00  0.00000E+00  9.000E+00
      21     1     1     2   515   514 -5.131927845E+00  5.396208875E+00 -8.239361516E+00  1.110598180E+01  2.920019320E-07  0.00000E+00  9.000E+00
       4     1     1     2   512     0  5.610157461E+00 -9.933730729E+00  4.934804204E+01  5.067180800E+01  1.500000000E+00  0.00000E+00  9.000E+00
      -4     1     1     2     0   515 -4.782296159E-01  4.537521854E+00  4.047754829E+00  6.281092843E+00  1.500000000E+00  0.00000E+00  9.000E+00
</event>
<event>
      5  10001  3.52971E+09  1.19794E+01 -1.00000E+00  1.87102E-01
      21    -1     0     0   511   514  0.000000000E+00  0.000000000E+00  1.499537602E+02  1.499537602E+02  0.000000000E+00  0.00000E+00  9.000E+00
      21    -1     0     0   513   515  0.000000000E+00  0.000000000E+00 -2.325485358E+00  2.325485358E+00  0.000000000E+00  0.00000E+00  9.000E+00
      21     1     1     2   511   515 -1.374872416E+01 -7.906841284E+00  7.539458501E+01  7.704472081E+01  9.536743164E-07  0.00000E+00  9.000E+00
      21     1     1     2   512   514  1.153922621E+01  1.618871917E+00  6.154362685E+01  6.263698982E+01  6.743495762E-07  0.00000E+00  9.000E+00
      21     1     1     2   513   512  2.209497950E+00  6.287969367E+00  1.069006300E+01  1.259753495E+01  1.192092896E-07  0.00000E+00  9.000E+00
</event>
<event>
      5  10001  3.52971E+09  5.94868E+00 -1.00000E+00  2.26046E-01
      21    -1     0     0   513   512  0.000000000E+00  0.000000000E+00  3.392595778E+00  3.392595778E+00  0.000000000E+00  0.00000E+00  9.000E+00
       2    -1     0     0   514     0  0.000000000E+00  0.000000000E+00 -3.497669591E+02  3.497669591E+02  0.000000000E+00  0.00000E+00  9.000E+00
      21     1     1     2   514   512  8.305487339E+00  5.425948852E+00 -4.774413723E+00  1.100986227E+01  3.576278687E-07  0.00000E+00  9.000E+00
       2     1     1     2   511     0 -4.435375379E+00 -6.791141085E+00 -3.230170144E+02  3.231190069E+02  3.300000131E-01  0.00000E+00  9.000E+00
      21     1     1     2   513   511 -3.870111960E+00  1.365192232E+00 -1.858293529E+01  1.903068575E+01  2.384185791E-07  0.00000E+00  9.000E+00
</event>
<event>
      5  10001  3.52971E+09  1.55930E+01 -1.00000E+00  1.75808E-01
      21    -1     0     0   515   511  0.000000000E+00  0.000000000E+00  1.808838081E+02  1.808838081E+02  0.000000000E+00  0.00000E+00  9.000E+00
      21    -1     0     0   512   516  0.000000000E+00  0.000000000E+00 -2.305858524E+02  2.305858524E+02  0.000000000E+00  0.00000E+00  9.000E+00
      21     1     1     2   515   516  2.482618385E+00 -1.176296470E+01  1.793278253E+02  1.797303526E+02  3.814697266E-06  0.00000E+00  9.000E+00
      21     1     1     2   514   511 -1.415232077E+01  1.345633560E+01 -1.890712377E+02  1.900770741E+02  4.672030912E-06  0.00000E+00  9.000E+00
      21     1     1     2   512   514  1.166970238E+01 -1.693370903E+00 -3.995863192E+01  4.166223378E+01  9.536743164E-07  0.00000E+00  9.000E+00
</event>
<event>
      5  10001  3.52971E+09  9.12935E+00 -1.00000E+00  2.00439E-01
      21    -1     0     0   513   514  0.000000000E+00  0.000000000E+00  4.810824164E+01  4.810824164E+01  0.000000000E+00  0.00000E+00  9.000E+00
      21    -1     0     0   512   517  0.000000000E+00  0.000000000E+00 -6.215211711E+00  6.215211711E+00  0.000000000E+00  0.00000E+00  9.000E+00
      21     1     1     2   513   517  9.687504776E+00  1.684150021E+00  1.478566259E+00  9.943352969E+00  1.281846354E-07  0.00000E+00  9.000E+00
      21     1     1     2   511   514 -7.345583118E+00 -5.799029259E+00  3.786151134E+01  3.900103040E+01  0.000000000E+00  0.00000E+00  9.000E+00
      21     1     1     2   512   511 -2.341921658E+00  4.114879238E+00  2.552952324E+00  5.379069972E+00  1.632340424E-07  0.00000E+00  9.000E+00
</event>
<event>
      5  10001  3.52971E+09  8.61896E+00 -1.00000E+00  2.03522E-01
       3    -1     0     0   512     0  0.000000000E+00  0.000000000E+00  8.322162586E+01  8.322162586E+01  0.000000000E+00  0.00000E+00  9.000E+00
       1    -1     0     0   513     0  0.000000000E+00  0.000000000E+00 -3.897436514E+01  3.897436514E+01  0.000000000E+00  0.00000E+00  9.000E+00
       1     1     1     2   512     0 -1.053053909E+01 -3.136652997E+00 -3.773299252E+01  3.930163445E+01  3.300000131E-01  0.00000E+00  9.000E+00
       3     1     1     2   514     0  5.322585244E+00  9.409985726E-01  2.247197660E+01  2.311828549E+01  5.000000000E-01  0.00000E+00  9.000E+00
      21     1     1     2   513   514  5.207953850E+00  2.195654425E+00  5.950827665E+01  5.977607106E+01  9.536743164E-07  0.00000E+00  9.000E+00
</event>
<event>
      5  10001  3.52971E+09  1.13548E+01 -1.00000E+00  1.89583E-01
      21    -1     0     0   511   512  0.000000000E+00  0.000000000E+00  1.207123363E+02  1.207123363E+02  0.000000000E+00  0.00000E+00  9.000E+00
      21    -1     0     0   513   515  0.000000000E+00  0.000000000E+00 -1.378584894E+01  1.378584894E+01  0.000000000E+00  0.00000E+00  9.000E+00
      21     1     1     2   511   515  6.722888891E+00 -1.356311330E+01 -6.856968054E+00  1.661846227E+01  3.769728732E-07  0.00000E+00  9.000E+00
      21     1     1     2   513   514  4.240388633E+00  1.060715775E+01  1.730496311E+01  2.073534276E+01  3.371747881E-07  0.00000E+00  9.000E+00
      21     1     1     2   514   512 -1.096327752E+01  2.955955553E+00  9.647849233E+01  9.714438023E+01  0.000000000E+00  0.00000E+00  9.000E+00
</event>
<event>
      5  10001  3.52971E+09  1.28996E+01 -1.00000E+00  1.83782E-01
      21    -1     0     0   516   513  0.000000000E+00  0.000000000E+00  1.627432272E+03  1.627432272E+03  0.000000000E+00  0.00000E+00  9.000E+00
      21    -1     0     0   511   516  0.000000000E+00  0.000000000E+00 -2.241290633E+00  2.241290633E+00  0.000000000E+00  0.00000E+00  9.000E+00
      21     1     1     2   512   517 -7.236394043E+00  1.223422984E+01  7.084873715E+01  7.226053787E+01  3.932099939E-06  0.00000E+00  9.000E+00
      21     1     1     2   517   513 -4.677310089E+00 -1.718036551E+01  1.527784101E+03  1.527887856E+03  0.000000000E+00  0.00000E+00  9.000E+00
      21     1     1     2   511   512  1.191370413E+01  4.946135670E+00  2.655814381E+01  2.952516904E+01  1.168007728E-06  0.00000E+00  9.000E+00
</event>
<event>
      5  10001  3.52971E+09  4.81825E+00 -1.00000E+00  2.45765E-01
      21    -1     0     0   514   515  0.000000000E+00  0.000000000E+00  6.033162576E+01  6.033162576E+01  0.000000000E+00  0.00000E+00  9.000E+00
      21    -1     0     0   511   513  0.000000000E+00  0.000000000E+00 -9.916446402E+00  9.916446402E+00  0.000000000E+00  0.00000E+00  9.000E+00
      21     1     1     2   514   512  1.215779786E+00 -1.537738865E+01  4.820836958E+01  5.061609527E+01  6.743495762E-07  0.00000E+00  9.000E+00
      21     1     1     2   511   515 -2.554329991E+00  1.074880546E+01  6.801712936E+00  1.297400167E+01  4.915124924E-07  0.00000E+00  9.000E+00
      21     1     1     2   512   513  1.338550206E+00  4.628583190E+00 -4.594903162E+00  6.657975223E+00  1.460009660E-07  0.00000E+00  9.000E+00
</event>
<event>
      5  10001  3.52971E+09  4.56689E+00 -1.00000E+00  2.50598E-01
      21    -1     0     0   516   513  0.000000000E+00  0.000000000E+00  1.284154003E+02  1.284154003E+02  0.000000000E+00  0.00000E+00  9.000E+00
      21    -1     0     0   514   516  0.000000000E+00  0.000000000E+00 -8.430083131E+01  8.430083131E+01  0.000000000E+00  0.00000E+00  9.000E+00
      21     1     1     2   511   513  5.862295494E+00  8.901310950E+00  1.247727407E+02  1.252271402E+02  1.907348633E-06  0.00000E+00  9.000E+00
      21     1     1     2   517   511 -2.131690468E+00 -1.153552869E+01 -6.940772471E+00  1.363036496E+01  3.475518164E-07  0.00000E+00  9.000E+00
      21     1     1     2   514   517 -3.730605026E+00  2.634217741E+00 -7.371739921E+01  7.385872639E+01  1.651812370E-06  0.00000E+00  9.000E+00
</event>
<event>
      5  10001  3.52971E+09  8.60396E+00 -1.00000E+00  2.03617E-01
      21    -1     0     0   512   513  0.000000000E+00  0.000000000E+00  2.805006952E+02  2.805006952E+02  0.000000000E+00  0.00000E+00  9.000E+00
      21    -1     0     0   514   512  0.000000000E+00  0.000000000E+00 -2.961289652E+01  2.961289652E+01  0.000000000E+00  0.00000E+00  9.000E+00
      21     1     1     2   514   515 -7.120824875E-01  1.144929545E+01 -2.836383390E+01  3.059575953E+01  1.261592536E-06  0.00000E+00  9.000E+00
      21     1     1     2   511   513  1.588534782E+00 -1.444364789E+00  5.256001007E+01  5.260384293E+01  6.743495762E-07  0.00000E+00  9.000E+00
      21     1     1     2   515   511 -8.764522940E-01 -1.000493066E+01  2.266916225E+02  2.269139892E+02  0.000000000E+00  0.00000E+00  9.000E+00
</event>
<event>
      5  10001  3.52971E+09  2.13550E+00 -1.00000E+00  3.50274E-01
       1    -1     0     0   512     0  0.000000000E+00  0.000000000E+00  2.240574731E-01  2.240574731E-01  0.000000000E+00  0.00000E+00  9.000E+00
      21    -1     0     0   511   512  0.000000000E+00  0.000000000E+00 -9.878694195E+02  9.878694195E+02  0.000000000E+00  0.00000E+00  9.000E+00
      21     1     1     2   513   516  3.634632140E+00 -3.970265065E+00 -4.994338079E+02  4.994628135E+02  7.629394531E-06  0.00000E+00  9.000E+00
       1     1     1     2   516     0 -8.156268125E+00  6.180068421E+00 -1.366256330E+02  1.370087240E+02  3.300000131E-01  0.00000E+00  9.000E+00
      21     1     1     2   511   513  4.521635985E+00 -2.209803355E+00 -3.515859211E+02  3.516219395E+02  3.814697266E-06  0.00000E+00  9.000E+00
</event>
<event>
      5  10001  3.52971E+09  4.06309E+00 -1.00000E+00  2.61871E-01
      21    -1     0     0   514   513  0.000000000E+00  0.000000000E+00  2.973136736E+01  2.973136736E+01  0.000000000E+00  0.00000E+00  9.000E+00
      21    -1     0     0   512   514  0.000000000E+00  0.000000000E+00 -1.576606539E+01  1.576606539E+01  0.000000000E+00  0.00000E+00  9.000E+00
      21     1     1     2   515   513 -6.515430945E+00  1.015700131E+01  2.187704798E+01  2.498441002E+01  4.129530925E-07  0.00000E+00  9.000E+00
      21     1     1     2   511   515  2.877352684E+00 -8.347826472E+00  2.631809296E+00  9.213673830E+00  8.429369702E-08  0.00000E+00  9.000E+00
      21     1     1     2   512   511  3.638078261E+00 -1.809174833E+00 -1.054355531E+01  1.129934890E+01  1.192092896E-07  0.00000E+00  9.000E+00
</event>
<event>
      5  10001  3.52971E+09  4.89115E+00 -1.00000E+00  2.44446E-01
      21    -1     0     0   516   511  0.000000000E+00  0.000000000E+00  4.633931491E+01  4.633931491E+01  0.000000000E+00  0.00000E+00  9.000E+00
       4    -1     0     0   512     0  0.000000000E+00  0.000000000E+00 -5.636465146E+02  5.636465146E+02  0.000000000E+00  0.00000E+00  9.000E+00
      21     1     1     2   512   517  1.044461296E+01 -1.254335285E+01  2.397617452E+01  2.900487175E+01  4.768371582E-07  0.00000E+00  9.000E+00
      21     1     1     2   517   511 -6.020667308E+00  1.462924948E+01  1.668307852E+01  2.299105226E+01  5.331201500E-07  0.00000E+00  9.000E+00
       4     1     1     2   516     0 -4.423945652E+00 -2.085896630E+00 -5.579664528E+02  5.579899055E+02  1.500000000E+00  0.00000E+00  9.000E+00
</event>
<event>
      5  10001  3.52971E+09  1.84283E+01 -1.00000E+00  1.69353E-01
       2    -1     0     0   515     0  0.000000000E+00  0.000000000E+00  4.665303623E-01  4.665303623E-01  0.000000000E+00  0.00000E+00  9.000E+00
      21    -1     0     0   513   514  0.000000000E+00  0.000000000E+00 -2.938672819E+02  2.938672819E+02  0.000000000E+00  0.00000E+00  9.000E+00
      21     1     1     2   515   514 -1.958270073E+00  2.630415239E+00 -4.703353992E+01  4.714772299E+01  9.536743164E-07  0.00000E+00  9.000E+00
       2     1     1     2   511     0  6.162124273E+00 -1.663379497E+00 -2.590788966E+01  2.668456958E+01  3.300000131E-01  0.00000E+00  9.000E+00
      21     1     1     2   513   511 -4.203854200E+00 -9.670357421E-01 -2.204593220E+02  2.205015197E+02  3.814697266E-06  0.00000E+00  9.000E+00
</event>
<event>
      5  10001  3.52971E+09  4.59125E+00 -1.00000E+00  2.50109E-01
      21    -1     0     0   513   514  0.000000000E+00  0.000000000E+00  8.231189733E-01  8.231189733E-01  0.000000000E+00  0.00000E+00  9.000E+00
      21    -1     0     0   512   511  0.000000000E+00  0.000000000E+00 -3.116684451E+02  3.116684451E+02  0.000000000E+00  0.00000E+00  9.000E+00
      21     1     1     2   513   511 -7.660409550E+00 -1.248034109E+01 -1.307808773E+02  1.315981711E+02  1.907348633E-06  0.00000E+00  9.000E+00
       4     1     1     2   512     0  4.801122438E+00  8.941418675E+00 -1.570984208E+02  1.574330447E+02  1.500000000E+00  0.00000E+00  9.000E+00
      -4     1     1     2     0   514  2.859287111E+00  3.538922415E+00 -2.296602807E+01  2.346034825E+01  1.500000000E+00  0.00000E+00  9.000E+00
</event>
<event>
      5  10001  3.52971E+09  5.99045E+00 -1.00000E+00  2.25573E-01
      21    -1     0     0   512   514  0.000000000E+00  0.000000000E+00  1.168677939E+01  1.168677939E+01  0.000000000E+00  0.00000E+00  9.000E+00
       2    -1     0     0   514     0  0.000000000E+00  0.000000000E+00 -1.502922789E+03  1.502922789E+03  0.000000000E+00  0.00000E+00  9.000E+00
      21     1     1     2   511   515  4.214039707E+00  6.993585700E-01  6.352272700E+00  7.654972340E+00  2.445970121E-06  0.00000E+00  9.000E+00
       2     1     1     2   515     0 -1.003120420E+01  3.998891619E+00 -1.499254729E+03  1.499293656E+03  3.300000131E-01  0.00000E+00  9.000E+00
      21     1     1     2   512   511  5.817164490E+00 -4.698250189E+00  1.666446537E+00  7.660939994E+00  1.773175571E-06  0.00000E+00  9.000E+00
</event>
<event>
      5  10001  3.52971E+09  4.80261E+00 -1.00000E+00  2.46053E-01
      21    -1     0     0   513   515  0.000000000E+00  0.000000000E+00  2.221962769E+00  2.221962769E+00  0.000000000E+00  0.00000E+00  9.000E+00
      21    -1     0     0   514   516  0.000000000E+00  0.000000000E+00 -2.111224291E+02  2.111224291E+02  0.000000000E+00  0.00000E+00  9.000E+00
      21     1     1     2   513   511  2.933016114E+00  1.215916711E+01 -1.140522939E+02  1.147361045E+02  1.907348633E-06  0.00000E+00  9.000E+00
      21     1     1     2   514   515 -1.505236940E-01 -8.244728794E+00 -7.557002867E+00  1.118510181E+01  1.460009660E-07  0.00000E+00  9.000E+00
      21     1     1     2   511   516 -2.782492420E+00 -3.914438317E+00 -8.729116955E+01  8.742318555E+01  1.348699152E-06  0.00000E+00  9.000E+00
</event>
<event>
      5  10001  3.52971E+09  1.51259E+01 -1.00000E+00  1.77039E-01
      21    -1     0     0   512   514  0.000000000E+00  0.000000000E+00  4.710457292E+01  4.710457292E+01  0.000000000E+00  0.00000E+00  9.000E+00
       2    -1     0     0   511     0  0.000000000E+00  0.000000000E+00 -3.133763582E+02  3.133763582E+02  0.000000000E+00  0.00000E+00  9.000E+00
      21     1     1     2   511   513 -6.186775671E+00 -1.062254207E-01  1.567951045E+01  1.685629037E+01  2.920019320E-07  0.00000E+00  9.000E+00
       2     1     1     2   512     0  6.334161776E+00 -9.491933754E+00 -3.119339621E+02  3.121427942E+02  3.300000131E-01  0.00000E+00  9.000E+00
      21     1     1     2   513   514 -1.473861050E-01  9.598159174E+00  2.998266631E+01  3.148184653E+01  1.469710828E-06  0.00000E+00  9.000E+00
</event>
<event>
      5  10001  3.52971E+09  6.02945E+00 -1.00000E+00  2.25136E-01
      -2    -1     0     0     0   514  0.000000000E+00  0.000000000E+00  1.298974073E+01  1.298974073E+01  0.000000000E+00  0.00000E+00  9.000E+00
      -4    -1     0     0     0   512  0.000000000E+00  0.000000000E+00 -2.438250407E+01  2.438250407E+01  0.000000000E+00  0.00000E+00  9.000E+00
      -4     1     1     2     0   514 -8.900970933E+00  5.134616579E+00 -2.011419744E+01  2.263675130E+01  1.500000000E+00  0.00000E+00  9.000E+00
      21     1     1     2   511   512  5.514983108E+00 -4.787763949E+00  2.653651777E+00  7.770430494E+00  1.659323085E-07  0.00000E+00  9.000E+00
      -2     1     1     2     0   511  3.385987825E+00 -3.468526302E-01  6.067782323E+00  6.965063002E+00  3.300000131E-01  0.00000E+00  9.000E+00
</event>
<event>
      5  10001  3.52971E+09  9.75752E+00 -1.00000E+00  1.96993E-01
      21    -1     0     0   513   511  0.000000000E+00  0.000000000E+00  6.589015807E+01  6.589015807E+01  0.000000000E+00  0.00000E+00  9.000E+00
      21    -1     0     0   515   513  0.000000000E+00  0.000000000E+00 -3.556711954E+01  3.556711954E+01  0.000000000E+00  0.00000E+00  9.000E+00
      21     1     1     2   515   516 -1.001458033E+00 -1.218833784E+01 -3.188574670E+01  3.415053939E+01  5.840038640E-07  0.00000E+00  9.000E+00
      21     1     1     2   516   512  8.128188940E+00  1.227620007E+01  5.584040331E+01  5.774879380E+01  6.743495762E-07  0.00000E+00  9.000E+00
      21     1     1     2   512   511 -7.126730906E+00 -8.786222564E-02  6.368381926E+00  9.557944420E+00  1.685873940E-07  0.00000E+00  9.000E+00
</event>
<event>
      5  10001  3.52971E+09  4.75119E+00 -1.00000E+00  2.47010E-01
      21    -1     0     0   514   512  0.000000000E+00  0.000000000E+00  1.253524237E+01  1.253524237E+01  0.000000000E+00  0.00000E+00  9.000E+00
      21    -1     0     0   511   514  0.000000000E+00  0.000000000E+00 -1.546495939E+02  1.546495939E+02  0.000000000E+00  0.00000E+00  9.000E+00
      21     1     1     2   517   512  1.016936690E+01 -4.810518944E+00  9.668887406E+00  1.483389697E+01  6.848052319E-07  0.00000E+00  9.000E+00
      21     1     1     2   513   517 -5.129806105E+00  6.776911837E-01 -1.035703137E+02  1.036994892E+02  1.348699152E-06  0.00000E+00  9.000E+00
      21     1     1     2   511   513 -5.039560793E+00  4.132827760E+00 -4.821292522E+01  4.865145009E+01  9.536743164E-07  0.00000E+00  9.000E+00
</event>
<event>
      5  10001  3.52971E+09  2.12301E+00 -1.00000E+00  3.51378E-01
      21    -1     0     0   515   513  0.000000000E+00  0.000000000E+00  1.471380928E+01  1.471380928E+01  0.000000000E+00  0.00000E+00  9.000E+00
       2    -1     0     0   513     0  0.000000000E+00  0.000000000E+00 -7.752203260E+02  7.752203260E+02  0.000000000E+00  0.00000E+00  9.000E+00
      -2     1     1     2     0   514 -1.343900121E+00  9.008209179E+00 -1.945862289E+01  2.148722422E+01  3.300000131E-01  0.00000E+00  9.000E+00
       2     1     1     2   515     0  8.407879973E-01 -1.107067611E+01  1.144626103E+01  1.594968920E+01  3.300000131E-01  0.00000E+00  9.000E+00
       2     1     1     2   514     0  5.031121239E-01  2.062466936E+00 -7.524941549E+02  7.524972219E+02  3.300000131E-01  0.00000E+00  9.000E+00
</event>
<event>
      5  10001  3.52971E+09  4.38113E+00 -1.00000E+00  2.54484E-01
      21    -1     0     0   512   513  0.000000000E+00  0.000000000E+00  3.213758205E+00  3.213758205E+00  0.000000000E+00  0.00000E+00  9.000E+00
      21    -1     0     0   515   511  0.000000000E+00  0.000000000E+00 -3.104491165E+02  3.104491165E+02  0.000000000E+00  0.00000E+00  9.000E+00
      -1     1     1     2     0   513 -4.966149766E-01  1.310826107E+01 -9.892676247E+01  9.979321805E+01  3.300000131E-01  0.00000E+00  9.000E+00
      21     1     1     2   512   511 -3.852879421E+00 -1.363003423E+01 -1.544637868E+01  2.095741223E+01  1.685873940E-07  0.00000E+00  9.000E+00
       1     1     1     2   515     0  4.349494397E+00  5.217731621E-01 -1.928622172E+02  1.929122444E+02  3.300000131E-01  0.00000E+00  9.000E+00
</event>
<event>
      5  10001  3.52971E+09  5.94293E+00 -1.00000E+00  2.26112E-01
      -3    -1     0     0     0   515  0.000000000E+00  0.000000000E+00  1.005806311E+02  1.005806311E+02  0.000000000E+00  0.00000E+00  9.000E+00
      21    -1     0     0   513   516  0.000000000E+00  0.000000000E+00 -1.609627220E+01  1.609627220E+01  0.000000000E+00  0.00000E+00  9.000E+00
      21     1     1     2   514   516  1.347460733E+01 -1.390599331E+01  1.943821919E+01  2.743694695E+01  4.768371582E-07  0.00000E+00  9.000E+00
      21     1     1     2   513   515 -8.795188552E+00  1.756898624E+01 -3.904651716E+00  2.003174790E+01  3.125693942E-07  0.00000E+00  9.000E+00
      -3     1     1     2     0   514 -4.679418773E+00 -3.662992924E+00  6.895079142E+01  6.920820844E+01  5.000000000E-01  0.00000E+00  9.000E+00
</event>
<event>
      5  10001  3.52971E+09  7.52330E+00 -1.00000E+00  2.11216E-01
      21    -1     0     0   511   513  0.000000000E+00  0.000000000E+00  1.698317085E+01  1.698317085E+01  0.000000000E+00  0.00000E+00  9.000E+00
      21    -1     0     0   514   515  0.000000000E+00  0.000000000E+00 -1.043521814E+02  1.043521814E+02  0.000000000E+00  0.00000E+00  9.000E+00
      21     1     1     2   511   512  1.968265961E+01 -3.592499245E+00 -1.539070286E+01  2.524256078E+01  5.057621821E-07  0.00000E+00  9.000E+00
      21     1     1     2   514   513 -1.845401179E+01 -3.829795141E+00  4.392505644E+00  1.935231221E+01  6.049210766E-07  0.00000E+00  9.000E+00
      21     1     1     2   512   515 -1.228647819E+00  7.422294386E+00 -7.637081337E+01  7.674047931E+01  0.000000000E+00  0.00000E+00  9.000E+00
</event>
<event>
      5  10001  3.52971E+09  4.08430E+00 -1.00000E+00  2.61346E-01
      -3    -1     0     0     0   515  0.000000000E+00  0.000000000E+00  1.362597861E+01  1.362597861E+01  0.000000000E+00  0.00000E+00  9.000E+00
      -2    -1     0     0     0   511  0.000000000E+00  0.000000000E+00 -2.428090679E+02  2.428090679E+02  0.000000000E+00  0.00000E+00  9.000E+00
      -3     1     1     2     0   513  2.166235532E+00 -8.726364329E+00  7.811551340E+00  1.192108825E+01  5.000000000E-01  0.00000E+00  9.000E+00
      -2     1     1     2     0   515 -6.396683395E+00  9.750831981E+00 -2.393028690E+02  2.395870787E+02  3.300000131E-01  0.00000E+00  9.000E+00
      21     1     1     2   513   511  4.230447863E+00 -1.024467652E+00  2.308228415E+00  4.926879490E+00  1.074538015E-07  0.00000E+00  9.000E+00
</event>
<event>
      5  10001  3.52971E+09  6.57802E+00 -1.00000E+00  2.19436E-01
      21    -1     0     0   513   515  0.000000000E+00  0.000000000E+00  4.543631034E+02  4.543631034E+02  0.000000000E+00  0.00000E+00  9.000E+00
       3    -1     0     0   514     0  0.000000000E+00  0.000000000E+00 -3.241079084E+00  3.241079084E+00  0.000000000E+00  0.00000E+00  9.000E+00
      21     1     1     2   513   512 -1.400205516E+01 -1.167828680E+01  2.442083595E+02  2.448880617E+02  3.814697266E-06  0.00000E+00  9.000E+00
       3     1     1     2   512     0  7.556191540E+00  1.036790094E+01  1.163481234E+01  1.732651895E+01  5.000000000E-01  0.00000E+00  9.000E+00
      21     1     1     2   514   515  6.445863618E+00  1.310385854E+00  1.952788526E+02  1.953896019E+02  0.000000000E+00  0.00000E+00  9.000E+00
</event>
<event>
      5  10001  3.52971E+09  5.81277E+00 -1.00000E+00  2.27625E-01
       1    -1     0     0   513     0  0.000000000E+00  0.000000000E+00  8.646409191E+02  8.646409191E+02  0.000000000E+00  0.00000E+00  9.000E+00
      21    -1     0     0   512   516  0.000000000E+00  0.000000000E+00 -1.055924587E+02  1.055924587E+02  0.000000000E+00  0.00000E+00  9.000E+00
      21     1     1     2   512   511 -9.727238242E+00 -4.746305551E+00 -1.558863204E+01  1.897767185E+01  1.143415337E-06  0.00000E+00  9.000E+00
       1     1     1     2   511     0  1.326930855E+01  1.373981760E-01  8.627996382E+02  8.629017430E+02  3.300000131E-01  0.00000E+00  9.000E+00
      21     1     1     2   513   516 -3.542070304E+00  4.608907375E+00 -8.816254577E+01  8.835396293E+01  1.651812370E-06  0.00000E+00  9.000E+00
</event>
<event>
      5  10001  3.52971E+09  2.08262E+01 -1.00000E+00  1.64928E-01
      21    -1     0     0   514   511  0.000000000E+00  0.000000000E+00  7.558959459E+01  7.558959459E+01  0.000000000E+00  0.00000E+00  9.000E+00
      21    -1     0     0   512   515  0.000000000E+00  0.000000000E+00 -3.024864835E+01  3.024864835E+01  0.000000000E+00  0.00000E+00  9.000E+00
      21     1     1     2   514   515  1.296158145E+01 -3.360292167E+00  7.264956088E+01  7.387322149E+01  0.000000000E+00  0.00000E+00  9.000E+00
      21     1     1     2   517   511 -5.673653253E+00 -4.201914551E-01 -3.267684727E+00  6.560843358E+00  2.346637211E-07  0.00000E+00  9.000E+00
      21     1     1     2   512   517 -7.287928196E+00  3.780483622E+00 -2.404092992E+01  2.540417810E+01  6.743495762E-07  0.00000E+00  9.000E+00
</event>
<event>
      5  10001  3.52971E+09  4.96395E+00 -1.00000E+00  2.43162E-01
      -3    -1     0     0     0   513  0.000000000E+00  0.000000000E+00  1.428950768E+01  1.428950768E+01  0.000000000E+00  0.00000E+00  9.000E+00
      21    -1     0     0   513   514  0.000000000E+00  0.000000000E+00 -1.016038558E+02  1.016038558E+02  0.000000000E+00  0.00000E+00  9.000E+00
      -3     1     1     2     0   511 -1.313452241E+01 -7.478893190E+00  9.077171415E+00  1.763787298E+01  5.000000000E-01  0.00000E+00  9.000E+00
      21     1     1     2   515   514  1.045388743E+01  1.040256364E+01 -8.254198652E+01  8.384913018E+01  0.000000000E+00  0.00000E+00  9.000E+00
      21     1     1     2   511   515  2.680634980E+00 -2.923670450E+00 -1.384953305E+01  1.440636035E+01  2.384185791E-07  0.00000E+00  9.000E+00
</event>
<event>
      5  10001  3.52971E+09  2.21812E+01 -1.00000E+00  1.62740E-01
      21    -1     0     0   512   514  0.000000000E+00  0.000000000E+00  2.613889340E+00  2.613889340E+00  0.000000000E+00  0.00000E+00  9.000E+00
      21    -1     0     0   513   512  0.000000000E+00  0.000000000E+00 -1.181849073E+02  1.181849073E+02  0.000000000E+00  0.00000E+00  9.000E+00
      21     1     1     2   515   514 -7.368332660E+00 -3.910224152E+00 -1.135269031E+01  1.408778749E+01  1.685873940E-07  0.00000E+00  9.000E+00
      21     1     1     2   516   515  1.097260649E+01 -1.277337206E+00 -2.614990473E+01  2.838744795E+01  4.768371582E-07  0.00000E+00  9.000E+00
      21     1     1     2   513   516 -3.604273826E+00  5.187561358E+00 -7.806842294E+01  7.832356123E+01  9.536743164E-07  0.00000E+00  9.000E+00
</event>
<event>
      5  10001  3.52971E+09  1.33373E+01 -1.00000E+00  1.82325E-01
      21    -1     0     0   513   514  0.000000000E+00  0.000000000E+00  5.927091054E-01  5.927091054E-01  0.000000000E+00  0.00000E+00  9.000E+00
       2    -1     0     0   514     0  0.000000000E+00  0.000000000E+00 -1.628573446E+03  1.628573446E+03  0.000000000E+00  0.00000E+00  9.000E+00
      21     1     1     2   512   511  1.314827976E+01  6.905466289E+00 -1.475686440E+02  1.483140837E+02  3.303624740E-06  0.00000E+00  9.000E+00
       2     1     1     2   511     0 -6.882430737E+00 -1.306977965E+01 -1.373439205E+03  1.373518673E+03  3.300000131E-01  0.00000E+00  9.000E+00
      21     1     1     2   513   512 -6.265849020E+00  6.164313356E+00 -1.069728878E+02  1.073333981E+02  3.303624740E-06  0.00000E+00  9.000E+00
</event>
<event>
      5  10001  3.52971E+09  3.91654E+00 -1.00000E+00  2.65638E-01
      21    -1     0     0   515   514  0.000000000E+00  0.000000000E+00  2.361195143E+00  2.361195143E+00  0.000000000E+00  0.00000E+00  9.000E+00
      21    -1     0     0   512   515  0.000000000E+00  0.000000000E+00 -6.990677348E+01  6.990677348E+01  0.000000000E+00  0.00000E+00  9.000E+00
      -3     1     1     2     0   511  8.672188118E+00  2.462588766E+00 -2.589676123E+01  2.742559812E+01  5.000000000E-01  0.00000E+00  9.000E+00
       3     1     1     2   512     0 -1.083067535E+01 -3.539719465E+00 -1.971579899E+01  2.277709095E+01  5.000000000E-01  0.00000E+00  9.000E+00
      21     1     1     2   511   514  2.158487235E+00  1.077130700E+00 -2.193301812E+01  2.206527955E+01  3.371747881E-07  0.00000E+00  9.000E+00
</event>
<event>
      5  10001  3.52971E+09  1.38018E+01 -1.00000E+00  1.80855E-01
      21    -1     0     0   513   512  0.000000000E+00  0.000000000E+00  3.776112012E+01  3.776112012E+01  0.000000000E+00  0.00000E+00  9.000E+00
      21    -1     0     0   511   514  0.000000000E+00  0.000000000E+00 -1.117415959E+01  1.117415959E+01  0.000000000E+00  0.00000E+00  9.000E+00
      21     1     1     2   513   514  9.417931515E+00  1.050010762E+01  2.416115602E+01  2.797697544E+01  0.000000000E+00  0.00000E+00  9.000E+00
      21     1     1     2   515   512 -1.175365698E+01 -4.889542165E+00  5.819915430E+00  1.399741014E+01  1.460009660E-07  0.00000E+00  9.000E+00
      21     1     1     2   511   515  2.335725465E+00 -5.610565456E+00 -3.394110919E+00  6.960894132E+00  1.884864366E-07  0.00000E+00  9.000E+00
</event>
<event>
      5  10001  3.52971E+09  5.87550E+00 -1.00000E+00  2.26889E-01
      -4    -1     0     0     0   516  0.000000000E+00  0.000000000E+00  1.286692165E+01  1.286692165E+01  0.000000000E+00  0.00000E+00  9.000E+00
      21    -1     0     0   512   513  0.000000000E+00  0.000000000E+00 -9.091611597E+00  9.091611597E+00  0.000000000E+00  0.00000E+00  9.000E+00
      21     1     1     2   514   513 -2.655940520E+00 -3.851480410E+00 -2.420783981E+00  5.267648097E+00  6.664001875E-08  0.00000E+00  9.000E+00
      21     1     1     2   512   516  3.847052574E+00  9.060669061E+00  3.020992348E+00  1.029669520E+01  2.269677253E-07  0.00000E+00  9.000E+00
      -4     1     1     2     0   514 -1.191112054E+00 -5.209188651E+00  3.175101682E+00  6.394189943E+00  1.500000000E+00  0.00000E+00  9.000E+00
</event>
<event>
      5  10001  3.52971E+09  1.04655E+01 -1.00000E+00  1.93496E-01
      21    -1     0     0   511   514  0.000000000E+00  0.000000000E+00  7.128416946E-01  7.128416946E-01  0.000000000E+00  0.00000E+00  9.000E+00
      21    -1     0     0   515   511  0.000000000E+00  0.000000000E+00 -2.275611515E+02  2.275611515E+02  0.000000000E+00  0.00000E+00  9.000E+00
      21     1     1     2   512   514 -1.680714180E+00 -1.069499078E+01 -8.348994201E+01  8.418894253E+01  9.536743164E-07  0.00000E+00  9.000E+00
      21     1     1     2   513   512  4.939188714E+00  3.561435858E+00 -8.232235417E+01  8.254725560E+01  9.536743164E-07  0.00000E+00  9.000E+00
      21     1     1     2   515   513 -3.258474534E+00  7.133554925E+00 -6.103601368E+01  6.153779512E+01  9.536743164E-07  0.00000E+00  9.000E+00
</event>
<event>
      5  10001  3.52971E+09  6.27764E+00 -1.00000E+00  2.22457E-01
      -3    -1     0     0     0   512  0.000000000E+00  0.000000000E+00  4.682597629E+01  4.682597629E+01  0.000000000E+00  0.00000E+00  9.000E+00
       2    -1     0     0   512     0  0.000000000E+00  0.000000000E+00 -1.228322386E+02  1.228322386E+02  0.000000000E+00  0.00000E+00  9.000E+00
      21     1     1     2   513   515 -5.775857183E+00 -1.173697854E+01 -1.477254815E+01  1.973183647E+01  7.907449699E-07  0.00000E+00  9.000E+00
       2     1     1     2   515     0  1.194627213E+01  1.058225359E+01 -1.047487425E+02  1.059580363E+02  3.300000131E-01  0.00000E+00  9.000E+00
      -3     1     1     2     0   513 -6.170414947E+00  1.154724953E+00  4.351502836E+01  4.396834206E+01  5.000000000E-01  0.00000E+00  9.000E+00
</event>
<event>
      5  10001  3.52971E+09  6.24397E+00 -1.00000E+00  2.22811E-01
      21    -1     0     0   511   512  0.000000000E+00  0.000000000E+00  4.380291232E-01  4.380291232E-01  0.000000000E+00  0.00000E+00  9.000E+00
       2    -1     0     0   514     0  0.000000000E+00  0.000000000E+00 -3.446425682E+02  3.446425682E+02  0.000000000E+00  0.00000E+00  9.000E+00
      21     1     1     2   514   512  7.352237484E+00  5.654573155E+00 -8.106360617E+01  8.159251092E+01  0.000000000E+00  0.00000E+00  9.000E+00
       2     1     1     2   515     0 -7.673130446E+00 -2.002750658E+00 -2.314131107E+02  2.315491841E+02  3.300000131E-01  0.00000E+00  9.000E+00
      21     1     1     2   511   515  3.208929619E-01 -3.651822497E+00 -3.172782226E+01  3.193890238E+01  3.371747881E-07  0.00000E+00  9.000E+00
</event>
<event>
      5  10001  3.52971E+09  6.74888E+00 -1.00000E+00  2.17815E-01
      21    -1     0     0   513   514  0.000000000E+00  0.000000000E+00  1.740277869E+01  1.740277869E+01  0.000000000E+00  0.00000E+00  9.000E+00
      21    -1     0     0   516   513  0.000000000E+00  0.000000000E+00 -1.116017105E+02  1.116017105E+02  0.000000000E+00  0.00000E+00  9.000E+00
      21     1     1     2   515   514 -1.153799685E+00 -1.040772014E+01  1.459820116E+01  1.796550499E+01  7.152557373E-07  0.00000E+00  9.000E+00
      21     1     1     2   512   515 -6.725103184E-01  1.455825110E+01 -1.007799575E+02  1.018282612E+02  2.336015456E-06  0.00000E+00  9.000E+00
      21     1     1     2   516   512  1.826310003E+00 -4.150530960E+00 -8.017175460E+00  9.210722981E+00  1.192092896E-07  0.00000E+00  9.000E+00
</event>
<event>
      5  10001  3.52971E+09  9.20993E+00 -1.00000E+00  1.99977E-01
      21    -1     0     0   511   512  0.000000000E+00  0.000000000E+00  1.507743275E+02  1.507743275E+02  0.000000000E+00  0.00000E+00  9.000E+00
      21    -1     0     0   514   513  0.000000000E+00  0.000000000E+00 -1.580301386E+01  1.580301386E+01  0.000000000E+00  0.00000E+00  9.000E+00
      21     1     1     2   511   517 -1.354379519E+01 -2.465643164E+00  1.620986994E+01  2.126672678E+01  4.768371582E-07  0.00000E+00  9.000E+00
      21     1     1     2   514   512  7.395871714E+00 -4.391894973E+00  1.302794874E+02  1.305631360E+02  1.907348633E-06  0.00000E+00  9.000E+00
      21     1     1     2   517   513  6.147923471E+00  6.857538138E+00 -1.151804370E+01  1.474747853E+01  2.384185791E-07  0.00000E+00  9.000E+00
</event>
<event>
      5  10001  3.52971E+09  9.85656E+00 -1.00000E+00  1.96481E-01
      21    -1     0     0   511   513  0.000000000E+00  0.000000000E+00  2.143974544E+01  2.143974544E+01  0.000000000E+00  0.00000E+00  9.000E+00
      21    -1     0     0   517   516  0.000000000E+00  0.000000000E+00 -3.003720307E+01  3.003720307E+01  0.000000000E+00  0.00000E+00  9.000E+00
      21     1     1     2   515   516  2.088937955E+01  7.666833366E+00 -6.197871566E+00  2.309892040E+01  5.527507362E-07  0.00000E+00  9.000E+00
      21     1     1     2   517   513 -1.277802415E+01 -1.326662440E+01 -1.506540475E+00  1.848109543E+01  3.885747436E-07  0.00000E+00  9.000E+00
      21     1     1     2   511   515 -8.111355401E+00  5.599791033E+00 -8.930455908E-01  9.896932680E+00  4.712160915E-08  0.00000E+00  9.000E+00
</event>
<event>
      5  10001  3.52971E+09  1.71663E+01 -1.00000E+00  1.72033E-01
      21    -1     0     0   514   513  0.000000000E+00  0.000000000E+00  5.848696695E+02  5.848696695E+02  0.000000000E+00  0.00000E+00  9.000E+00
       4    -1     0     0   513     0  0.000000000E+00  0.000000000E+00 -1.079131677E+01  1.079131677E+01  0.000000000E+00  0.00000E+00  9.000E+00
      21     1     1     2   516   512 -4.505784144E+00  1.344167012E+01  2.764272117E+02  2.767905055E+02  0.000000000E+00  0.00000E+00  9.000E+00
       4     1     1     2   512     0  1.095518154E+01 -1.080797804E+01 -4.914703495E+00  1.622444767E+01  1.500000000E+00  0.00000E+00  9.000E+00
      21     1     1     2   514   516 -6.449397392E+00 -2.633692080E+00  3.025658445E+02  3.026460330E+02  0.000000000E+00  0.00000E+00  9.000E+00
</event>
<event>
      5  10001  3.52971E+09  5.47732E+00 -1.00000E+00  2.31794E-01
       1    -1     0     0   514     0  0.000000000E+00  0.000000000E+00  1.281178308E+02  1.281178308E+02  0.000000000E+00  0.00000E+00  9.000E+00
      21    -1     0     0   513   514  0.000000000E+00  0.000000000E+00 -3.077724297E+01  3.077724297E+01  0.000000000E+00  0.00000E+00  9.000E+00
      21     1     1     2   512   511  5.305582130E+00  1.034394817E+01 -2.624501443E+01  2.870448132E+01  8.259061849E-07  0.00000E+00  9.000E+00
       1     1     1     2   511     0 -9.997208193E+00 -7.517425822E+00  1.240631439E+02  1.246925356E+02  3.300000131E-01  0.00000E+00  9.000E+00
      21     1     1     2   513   512  4.691626063E+00 -2.826522343E+00 -4.775415803E-01  5.498056895E+00  1.187427152E-07  0.00000E+00  9.000E+00
</event>
<event>
      5  10001  3.52971E+09  7.82703E+00 -1.00000E+00  2.08914E-01
      21    -1     0     0   515   511  0.000000000E+00  0.000000000E+00  1.085929624E+02  1.085929624E+02  0.000000000E+00  0.00000E+00  9.000E+00
      21    -1     0     0   513   512  0.000000000E+00  0.000000000E+00 -1.218803182E+02  1.218803182E+02  0.000000000E+00  0.00000E+00  9.000E+00
      21     1     1     2   515   512 -1.298752827E+01  4.243351873E+00 -1.199385942E+02  1.207143252E+02  1.348699152E-06  0.00000E+00  9.000E+00
      21     1     1     2   514   511  1.163713290E+01  2.915558898E+00  9.661705585E+01  9.735902027E+01  1.907348633E-06  0.00000E+00  9.000E+00
      21     1     1     2   513   514  1.350395370E+00 -7.158910771E+00  1.003418262E+01  1.239993516E+01  1.192092896E-07  0.00000E+00  9.000E+00
</event>
<event>
      5  10001  3.52971E+09  7.65475E+00 -1.00000E+00  2.10202E-01
      21    -1     0     0   513   511  0.000000000E+00  0.000000000E+00  5.099580734E+01  5.099580734E+01  0.000000000E+00  0.00000E+00  9.000E+00
       1    -1     0     0   514     0  0.000000000E+00  0.000000000E+00 -9.966378054E+01  9.966378054E+01  0.000000000E+00  0.00000E+00  9.000E+00
      21     1     1     2   514   512 -2.016074671E+00  7.634276486E+00  4.021818210E+01  4.098595986E+01  6.743495762E-07  0.00000E+00  9.000E+00
       1     1     1     2   513     0  8.959005541E+00 -5.816675064E+00 -9.771391885E+01  9.829657332E+01  3.300000131E-01  0.00000E+00  9.000E+00
      21     1     1     2   512   511 -6.942930869E+00 -1.817601422E+00  8.827763559E+00  1.137705469E+01  1.192092896E-07  0.00000E+00  9.000E+00
</event>
<event>
      5  10001  3.52971E+09  5.99506E+00 -1.00000E+00  2.25521E-01
      21    -1     0     0   515   512  0.000000000E+00  0.000000000E+00  1.577163197E+03  1.577163197E+03  0.000000000E+00  0.00000E+00  9.000E+00
      21    -1     0     0   511   515  0.000000000E+00  0.000000000E+00 -8.783688292E-01  8.783688292E-01  0.000000000E+00  0.00000E+00  9.000E+00
      21     1     1     2   511   514  1.252378394E+01  2.576139090E+00  4.779301165E+01  4.947376698E+01  1.507891493E-06  0.00000E+00  9.000E+00
      21     1     1     2   514   513 -9.002134624E+00  2.155409632E+00  1.010769257E+03  1.010811641E+03  1.078959322E-05  0.00000E+00  9.000E+00
      21     1     1     2   513   512 -3.521649314E+00 -4.731548722E+00  5.177225603E+02  5.177561578E+02  7.629394531E-06  0.00000E+00  9.000E+00
</event>
<event>
      5  10001  3.52971E+09  1.18787E+01 -1.00000E+00  1.87489E-01
       1    -1     0     0   515     0  0.000000000E+00  0.000000000E+00  3.319467986E+02  3.319467986E+02  0.000000000E+00  0.00000E+00  9.000E+00
       2    -1     0     0   514     0  0.000000000E+00  0.000000000E+00 -2.509329175E+02  2.509329175E+02  0.000000000E+00  0.00000E+00  9.000E+00
      21     1     1     2   514   513  1.659797195E+01  1.083044803E+00  1.565295794E+01  2.284033168E+01  8.429369702E-07  0.00000E+00  9.000E+00
       1     1     1     2   513     0 -7.429726892E+00 -8.635966578E+00  3.124534698E+02  3.126612552E+02  3.300000131E-01  0.00000E+00  9.000E+00
       2     1     1     2   515     0 -9.168245057E+00  7.552921776E+00 -2.470925466E+02  2.473781293E+02  3.300000131E-01  0.00000E+00  9.000E+00
</event>
<event>
      5  10001  3.52971E+09  9.22039E+00 -1.00000E+00  1.99918E-01
      21    -1     0     0   511   513  0.000000000E+00  0.000000000E+00  1.096896464E+02  1.096896464E+02  0.000000000E+00  0.00000E+00  9.000E+00
      21    -1     0     0   516   512  0.000000000E+00  0.000000000E+00 -8.084897705E+00  8.084897705E+00  0.000000000E+00  0.00000E+00  9.000E+00
      21     1     1     2   511   512  9.591101030E+00 -1.259983464E+01  9.507878226E+01  9.638838046E+01  1.907348633E-06  0.00000E+00  9.000E+00
      21     1     1     2   514   513 -9.958552699E+00  3.386772920E+00  6.092219336E+00  1.215558057E+01  4.842304232E-07  0.00000E+00  9.000E+00
      21     1     1     2   516   514  3.674516690E-01  9.213061716E+00  4.337470788E-01  9.230583050E+00  1.928534971E-07  0.00000E+00  9.000E+00
</event>
<event>
      5  10001  3.52971E+09  5.58668E+00 -1.00000E+00  2.30390E-01
      21    -1     0     0   515   512  0.000000000E+00  0.000000000E+00  2.375656081E+01  2.375656081E+01  0.000000000E+00  0.00000E+00  9.000E+00
      21    -1     0     0   511   517  0.000000000E+00  0.000000000E+00 -9.456784971E+01  9.456784971E+01  0.000000000E+00  0.00000E+00  9.000E+00
      21     1     1     2   515   517  7.612923540E+00 -5.213582339E+00 -1.046658843E+01  1.395304694E+01  4.460403188E-07  0.00000E+00  9.000E+00
      21     1     1     2   516   512 -1.286244368E+01  3.302160023E+00  1.990461700E+01  2.392781845E+01  2.384185791E-07  0.00000E+00  9.000E+00
      21     1     1     2   511   516  5.249520137E+00  1.911422316E+00 -8.024931747E+01  8.044354512E+01  2.132480600E-06  0.00000E+00  9.000E+00
</event>
<event>
      5  10001  3.52971E+09  8.28755E+00 -1.00000E+00  2.05680E-01
      21    -1     0     0   513   512  0.000000000E+00  0.000000000E+00  8.660253956E+02  8.660253956E+02  0.000000000E+00  0.00000E+00  9.000E+00
      21    -1     0     0   511   513  0.000000000E+00  0.000000000E+00 -3.023852830E+00  3.023852830E+00  0.000000000E+00  0.00000E+00  9.000E+00
      21     1     1     2   514   512  1.046691063E+01  1.311440294E+01  8.349797649E+02  8.351483411E+02  1.868812365E-05  0.00000E+00  9.000E+00
      21     1     1     2   511   515 -4.628041854E+00 -3.012177152E+00  2.981382721E+00  6.275398436E+00  5.364418030E-07  0.00000E+00  9.000E+00
      21     1     1     2   515   514 -5.838868776E+00 -1.010222579E+01  2.504039511E+01  2.762550890E+01  3.371747881E-07  0.00000E+00  9.000E+00
</event>
<event>
      5  10001  3.52971E+09  9.87935E+00 -1.00000E+00  1.96364E-01
      21    -1     0     0   516   511  0.000000000E+00  0.000000000E+00  1.101625176E+03  1.101625176E+03  0.000000000E+00  0.00000E+00  9.000E+00
      21    -1     0     0   517   512  0.000000000E+00  0.000000000E+00 -1.545115074E+01  1.545115074E+01  0.000000000E+00  0.00000E+00  9.000E+00
      21     1     1     2   517   514  6.247358527E+00  2.109227974E+01  2.726120608E+01  3.502980317E+01  1.846782373E-06  0.00000E+00  9.000E+00
      21     1     1     2   514   511  9.688296221E-01 -1.434481773E+01  1.068312930E+03  1.068409672E+03  2.157918644E-05  0.00000E+00  9.000E+00
      21     1     1     2   516   512 -7.216188149E+00 -6.747462007E+00 -9.400110858E+00  1.363685078E+01  4.460403188E-07  0.00000E+00  9.000E+00
</event>
<event>
      5  10001  3.52971E+09  4.48409E+00 -1.00000E+00  2.52295E-01
      21    -1     0     0   513   511  0.000000000E+00  0.000000000E+00  1.672441353E+02  1.672441353E+02  0.000000000E+00  0.00000E+00  9.000E+00
      -1    -1     0     0     0   512  0.000000000E+00  0.000000000E+00 -3.917945509E+00  3.917945509E+00  0.000000000E+00  0.00000E+00  9.000E+00
      -1     1     1     2     0   514  1.225119163E+01 -1.233751861E+01  1.899935232E+01  2.575636524E+01  3.300000131E-01  0.00000E+00  9.000E+00
      21     1     1     2   513   512 -1.189629488E+01  1.070680131E+01  1.317922654E+02  1.327605312E+02  0.000000000E+00  0.00000E+00  9.000E+00
      21     1     1     2   514   511 -3.548967496E-01  1.630717303E+00  1.253457204E+01  1.264518433E+01  1.685873940E-07  0.00000E+00  9.000E+00
</event>
<event>
      5  10001  3.52971E+09  3.93558E+00 -1.00000E+00  2.65134E-01
      21    -1     0     0   515   516  0.000000000E+00  0.000000000E+00  1.240258794E+02  1.240258794E+02  0.000000000E+00  0.00000E+00  9.000E+00
      21    -1     0     0   514   511  0.000000000E+00  0.000000000E+00 -1.933268662E+00  1.933268662E+00  0.000000000E+00  0.00000E+00  9.000E+00
      21     1     1     2   515   511  1.157039535E+01  1.750912360E-01  9.930956150E+01  9.998146683E+01  1.907348633E-06  0.00000E+00  9.000E+00
       3     1     1     2   514     0 -8.054596010E+00 -9.739830350E-01  1.929045358E+01  2.093314977E+01  5.000000000E-01  0.00000E+00  9.000E+00
      -3     1     1     2     0   516 -3.515799343E+00  7.988917990E-01  3.492595635E+00  5.044531435E+00  5.000000000E-01  0.00000E+00  9.000E+00
</event>
<event>
      5  10001  3.52971E+09  1.33031E+01 -1.00000E+00  1.82436E-01
      21    -1     0     0   513   514  0.000000000E+00  0.000000000E+00  4.995319042E+01  4.995319042E+01  0.000000000E+00  0.00000E+00  9.000E+00
      -1    -1     0     0     0   513  0.000000000E+00  0.000000000E+00 -9.553774673E+01  9.553774673E+01  0.000000000E+00  0.00000E+00  9.000E+00
      -2     1     1     2     0   514 -1.778109048E+01  1.179453526E+00  4.561439356E+01  4.897285053E+01  3.300000131E-01  0.00000E+00  9.000E+00
       2     1     1     2   512     0  6.261522118E+00 -7.831995994E+00 -9.752109215E+00  1.399140288E+01  3.300000131E-01  0.00000E+00  9.000E+00
      -1     1     1     2     0   512  1.151956836E+01  6.652542468E+00 -8.144684065E+01  8.252668374E+01  3.300000131E-01  0.00000E+00  9.000E+00
</event>
<event>
      5  10001  3.52971E+09  1.12039E+01 -1.00000E+00  1.90213E-01
      21    -1     0     0   511   512  0.000000000E+00  0.000000000E+00  1.734909000E+01  1.734909000E+01  0.000000000E+00  0.00000E+00  9.000E+00
      21    -1     0     0   514   515  0.000000000E+00  0.000000000E+00 -8.950412412E+00  8.950412412E+00  0.000000000E+00  0.00000E+00  9.000E+00
      21     1     1     2   511   515 -8.148952603E+00 -3.090908643E+00  3.878471432E+00  9.539480354E+00  1.685873940E-07  0.00000E+00  9.000E+00
      21     1     1     2   514   513  8.374173546E+00 -2.725599080E+00 -8.407279652E-01  8.846609318E+00  1.089925977E-07  0.00000E+00  9.000E+00
      21     1     1     2   513   512 -2.252209426E-01  5.816507723E+00  5.360934124E+00  7.913412744E+00  5.960464478E-08  0.00000E+00  9.000E+00
</event>
<event>
      5  10001  3.52971E+09  7.39502E+00 -1.00000E+00  2.12233E-01
      21    -1     0     0   516   511  0.000000000E+00  0.000000000E+00  4.193978421E+02  4.193978421E+02  0.000000000E+00  0.00000E+00  9.000E+00
      21    -1     0     0   517   512  0.000000000E+00  0.000000000E+00 -1.749279737E+01  1.749279737E+01  0.000000000E+00  0.00000E+00  9.000E+00
      21     1     1     2   516   512  5.592375496E+00  1.525493699E+01 -7.774141118E+00  1.801180270E+01  2.064765462E-07  0.00000E+00  9.000E+00
      21     1     1     2   517   514 -1.454685465E+00 -9.125838742E+00  1.087966843E-01  9.241692446E+00  1.630905119E-07  0.00000E+00  9.000E+00
      21     1     1     2   514   511 -4.137690032E+00 -6.129098252E+00  4.095703891E+02  4.096371443E+02  9.344061824E-06  0.00000E+00  9.000E+00
</event>
<event>
      5  10001  3.52971E+09  2.01281E+00 -1.00000E+00  3.61766E-01
      21    -1     0     0   513   512  0.000000000E+00  0.000000000E+00  2.227373695E+00  2.227373695E+00  0.000000000E+00  0.00000E+00  9.000E+00
       2    -1     0     0   515     0  0.000000000E+00  0.000000000E+00 -1.397202710E+03  1.397202710E+03  0.000000000E+00  0.00000E+00  9.000E+00
      21     1     1     2   513   511 -6.986949532E-02  1.105795865E+01 -1.594313648E+01  1.940275579E+01  3.769728732E-07  0.00000E+00  9.000E+00
      21     1     1     2   515   512  1.859158026E+00 -1.197979147E+01 -7.346736028E+01  7.446089510E+01  1.348699152E-06  0.00000E+00  9.000E+00
       2     1     1     2   511     0 -1.789288531E+00  9.218328254E-01 -1.305564840E+03  1.305566433E+03  3.300000131E-01  0.00000E+00  9.000E+00
</event>
<event>
      5  10001  3.52971E+09  6.85500E+00 -1.00000E+00  2.16841E-01
      21    -1     0     0   513   516  0.000000000E+00  0.000000000E+00  2.130447344E+02  2.130447344E+02  0.000000000E+00  0.00000E+00  9.000E+00
      -3    -1     0     0     0   514  0.000000000E+00  0.000000000E+00 -2.382458453E+01  2.382458453E+01  0.000000000E+00  0.00000E+00  9.000E+00
      -3     1     1     2     0   512  1.027336212E+00  9.112539194E+00 -2.246769072E+01  2.427222521E+01  5.000000000E-01  0.00000E+00  9.000E+00
      21     1     1     2   512   516  5.704879305E+00 -1.040371267E+01  1.004687143E+02  1.011669187E+02  1.907348633E-06  0.00000E+00  9.000E+00
      21     1     1     2   513   514 -6.732215517E+00  1.291173480E+00  1.112191263E+02  1.114301750E+02  0.000000000E+00  0.00000E+00  9.000E+00
</event>
<event>
      5  10001  3.52971E+09  1.43241E+01 -1.00000E+00  1.79287E-01
      21    -1     0     0   511   515  0.000000000E+00  0.000000000E+00  1.852010198E+02  1.852010198E+02  0.000000000E+00  0.00000E+00  9.000E+00
       2    -1     0     0   516     0  0.000000000E+00  0.000000000E+00 -9.242795769E+00  9.242795769E+00  0.000000000E+00  0.00000E+00  9.000E+00
      21     1     1     2   512   515  6.982542126E-01  1.396316073E+01  1.493806554E+02  1.500334550E+02  2.697398305E-06  0.00000E+00  9.000E+00
       2     1     1     2   511     0  1.358604160E+01 -1.290051256E+01  6.679444336E+00  1.989290394E+01  3.300000131E-01  0.00000E+00  9.000E+00
      21     1     1     2   516   512 -1.428429581E+01 -1.062648170E+00  1.989812426E+01  2.451745658E+01  3.371747881E-07  0.00000E+00  9.000E+00
</event>
<event>
      5  10001  3.52971E+09  2.17580E+01 -1.00000E+00  1.63402E-01
      21    -1     0     0   512   513  0.000000000E+00  0.000000000E+00  6.086100576E+01  6.086100576E+01  0.000000000E+00  0.00000E+00  9.000E+00
      21    -1     0     0   513   511  0.000000000E+00  0.000000000E+00 -7.166009609E+00  7.166009609E+00  0.000000000E+00  0.00000E+00  9.000E+00
      -5     1     1     2     0   514 -4.144060085E+00 -3.911022927E+00 -8.892579615E-01  7.503340314E+00  4.800000191E+00  0.00000E+00  9.000E+00
       5     1     1     2   512     0  1.663035512E+00  1.419322570E+01  2.612497349E+01  3.016235376E+01  4.800000191E+00  0.00000E+00  9.000E+00
      21     1     1     2   514   511  2.481024573E+00 -1.028220278E+01  2.845928063E+01  3.036132129E+01  5.840038640E-07  0.00000E+00  9.000E+00
</event>
<event>
      5  10001  3.52971E+09  4.84093E+00 -1.00000E+00  2.45351E-01
      21    -1     0     0   515   511  0.000000000E+00  0.000000000E+00  6.005026740E+01  6.005026740E+01  0.000000000E+00  0.00000E+00  9.000E+00
      21    -1     0     0   513   516  0.000000000E+00  0.000000000E+00 -1.566677760E+02  1.566677760E+02  0.000000000E+00  0.00000E+00  9.000E+00
      21     1     1     2   515   516  1.493699547E+01  5.898845222E+00  5.792363194E+01  6.010871273E+01  0.000000000E+00  0.00000E+00  9.000E+00
      21     1     1     2   512   511 -1.042554568E+01 -7.054029754E+00 -1.482428283E+02  1.487763001E+02  2.697398305E-06  0.00000E+00  9.000E+00
      21     1     1     2   513   512 -4.511449788E+00  1.155184531E+00 -6.298312236E+00  7.833030545E+00  0.000000000E+00  0.00000E+00  9.000E+00
</event>
<event>
      5  10001  3.52971E+09  6.86699E+00 -1.00000E+00  2.16732E-01
      21    -1     0     0   514   512  0.000000000E+00  0.000000000E+00  2.718012071E+01  2.718012071E+01  0.000000000E+00  0.00000E+00  9.000E+00
      21    -1     0     0   513   517  0.000000000E+00  0.000000000E+00 -2.589363821E+01  2.589363821E+01  0.000000000E+00  0.00000E+00  9.000E+00
      21     1     1     2   514   517  3.344569591E+00  1.155318978E+01  2.257296447E+01  2.557735453E+01  0.000000000E+00  0.00000E+00  9.000E+00
      21     1     1     2   511   512  1.446561955E+00 -7.672666859E+00 -1.960973822E+01  2.110697020E+01  7.152557373E-07  0.00000E+00  9.000E+00
      21     1     1     2   513   511 -4.791131546E+00 -3.880522916E+00 -1.676743757E+00  6.389434186E+00  1.576990671E-07  0.00000E+00  9.000E+00
</event>
<event>
      5  10001  3.52971E+09  2.07376E+00 -1.00000E+00  3.55873E-01
      21    -1     0     0   515   512  0.000000000E+00  0.000000000E+00  2.741014373E+01  2.741014373E+01  0.000000000E+00  0.00000E+00  9.000E+00
      21    -1     0     0   513   515  0.000000000E+00  0.000000000E+00 -4.735171779E+01  4.735171779E+01  0.000000000E+00  0.00000E+00  9.000E+00
      21     1     1     2   513   516  5.689416570E+00 -1.108518523E+01 -4.087602540E+01  4.273289418E+01  4.768371582E-07  0.00000E+00  9.000E+00
      21     1     1     2   516   511 -3.873720768E+00  1.208704566E+01  1.843587621E+00  1.282580215E+01  3.526258339E-07  0.00000E+00  9.000E+00
      21     1     1     2   511   512 -1.815695802E+00 -1.001860433E+00  1.909086372E+01  1.920316519E+01  3.371747881E-07  0.00000E+00  9.000E+00
</event>
<event>
      5  10001  3.52971E+09  7.07285E+00 -1.00000E+00  2.14914E-01
      21    -1     0     0   513   511  0.000000000E+00  0.000000000E+00  1.008102598E+01  1.008102598E+01  0.000000000E+00  0.00000E+00  9.000E+00
      21    -1     0     0   512   514  0.000000000E+00  0.000000000E+00 -2.698629179E+02  2.698629179E+02  0.000000000E+00  0.00000E+00  9.000E+00
      21     1     1     2   517   511  3.079514778E+00 -2.359987183E+01 -2.038207725E+01  3.133474803E+01  3.371747881E-07  0.00000E+00  9.000E+00
      21     1     1     2   512   517 -4.765265209E+00  1.673084868E+01 -2.407760643E+02  2.414036913E+02  3.814697266E-06  0.00000E+00  9.000E+00
      21     1     1     2   513   514  1.685750431E+00  6.869023145E+00  1.376249549E+00  7.205504584E+00  1.290478414E-07  0.00000E+00  9.000E+00
</event>
<event>
      5  10001  3.52971E+09  8.51451E+00 -1.00000E+00  2.04188E-01
      21    -1     0     0   515   511  0.000000000E+00  0.000000000E+00  1.951262676E+03  1.951262676E+03  0.000000000E+00  0.00000E+00  9.000E+00
      21    -1     0     0   516   515  0.000000000E+00  0.000000000E+00 -1.713206840E-01  1.713206840E-01  0.000000000E+00  0.00000E+00  9.000E+00
      21     1     1     2   516   514  3.404220623E+00  1.304340062E+01  3.819350017E+02  3.821728202E+02  9.344061824E-06  0.00000E+00  9.000E+00
      21     1     1     2   514   512 -7.487955512E-01 -7.347425071E+00  1.335213363E+03  1.335233788E+03  0.000000000E+00  0.00000E+00  9.000E+00
      21     1     1     2   512   511 -2.655425072E+00 -5.695975546E+00  2.339429907E+02  2.340273880E+02  3.814697266E-06  0.00000E+00  9.000E+00
</event>
<event>
      5  10001  3.52971E+09  2.05299E+01 -1.00000E+00  1.65434E-01
      21    -1     0     0   512   511  0.000000000E+00  0.000000000E+00  3.084906917E+01  3.084906917E+01  0.000000000E+00  0.00000E+00  9.000E+00
      21    -1     0     0   511   513  0.000000000E+00  0.000000000E+00 -5.371027705E+00  5.371027705E+00  0.000000000E+00  0.00000E+00  9.000E+00
      -4     1     1     2     0   513 -5.744714016E+00 -5.229343151E+00  8.748491803E+00  1.179550244E+01  1.500000000E+00  0.00000E+00  9.000E+00
       4     1     1     2   514     0  2.476745630E+00 -3.530157318E+00  1.393907497E+01  1.466779092E+01  1.500000000E+00  0.00000E+00  9.000E+00
      21     1     1     2   512   514  3.267968386E+00  8.759500469E+00  2.790474697E+00  9.756803517E+00  2.682209015E-07  0.00000E+00  9.000E+00
</event>
<event>
      5  10001  3.52971E+09  3.34060E+00 -1.00000E+00  2.83370E-01
      -1    -1     0     0     0   513  0.000000000E+00  0.000000000E+00  6.614852188E+00  6.614852188E+00  0.000000000E+00  0.00000E+00  9.000E+00
      21    -1     0     0   515   512  0.000000000E+00  0.000000000E+00 -4.936207931E+01  4.936207931E+01  0.000000000E+00  0.00000E+00  9.000E+00
      -1     1     1     2     0   511 -6.030704911E+00 -1.026074121E+01 -2.053903245E+01  2.374053423E+01  3.300000131E-01  0.00000E+00  9.000E+00
      21     1     1     2   511   512  3.504637705E+00  8.075354099E+00 -2.584225470E+01  2.730047540E+01  5.840038640E-07  0.00000E+00  9.000E+00
      21     1     1     2   515   513  2.526067206E+00  2.185387106E+00  3.634060026E+00  4.935921860E+00  1.332800375E-07  0.00000E+00  9.000E+00
</event>
<event>
      5  10001  3.52971E+09  8.28672E+00 -1.00000E+00  2.05686E-01
      21    -1     0     0   512   511  0.000000000E+00  0.000000000E+00  1.343507607E+00  1.343507607E+00  0.000000000E+00  0.00000E+00  9.000E+00
      21    -1     0     0   515   513  0.000000000E+00  0.000000000E+00 -3.653910151E+02  3.653910151E+02  0.000000000E+00  0.00000E+00  9.000E+00
      21     1     1     2   514   513 -8.797356454E+00  1.101065288E+01 -6.041883754E+01  6.204082436E+01  1.507891493E-06  0.00000E+00  9.000E+00
      21     1     1     2   515   511  9.903559339E-01 -8.232066004E+00 -2.674350141E+02  2.675635148E+02  0.000000000E+00  0.00000E+00  9.000E+00
      21     1     1     2   512   514  7.807000520E+00 -2.778586877E+00 -3.619365588E+01  3.713018352E+01  4.768371582E-07  0.00000E+00  9.000E+00
</event>
<event>
      5  10001  3.52971E+09  1.43443E+01 -1.00000E+00  1.79228E-01
      21    -1     0     0   516   513  0.000000000E+00  0.000000000E+00  7.030156748E+01  7.030156748E+01  0.000000000E+00  0.00000E+00  9.000E+00
      21    -1     0     0   517   514  0.000000000E+00  0.000000000E+00 -2.774201409E+02  2.774201409E+02  0.000000000E+00  0.00000E+00  9.000E+00
      21     1     1     2   516   514  1.667844233E+01 -2.002575904E+00 -2.748205200E+02  2.753334324E+02  3.814697266E-06  0.00000E+00  9.000E+00
      21     1     1     2   517   511 -7.277801299E+00 -7.231476427E+00  4.485711141E+01  4.601544401E+01  3.053247565E-06  0.00000E+00  9.000E+00
      21     1     1     2   511   513 -9.400641036E+00  9.234052330E+00  2.284483518E+01  2.637283202E+01  1.784161275E-06  0.00000E+00  9.000E+00
</event>
<event>
      5  10001  3.52971E+09  5.46317E+00 -1.00000E+00  2.31979E-01
      21    -1     0     0   512   513  0.000000000E+00  0.000000000E+00  6.542097411E-01  6.542097411E-01  0.000000000E+00  0.00000E+00  9.000E+00
       2    -1     0     0   513     0  0.000000000E+00  0.000000000E+00 -5.733720905E+02  5.733720905E+02  0.000000000E+00  0.00000E+00  9.000E+00
      21     1     1     2   512   514  3.671135288E+00 -1.212224021E+00 -1.354577507E+01  1.408668675E+01  4.768371582E-07  0.00000E+00  9.000E+00
       2     1     1     2   511     0 -1.029118155E+01  6.993339509E+00 -4.963120634E+02  4.964681142E+02  3.300000131E-01  0.00000E+00  9.000E+00
      21     1     1     2   514   511  6.620046262E+00 -5.781115488E+00 -6.286004225E+01  6.347149928E+01  1.168007728E-06  0.00000E+00  9.000E+00
</event>
<event>
      5  10001  3.52971E+09  6.75602E+00 -1.00000E+00  2.17749E-01
      21    -1     0     0   515   511  0.000000000E+00  0.000000000E+00  2.716595092E+00  2.716595092E+00  0.000000000E+00  0.00000E+00  9.000E+00
      21    -1     0     0   513   512  0.000000000E+00  0.000000000E+00 -2.479394195E+02  2.479394195E+02  0.000000000E+00  0.00000E+00  9.000E+00
      21     1     1     2   513   516 -3.011858232E+00 -1.250863997E+01 -1.772864547E+02  1.777527057E+02  2.697398305E-06  0.00000E+00  9.000E+00
      21     1     1     2   516   511 -2.264368473E+00  8.289021968E+00 -5.722916705E+00  1.032409925E+01  1.192092896E-07  0.00000E+00  9.000E+00
      21     1     1     2   515   512  5.276226705E+00  4.219618001E+00 -6.221345300E+01  6.257920964E+01  6.743495762E-07  0.00000E+00  9.000E+00
</event>
<event>
      5  10001  3.52971E+09  3.20726E+00 -1.00000E+00  2.88323E-01
      21    -1     0     0   514   511  0.000000000E+00  0.000000000E+00  1.071676780E+02  1.071676780E+02  0.000000000E+00  0.00000E+00  9.000E+00
       4    -1     0     0   515     0  0.000000000E+00  0.000000000E+00 -2.029187633E+00  2.029187633E+00  0.000000000E+00  0.00000E+00  9.000E+00
      21     1     1     2   515   511  6.870627655E+00  6.837738341E+00  8.879003083E+01  8.931757814E+01  1.651812370E-06  0.00000E+00  9.000E+00
       4     1     1     2   513     0 -5.893376082E+00 -3.364566400E+00  7.024540122E+00  9.881616904E+00  1.500000000E+00  0.00000E+00  9.000E+00
      21     1     1     2   514   513 -9.772515735E-01 -3.473171941E+00  9.323919421E+00  9.997670596E+00  1.192092896E-07  0.00000E+00  9.000E+00
</event>
<event>
      5  10001  3.52971E+09  6.23597E+00 -1.00000E+00  2.22895E-01
       1    -1     0     0   512     0  0.000000000E+00  0.000000000E+00  1.240803405E+03  1.240803405E+03  0.000000000E+00  0.00000E+00  9.000E+00
      21    -1     0     0   511   516  0.000000000E+00  0.000000000E+00 -5.519249935E+01  5.519249935E+01  0.000000000E+00  0.00000E+00  9.000E+00
      21     1     1     2   512   516 -8.040946232E+00 -7.502763744E+00  2.249027767E+01  2.503519262E+01  5.331201500E-07  0.00000E+00  9.000E+00
      21     1     1     2   511   513  1.131405737E+01  2.194842652E+00 -5.329609231E+01  5.452796241E+01  9.536743164E-07  0.00000E+00  9.000E+00
       1     1     1     2   513     0 -3.273111133E+00  5.307921092E+00  1.216416720E+03  1.216432749E+03  3.300000131E-01  0.00000E+00  9.000E+00
</event>
<event>
      5  10001  3.52971E+09  3.51996E+00 -1.00000E+00  2.77269E-01
       1    -1     0     0   512     0  0.000000000E+00  0.000000000E+00  2.258655418E+01  2.258655418E+01  0.000000000E+00  0.00000E+00  9.000E+00
       3    -1     0     0   511     0  0.000000000E+00  0.000000000E+00 -1.035720041E+02  1.035720041E+02  0.000000000E+00  0.00000E+00  9.000E+00
       1     1     1     2   513     0  1.386668203E+01 -2.198753287E+01  1.155488901E+01  2.844926769E+01  3.300000131E-01  0.00000E+00  9.000E+00
       3     1     1     2   512     0 -1.186107588E+01  2.488005563E+01 -8.556537364E+01  8.989652638E+01  5.000000000E-01  0.00000E+00  9.000E+00
      21     1     1     2   511   513 -2.005606147E+00 -2.892522762E+00 -6.974965309E+00  7.812764236E+00  8.429369702E-08  0.00000E+00  9.000E+00
</event>
<event>
      5  10001  3.52971E+09  5.63360E+00 -1.00000E+00  2.29801E-01
      21    -1     0     0   514   513  0.000000000E+00  0.000000000E+00  3.099597679E+02  3.099597679E+02  0.000000000E+00  0.00000E+00  9.000E+00
      21    -1     0     0   511   512  0.000000000E+00  0.000000000E+00 -1.196647979E+02  1.196647979E+02  0.000000000E+00  0.00000E+00  9.000E+00
      21     1     1     2   515   513  4.084905028E+00 -1.257337262E+01  3.091526605E+02  3.094352010E+02  6.607249480E-06  0.00000E+00  9.000E+00
      21     1     1     2   511   515 -3.011018351E+00  7.043077457E+00 -2.463346104E+01  2.579687141E+01  4.768371582E-07  0.00000E+00  9.000E+00
      21     1     1     2   514   512 -1.073886677E+00  5.530295163E+00 -9.422422941E+01  9.439249337E+01  1.348699152E-06  0.00000E+00  9.000E+00
</event>
<event>
      5  10001  3.52971E+09  1.12419E+01 -1.00000E+00  1.90054E-01
      21    -1     0     0   516   511  0.000000000E+00  0.000000000E+00  3.076631896E+02  3.076631896E+02  0.000000000E+00  0.00000E+00  9.000E+00
      21    -1     0     0   513   517  0.000000000E+00  0.000000000E+00 -5.282671860E-01  5.282671860E-01  0.000000000E+00  0.00000E+00  9.000E+00
      21     1     1     2   516   517 -1.051822025E+01 -2.201519523E-01  7.919114815E+01  7.988691614E+01  0.000000000E+00  0.00000E+00  9.000E+00
      21     1     1     2   513   515  3.675984191E+00 -8.959405560E-01  2.976069691E+01  3.000024416E+01  4.768371582E-07  0.00000E+00  9.000E+00
      21     1     1     2   515   511  6.842236055E+00  1.116092508E+00  1.981830774E+02  1.983042965E+02  2.697398305E-06  0.00000E+00  9.000E+00
</event>
<event>
      5  10001  3.52971E+09  2.41125E+01 -1.00000E+00  1.59933E-01
      -3    -1     0     0     0   511  0.000000000E+00  0.000000000E+00  1.299424996E+02  1.299424996E+02  0.000000000E+00  0.00000E+00  9.000E+00
      21    -1     0     0   512   514  0.000000000E+00  0.000000000E+00 -1.484092452E+01  1.484092452E+01  0.000000000E+00  0.00000E+00  9.000E+00
      -3     1     1     2     0   513  3.277539451E+00  1.437998658E+01  1.008041685E+02  1.018786370E+02  5.000000000E-01  0.00000E+00  9.000E+00
      21     1     1     2   512   511 -1.283177429E+01 -2.364892169E+01  7.361909026E+00  2.789486751E+01  5.900558792E-07  0.00000E+00  9.000E+00
      21     1     1     2   513   514  9.554234836E+00  9.268935112E+00  6.935497505E+00  1.500991962E+01  4.298152060E-07  0.00000E+00  9.000E+00
</event>
<event>
      5  10001  3.52971E+09  1.74506E+01 -1.00000E+00  1.71405E-01
      21    -1     0     0   515   512  0.000000000E+00  0.000000000E+00  1.390805954E+02  1.390805954E+02  0.000000000E+00  0.00000E+00  9.000E+00
      21    -1     0     0   513   516  0.000000000E+00  0.000000000E+00 -3.292695346E+00  3.292695346E+00  0.000000000E+00  0.00000E+00  9.000E+00
      21     1     1     2   515   516  1.044213077E+01  2.053788988E+00  9.394010872E+01  9.454099730E+01  1.348699152E-06  0.00000E+00  9.000E+00
      21     1     1     2   513   511 -4.064112966E-01 -6.398238350E+00  2.317328481E+00  6.817084085E+00  3.153981341E-07  0.00000E+00  9.000E+00
      21     1     1     2   511   512 -1.003571947E+01  4.344449363E+00  3.953046288E+01  4.101520939E+01  4.768371582E-07  0.00000E+00  9.000E+00
</event>
<event>
      5  10001  3.52971E+09  1.03194E+01 -1.00000E+00  1.94187E-01
      21    -1     0     0   513   512  0.000000000E+00  0.000000000E+00  5.657235294E+00  5.657235294E+00  0.000000000E+00  0.00000E+00  9.000E+00
       1    -1     0     0   514     0  0.000000000E+00  0.000000000E+00 -1.137365118E+03  1.137365118E+03  0.000000000E+00  0.00000E+00  9.000E+00
      21     1     1     2   513   511  8.927589958E+00  2.450842299E+01 -2.725035482E+01  3.772196307E+01  2.431401974E-06  0.00000E+00  9.000E+00
       1     1     1     2   511     0 -1.502466203E+01 -1.618283394E+01 -1.016454945E+03  1.016694835E+03  3.300000131E-01  0.00000E+00  9.000E+00
      21     1     1     2   514   512  6.097072075E+00 -8.325589049E+00 -8.800258371E+01  8.860555547E+01  1.348699152E-06  0.00000E+00  9.000E+00
</event>
<event>
      5  10001  3.52971E+09  5.19114E+00 -1.00000E+00  2.35697E-01
      21    -1     0     0   516   512  0.000000000E+00  0.000000000E+00  1.991728724E+02  1.991728724E+02  0.000000000E+00  0.00000E+00  9.000E+00
      21    -1     0     0   515   516  0.000000000E+00  0.000000000E+00 -3.022248199E+00  3.022248199E+00  0.000000000E+00  0.00000E+00  9.000E+00
      -2     1     1     2     0   512 -9.367098948E+00  5.983983754E+00  1.831611006E+02  1.834983605E+02  3.300000131E-01  0.00000E+00  9.000E+00
       2     1     1     2   511     0  7.305753859E+00 -7.355390682E+00  1.237267743E+01  1.614521162E+01  3.300000131E-01  0.00000E+00  9.000E+00
      21     1     1     2   515   511  2.061345090E+00  1.371406928E+00  6.168460968E-01  2.551548480E+00  7.450580597E-08  0.00000E+00  9.000E+00
</event>
<event>
      5  10001  3.52971E+09  6.38855E+00 -1.00000E+00  2.21315E-01
      21    -1     0     0   513   515  0.000000000E+00  0.000000000E+00  2.550776098E+01  2.550776098E+01  0.000000000E+00  0.00000E+00  9.000E+00
      21    -1     0     0   514   512  0.000000000E+00  0.000000000E+00 -5.230344007E+01  5.230344007E+01  0.000000000E+00  0.00000E+00  9.000E+00
      21     1     1     2   511   515  5.183262037E+00  7.209151883E+00  2.249348766E+01  2.418253633E+01  5.331201500E-07  0.00000E+00  9.000E+00
      21     1     1     2   514   511 -5.760732282E+00 -1.357154723E+01 -3.413956457E+01  3.718713217E+01  4.768371582E-07  0.00000E+00  9.000E+00
      21     1     1     2   513   512  5.774702453E-01  6.362395344E+00 -1.514960218E+01  1.644153255E+01  1.685873940E-07  0.00000E+00  9.000E+00
</event>
<event>
      5  10001  3.52971E+09  8.95125E+00 -1.00000E+00  2.01484E-01
      21    -1     0     0   516   514  0.000000000E+00  0.000000000E+00  9.879200677E+00  9.879200677E+00  0.000000000E+00  0.00000E+00  9.000E+00
       1    -1     0     0   511     0  0.000000000E+00  0.000000000E+00 -6.821864386E+01  6.821864386E+01  0.000000000E+00  0.00000E+00  9.000E+00
      21     1     1     2   513   514  1.766554454E-01  8.308209909E+00  2.563743003E+00  8.696570429E+00  6.664001875E-08  0.00000E+00  9.000E+00
       1     1     1     2   516     0  3.575749245E+00 -1.643436724E+01 -1.470265991E+01  2.234169907E+01  3.300000131E-01  0.00000E+00  9.000E+00
      21     1     1     2   511   513 -3.752404690E+00  8.126157329E+00 -4.620052627E+01  4.705957503E+01  6.743495762E-07  0.00000E+00  9.000E+00
</event>
<event>
      5  10001  3.52971E+09  6.24290E+00 -1.00000E+00  2.22822E-01
      21    -1     0     0   512   513  0.000000000E+00  0.000000000E+00  7.484388118E+02  7.484388118E+02  0.000000000E+00  0.00000E+00  9.000E+00
      21    -1     0     0   514   512  0.000000000E+00  0.000000000E+00 -7.763606384E+01  7.763606384E+01  0.000000000E+00  0.00000E+00  9.000E+00
      21     1     1     2   515   513 -1.309047878E+01  6.727504693E+00  7.001010710E+02  7.002557601E+02  2.018548058E-05  0.00000E+00  9.000E+00
      21     1     1     2   511   515  8.585714949E+00 -2.405357872E+00  4.772118671E+01  4.854700721E+01  6.743495762E-07  0.00000E+00  9.000E+00
      21     1     1     2   514   511  4.504763832E+00 -4.322146821E+00 -7.701950973E+01  7.727210835E+01  9.536743164E-07  0.00000E+00  9.000E+00
</event>
<event>
      5  10001  3.52971E+09  5.49857E+00 -1.00000E+00  2.31517E-01
      21    -1     0     0   511   513  0.000000000E+00  0.000000000E+00  2.936542166E+01  2.936542166E+01  0.000000000E+00  0.00000E+00  9.000E+00
       2    -1     0     0   513     0  0.000000000E+00  0.000000000E+00 -4.307082121E+01  4.307082121E+01  0.000000000E+00  0.00000E+00  9.000E+00
      21     1     1     2   512   514  6.681528410E+00  2.857166281E+00  2.293638400E+01  2.406000690E+01  5.840038640E-07  0.00000E+00  9.000E+00
       2     1     1     2   514     0 -7.462929835E+00 -8.468212944E+00 -4.015335115E+01  4.171098729E+01  3.300000131E-01  0.00000E+00  9.000E+00
      21     1     1     2   511   512  7.814014247E-01  5.611046662E+00  3.511567603E+00  6.665248672E+00  1.837138534E-07  0.00000E+00  9.000E+00
</event>
<event>
      5  10001  3.52971E+09  4.50423E+00 -1.00000E+00  2.51877E-01
      21    -1     0     0   515   514  0.000000000E+00  0.000000000E+00  3.668710410E+01  3.668710410E+01  0.000000000E+00  0.00000E+00  9.000E+00
      21    -1     0     0   513   515  0.000000000E+00  0.000000000E+00 -4.079573951E+01  4.079573951E+01  0.000000000E+00  0.00000E+00  9.000E+00
      21     1     1     2   516   512 -1.266769082E+01 -2.801634025E+00  1.350780387E+01  1.872912997E+01  4.768371582E-07  0.00000E+00  9.000E+00
      21     1     1     2   513   516  9.139005378E+00  2.264182185E-03 -3.738123305E+01  3.848217781E+01  4.768371582E-07  0.00000E+00  9.000E+00
      21     1     1     2   512   514  3.528685444E+00  2.799369843E+00  1.976479377E+01  2.027153584E+01  4.768371582E-07  0.00000E+00  9.000E+00
</event>
<event>
      5  10001  3.52971E+09  2.65988E+00 -1.00000E+00  3.13671E-01
      -2    -1     0     0     0   511  0.000000000E+00  0.000000000E+00  1.036574456E+01  1.036574456E+01  0.000000000E+00  0.00000E+00  9.000E+00
      21    -1     0     0   513   515  0.000000000E+00  0.000000000E+00 -7.226841993E+01  7.226841993E+01  0.000000000E+00  0.00000E+00  9.000E+00
      -2     1     1     2     0   515 -5.244354797E-01 -1.451894896E+01 -2.741224416E+00  1.478844558E+01  3.300000131E-01  0.00000E+00  9.000E+00
      21     1     1     2   514   511 -1.056198597E+00  1.665807288E+01 -1.187539713E+01  2.048492139E+01  0.000000000E+00  0.00000E+00  9.000E+00
      21     1     1     2   513   514  1.580634077E+00 -2.139123921E+00 -4.728605382E+01  4.736079752E+01  0.000000000E+00  0.00000E+00  9.000E+00
</event>
<event>
      5  10001  3.52971E+09  7.10972E+00 -1.00000E+00  2.14598E-01
      21    -1     0     0   512   514  0.000000000E+00  0.000000000E+00  1.728379254E+01  1.728379254E+01  0.000000000E+00  0.00000E+00  9.000E+00
      21    -1     0     0   513   516  0.000000000E+00  0.000000000E+00 -1.164532876E+02  1.164532876E+02  0.000000000E+00  0.00000E+00  9.000E+00
      21     1     1     2   512   516 -6.748288355E+00 -1.122826624E+01  1.377393922E+01  1.900880744E+01  7.539457465E-07  0.00000E+00  9.000E+00
      21     1     1     2   513   511  4.843269703E-01  8.539864313E+00 -9.716003758E+01  9.753582295E+01  1.348699152E-06  0.00000E+00  9.000E+00
      21     1     1     2   511   514  6.263961384E+00  2.688401930E+00 -1.578339668E+01  1.719244973E+01  2.384185791E-07  0.00000E+00  9.000E+00
</event>
<event>
      5  10001  3.52971E+09  4.19997E+00 -1.00000E+00  2.58568E-01
      -3    -1     0     0     0   513  0.000000000E+00  0.000000000E+00  3.355960099E+01  3.355960099E+01  0.000000000E+00  0.00000E+00  9.000E+00
      21    -1     0     0   517   514  0.000000000E+00  0.000000000E+00 -2.035537686E+01  2.035537686E+01  0.000000000E+00  0.00000E+00  9.000E+00
      21     1     1     2   515   514  9.590869006E+00  2.201530169E+00 -1.275060578E+01  1.610619294E+01  1.685873940E-07  0.00000E+00  9.000E+00
      21     1     1     2   517   513 -1.354119652E+01 -3.626326843E+00  2.830931591E+00  1.430134340E+01  4.020553101E-07  0.00000E+00  9.000E+00
      -3     1     1     2     0   515  3.950327511E+00  1.424796674E+00  2.312389831E+01  2.350744151E+01  5.000000000E-01  0.00000E+00  9.000E+00
</event>
<event>
      5  10001  3.52971E+09  7.16994E+00 -1.00000E+00  2.14086E-01
       1    -1     0     0   511     0  0.000000000E+00  0.000000000E+00  5.333306065E+02  5.333306065E+02  0.000000000E+00  0.00000E+00  9.000E+00
      21    -1     0     0   512   511  0.000000000E+00  0.000000000E+00 -5.480004858E+02  5.480004858E+02  0.000000000E+00  0.00000E+00  9.000E+00
      21     1     1     2   512   515  8.951878239E+00  3.494908007E-02 -5.476154448E+02  5.476886093E+02  7.629394531E-06  0.00000E+00  9.000E+00
      21     1     1     2   515   514 -1.601470973E+01  1.199683971E+00  4.724100031E+02  4.726828971E+02  7.629394531E-06  0.00000E+00  9.000E+00
       1     1     1     2   514     0  7.062831490E+00 -1.234633051E+00  6.053556243E+01  6.095958601E+01  3.300000131E-01  0.00000E+00  9.000E+00
</event>
<event>
      5  10001  3.52971E+09  4.58819E+00 -1.00000E+00  2.50171E-01
      21    -1     0     0   513   515  0.000000000E+00  0.000000000E+00  2.303625639E+01  2.303625639E+01  0.000000000E+00  0.00000E+00  9.000E+00
      21    -1     0     0   512   516  0.000000000E+00  0.000000000E+00 -2.489697075E+01  2.489697075E+01  0.000000000E+00  0.00000E+00  9.000E+00
      21     1     1     2   513   516 -9.173280082E-01 -1.127982426E+01  1.992524990E+01  2.291487529E+01  3.371747881E-07  0.00000E+00  9.000E+00
      21     1     1     2   511   515 -1.605419463E+00  4.915505300E+00 -1.208614871E+01  1.314589497E+01  2.384185791E-07  0.00000E+00  9.000E+00
      21     1     1     2   512   511  2.522747472E+00  6.364318965E+00 -9.699815546E+00  1.187245688E+01  0.000000000E+00  0.00000E+00  9.000E+00
</event>
<event>
      5  10001  3.52971E+09  6.03826E+00 -1.00000E+00  2.25038E-01
      21    -1     0     0   514   511  0.000000000E+00  0.000000000E+00  2.639016417E+01  2.639016417E+01  0.000000000E+00  0.00000E+00  9.000E+00
      21    -1     0     0   512   517  0.000000000E+00  0.000000000E+00 -7.263395196E+00  7.263395196E+00  0.000000000E+00  0.00000E+00  9.000E+00
      21     1     1     2   514   517 -9.212957559E+00  1.948571112E+00 -7.321464834E-01  9.445186861E+00  1.652618722E-07  0.00000E+00  9.000E+00
      21     1     1     2   513   511  6.274445484E+00 -2.859475399E-01  1.986268241E+01  2.083210466E+01  4.129530925E-07  0.00000E+00  9.000E+00
      21     1     1     2   512   513  2.938512075E+00 -1.662623573E+00 -3.766953662E-03  3.376267843E+00  5.072688278E-08  0.00000E+00  9.000E+00
</event>
<event>
      5  10001  3.52971E+09  6.99694E+00 -1.00000E+00  2.15575E-01
      21    -1     0     0   515   513  0.000000000E+00  0.000000000E+00  8.154477481E+01  8.154477481E+01  0.000000000E+00  0.00000E+00  9.000E+00
      21    -1     0     0   512   516  0.000000000E+00  0.000000000E+00 -2.229110901E+00  2.229110901E+00  0.000000000E+00  0.00000E+00  9.000E+00
      21     1     1     2   515   516  8.416318471E+00  7.123861201E+00  1.775223500E+01  2.089798226E+01  2.384185791E-07  0.00000E+00  9.000E+00
      21     1     1     2   512   511 -5.951182011E+00 -8.339363469E-01  2.747920268E+01  2.812860816E+01  4.768371582E-07  0.00000E+00  9.000E+00
      21     1     1     2   511   513 -2.465136460E+00 -6.289924854E+00  3.408422622E+01  3.474729529E+01  4.768371582E-07  0.00000E+00  9.000E+00
</event>
<event>
      5  10001  3.52971E+09  1.23503E+01 -1.00000E+00  1.85720E-01
      21    -1     0     0   511   512  0.000000000E+00  0.000000000E+00  1.251927577E+01  1.251927577E+01  0.000000000E+00  0.00000E+00  9.000E+00
      -1    -1     0     0     0   514  0.000000000E+00  0.000000000E+00 -1.500142500E+01  1.500142500E+01  0.000000000E+00  0.00000E+00  9.000E+00
      21     1     1     2   515   512  4.983592976E+00  1.239159183E+00  8.661683874E-01  5.207875008E+00  1.698993780E-07  0.00000E+00  9.000E+00
      21     1     1     2   511   514 -1.010956336E+01  1.334023204E+00  5.634209945E+00  1.165020219E+01  1.884864366E-07  0.00000E+00  9.000E+00
      -1     1     1     2     0   515  5.125970386E+00 -2.573182387E+00 -8.982527568E+00  1.066262358E+01  3.300000131E-01  0.00000E+00  9.000E+00
</event>
<event>
      5  10001  3.52971E+09  7.14421E+00 -1.00000E+00  2.14304E-01
      21    -1     0     0   513   512  0.000000000E+00  0.000000000E+00  1.429056787E+02  1.429056787E+02  0.000000000E+00  0.00000E+00  9.000E+00
      21    -1     0     0   516   513  0.000000000E+00  0.000000000E+00 -6.982646373E+01  6.982646373E+01  0.000000000E+00  0.00000E+00  9.000E+00
      21     1     1     2   516   515  2.558757305E+00 -1.130833470E+01 -6.901002523E+01  6.997720525E+01  1.907348633E-06  0.00000E+00  9.000E+00
      21     1     1     2   511   512 -4.753956533E+00  4.446083288E+00  7.391413128E+01  7.420017900E+01  9.536743164E-07  0.00000E+00  9.000E+00
      21     1     1     2   515   511  2.195199228E+00  6.862251412E+00  6.817510891E+01  6.855475818E+01  9.536743164E-07  0.00000E+00  9.000E+00
</event>
<event>
      5  10001  3.52971E+09  6.22484E+00 -1.00000E+00  2.23013E-01
      21    -1     0     0   514   512  0.000000000E+00  0.000000000E+00  2.441570501E+02  2.441570501E+02  0.000000000E+00  0.00000E+00  9.000E+00
      21    -1     0     0   517   514  0.000000000E+00  0.000000000E+00 -8.425327955E-01  8.425327955E-01  0.000000000E+00  0.00000E+00  9.000E+00
      21     1     1     2   511   512 -2.857708720E+00 -8.350305824E+00  1.724160985E+02  1.726418406E+02  0.000000000E+00  0.00000E+00  9.000E+00
       5     1     1     2   517     0  1.744017915E+00  2.567152233E+00  1.720981312E+01  1.813420907E+01  4.800000191E+00  0.00000E+00  9.000E+00
      -5     1     1     2     0   511  1.113690805E+00  5.783153591E+00  5.368860571E+01  5.422353324E+01  4.800000191E+00  0.00000E+00  9.000E+00
</event>
<event>
      5  10001  3.52971E+09  2.30124E+00 -1.00000E+00  3.36826E-01
      21    -1     0     0   512   515  0.000000000E+00  0.000000000E+00  7.856714672E+01  7.856714672E+01  0.000000000E+00  0.00000E+00  9.000E+00
      -4    -1     0     0     0   511  0.000000000E+00  0.000000000E+00 -8.104380000E+01  8.104380000E+01  0.000000000E+00  0.00000E+00  9.000E+00
      -4     1     1     2     0   515 -5.761291641E+00 -1.063860936E+01 -4.769894423E+01  4.923222290E+01  1.500000000E+00  0.00000E+00  9.000E+00
      21     1     1     2   513   511  6.702975328E+00  1.273799179E+01 -3.097008681E+01  3.415161182E+01  5.840038640E-07  0.00000E+00  9.000E+00
      21     1     1     2   512   513 -9.416836869E-01 -2.099382439E+00  7.619237776E+01  7.622711200E+01  1.651812370E-06  0.00000E+00  9.000E+00
</event>
<event>
      5  10001  3.52971E+09  1.29473E+01 -1.00000E+00  1.83620E-01
      21    -1     0     0   514   513  0.000000000E+00  0.000000000E+00  8.153150848E+00  8.153150848E+00  0.000000000E+00  0.00000E+00  9.000E+00
      21    -1     0     0   515   516  0.000000000E+00  0.000000000E+00 -1.019400196E+02  1.019400196E+02  0.000000000E+00  0.00000E+00  9.000E+00
      21     1     1     2   514   516 -1.226265743E+01  1.977092284E+00  1.454397884E+00  1.250587599E+01  2.747638362E-07  0.00000E+00  9.000E+00
      21     1     1     2   515   511  1.080825445E+01  6.423468358E+00 -6.266763447E+01  6.391644326E+01  9.536743164E-07  0.00000E+00  9.000E+00
      21     1     1     2   511   513  1.454402978E+00 -8.400560643E+00 -3.257363217E+01  3.367085119E+01  4.768371582E-07  0.00000E+00  9.000E+00
</event>
<event>
      5  10001  3.52971E+09  1.24239E+01 -1.00000E+00  1.85453E-01
      21    -1     0     0   512   515  0.000000000E+00  0.000000000E+00  9.337912242E-01  9.337912242E-01  0.000000000E+00  0.00000E+00  9.000E+00
      21    -1     0     0   517   513  0.000000000E+00  0.000000000E+00 -1.554289886E+02  1.554289886E+02  0.000000000E+00  0.00000E+00  9.000E+00
      21     1     1     2   512   513 -7.203777090E+00 -3.912905945E+00 -4.546111844E+01  4.619435601E+01  6.743495762E-07  0.00000E+00  9.000E+00
      21     1     1     2   517   514  7.931735592E+00 -2.819256215E+00 -4.528638576E+01  4.606210341E+01  0.000000000E+00  0.00000E+00  9.000E+00
      21     1     1     2   514   515 -7.279585013E-01  6.732162160E+00 -6.374769315E+01  6.410632038E+01  9.536743164E-07  0.00000E+00  9.000E+00
</event>
<event>
      5  10001  3.52971E+09  2.54478E+00 -1.00000E+00  3.20375E-01
      21    -1     0     0   511   513  0.000000000E+00  0.000000000E+00  1.915420281E+01  1.915420281E+01  0.000000000E+00  0.00000E+00  9.000E+00
      21    -1     0     0   516   515  0.000000000E+00  0.000000000E+00 -8.733316031E+00  8.733316031E+00  0.000000000E+00  0.00000E+00  9.000E+00
      21     1     1     2   511   515  9.728138075E+00  2.081384586E+00  1.283284657E+01  1.623732685E+01  1.685873940E-07  0.00000E+00  9.000E+00
      21     1     1     2   516   512 -8.077179074E+00 -4.783315959E-01 -3.824919964E+00  8.949839979E+00  1.332800375E-07  0.00000E+00  9.000E+00
      21     1     1     2   512   513 -1.650959001E+00 -1.603052990E+00  1.412960168E+00  2.700352004E+00  4.214684851E-08  0.00000E+00  9.000E+00
</event>
<event>
      5  10001  3.52971E+09  6.27807E+00 -1.00000E+00  2.22453E-01
      21    -1     0     0   514   515  0.000000000E+00  0.000000000E+00  2.421741607E+02  2.421741607E+02  0.000000000E+00  0.00000E+00  9.000E+00
      21    -1     0     0   517   513  0.000000000E+00  0.000000000E+00 -6.519830471E+00  6.519830471E+00  0.000000000E+00  0.00000E+00  9.000E+00
      21     1     1     2   514   513 -1.137938139E+01 -4.782446828E-01  2.367132246E+02  2.369870666E+02  3.814697266E-06  0.00000E+00  9.000E+00
      21     1     1     2   517   511  2.167828782E+00 -4.747175530E-01  5.998270119E-01  2.298832492E+00  9.742898368E-08  0.00000E+00  9.000E+00
      21     1     1     2   511   515  9.211552606E+00  9.529622358E-01 -1.658721445E+00  9.408092009E+00  8.955585481E-07  0.00000E+00  9.000E+00
</event>
<event>
      5  10001  3.52971E+09  6.40733E+00 -1.00000E+00  2.21125E-01
      21    -1     0     0   512   515  0.000000000E+00  0.000000000E+00  1.599777608E+00  1.599777608E+00  0.000000000E+00  0.00000E+00  9.000E+00
      21    -1     0     0   511   512  0.000000000E+00  0.000000000E+00 -3.971824886E+02  3.971824886E+02  0.000000000E+00  0.00000E+00  9.000E+00
      21     1     1     2   513   515  9.398840970E+00  7.446304394E+00 -2.509600577E+01  2.781357881E+01  5.840038640E-07  0.00000E+00  9.000E+00
       3     1     1     2   511     0 -1.233276162E+01 -4.427080763E+00 -3.300422311E+02  3.303026194E+02  5.000000000E-01  0.00000E+00  9.000E+00
      -3     1     1     2     0   513  2.933920647E+00 -3.019223631E+00 -4.044447412E+01  4.066606803E+01  5.000000000E-01  0.00000E+00  9.000E+00
</event>
<event>
      5  10001  3.52971E+09  7.90855E+00 -1.00000E+00  2.08320E-01
      -3    -1     0     0     0   513  0.000000000E+00  0.000000000E+00  1.055807197E+01  1.055807197E+01  0.000000000E+00  0.00000E+00  9.000E+00
      21    -1     0     0   511   512  0.000000000E+00  0.000000000E+00 -7.052988296E+01  7.052988296E+01  0.000000000E+00  0.00000E+00  9.000E+00
      -3     1     1     2     0   512 -6.922409145E+00 -1.189096207E+01  2.046384179E+00  1.391949768E+01  5.000000000E-01  0.00000E+00  9.000E+00
      21     1     1     2   514   513  1.017611749E+01  4.683600140E+00 -1.157085850E+01  1.610509993E+01  1.685873940E-07  0.00000E+00  9.000E+00
      21     1     1     2   511   514 -3.253708344E+00  7.207361934E+00 -5.044733667E+01  5.106335732E+01  9.536743164E-07  0.00000E+00  9.000E+00
</event>
<event>
      5  10001  3.52971E+09  5.22543E+00 -1.00000E+00  2.35211E-01
      -3    -1     0     0     0   515  0.000000000E+00  0.000000000E+00  8.481885188E+00  8.481885188E+00  0.000000000E+00  0.00000E+00  9.000E+00
      21    -1     0     0   513   514  0.000000000E+00  0.000000000E+00 -3.352741943E+01  3.352741943E+01  0.000000000E+00  0.00000E+00  9.000E+00
      -3     1     1     2     0   514 -7.349804027E+00  6.868198237E+00  4.101488931E+00  1.087492426E+01  5.000000000E-01  0.00000E+00  9.000E+00
      21     1     1     2   513   512  3.288966623E+00 -8.164821634E-01 -1.271225815E+01  1.315619443E+01  2.384185791E-07  0.00000E+00  9.000E+00
      21     1     1     2   512   515  4.060837403E+00 -6.051716074E+00 -1.643476502E+01  1.797818592E+01  2.384185791E-07  0.00000E+00  9.000E+00
</event>
<event>
      5  10001  3.52971E+09  1.10638E+01 -1.00000E+00  1.90811E-01
      21    -1     0     0   512   513  0.000000000E+00  0.000000000E+00  7.487412326E+01  7.487412326E+01  0.000000000E+00  0.00000E+00  9.000E+00
      21    -1     0     0   511   512  0.000000000E+00  0.000000000E+00 -3.801589043E+00  3.801589043E+00  0.000000000E+00  0.00000E+00  9.000E+00
      -5     1     1     2     0   514  7.145710938E+00  2.979221644E+00  2.561648468E+01  2.718788766E+01  4.800000191E+00  0.00000E+00  9.000E+00
       5     1     1     2   511     0 -6.543246187E+00 -6.580570198E+00  6.380594658E+00  1.224213890E+01  4.800000191E+00  0.00000E+00  9.000E+00
      21     1     1     2   514   513 -6.024647512E-01  3.601348554E+00  3.907545488E+01  3.924568574E+01  0.000000000E+00  0.00000E+00  9.000E+00
</event>
<event>
      5  10001  3.52971E+09  8.45166E+00 -1.00000E+00  2.04595E-01
      21    -1     0     0   515   511  0.000000000E+00  0.000000000E+00  4.394793105E+01  4.394793105E+01  0.000000000E+00  0.00000E+00  9.000E+00
      21    -1     0     0   514   513  0.000000000E+00  0.000000000E+00 -2.891862310E+00  2.891862310E+00  0.000000000E+00  0.00000E+00  9.000E+00
      21     1     1     2   515   513  8.279542416E+00  2.148187703E+00  1.975536566E+01  2.152765675E+01  2.384185791E-07  0.00000E+00  9.000E+00
      21     1     1     2   512   511 -5.302367480E+00 -2.166149381E+00  2.453327905E+00  6.231061053E+00  2.980232239E-08  0.00000E+00  9.000E+00
      21     1     1     2   514   512 -2.977174936E+00  1.796167804E-02  1.884737517E+01  1.908107555E+01  3.371747881E-07  0.00000E+00  9.000E+00
</event>
<event>
      5  10001  3.52971E+09  5.19869E+00 -1.00000E+00  2.35590E-01
      21    -1     0     0   516   512  0.000000000E+00  0.000000000E+00  2.150869491E+01  2.150869491E+01  0.000000000E+00  0.00000E+00  9.000E+00
      21    -1     0     0   514   511  0.000000000E+00  0.000000000E+00 -1.439017503E+02  1.439017503E+02  0.000000000E+00  0.00000E+00  9.000E+00
      21     1     1     2   514   517 -8.707855865E+00  6.302468788E+00  3.354336501E+00  1.126052574E+01  9.424321831E-08  0.00000E+00  9.000E+00
      21     1     1     2   517   512  1.046297928E+01 -1.119592169E+01  1.000314348E+01  1.829987643E+01  2.665600750E-07  0.00000E+00  9.000E+00
      21     1     1     2   516   511 -1.755123416E+00  4.893452898E+00 -1.357505354E+02  1.358500430E+02  1.907348633E-06  0.00000E+00  9.000E+00
</event>
<event>
      5  10001  3.52971E+09  3.43379E+00 -1.00000E+00  2.80125E-01
      21    -1     0     0   513   514  0.000000000E+00  0.000000000E+00  6.956275599E+01  6.956275599E+01  0.000000000E+00  0.00000E+00  9.000E+00
      21    -1     0     0   515   513  0.000000000E+00  0.000000000E+00 -1.724568509E+00  1.724568509E+00  0.000000000E+00  0.00000E+00  9.000E+00
      21     1     1     2   515   511  7.180991161E+00 -5.983327750E+00  1.981377321E+01  2.190781719E+01  0.000000000E+00  0.00000E+00  9.000E+00
      -1     1     1     2     0   514 -5.964823631E+00  4.979739713E+00  4.655153124E+01  4.719672540E+01  3.300000131E-01  0.00000E+00  9.000E+00
       1     1     1     2   511     0 -1.216167531E+00  1.003588037E+00  1.472883029E+00  2.182781903E+00  3.300000131E-01  0.00000E+00  9.000E+00
</event>
<event>
      5  10001  3.52971E+09  2.27415E+00 -1.00000E+00  3.38882E-01
      21    -1     0     0   512   515  0.000000000E+00  0.000000000E+00  1.038909644E+01  1.038909644E+01  0.000000000E+00  0.00000E+00  9.000E+00
      21    -1     0     0   513   516  0.000000000E+00  0.000000000E+00 -3.319025009E+01  3.319025009E+01  0.000000000E+00  0.00000E+00  9.000E+00
      21     1     1     2   512   516 -8.122937380E+00  5.312619920E+00  6.388612417E+00  1.161982834E+01  1.884864366E-07  0.00000E+00  9.000E+00
      21     1     1     2   511   515  7.558076932E+00 -7.515506146E+00 -2.257484589E+01  2.496459546E+01  4.768371582E-07  0.00000E+00  9.000E+00
      21     1     1     2   513   511  5.648604474E-01  2.202886226E+00 -6.614920179E+00  6.994922732E+00  8.429369702E-08  0.00000E+00  9.000E+00
</event>
<event>
      5  10001  3.52971E+09  1.32640E+01 -1.00000E+00  1.82564E-01
       2    -1     0     0   512     0  0.000000000E+00  0.000000000E+00  1.216655301E+03  1.216655301E+03  0.000000000E+00  0.00000E+00  9.000E+00
      21    -1     0     0   511   512  0.000000000E+00  0.000000000E+00 -5.589678754E+00  5.589678754E+00  0.000000000E+00  0.00000E+00  9.000E+00
       3     1     1     2   511     0  4.748124246E+00 -1.672008197E+00 -3.516810802E+00  6.161026983E+00  5.000000000E-01  0.00000E+00  9.000E+00
       2     1     1     2   514     0 -1.683095730E+01  1.807940390E+00  1.162208409E+03  1.162331728E+03  3.300000131E-01  0.00000E+00  9.000E+00
      -3     1     1     2     0   514  1.208283305E+01 -1.359321928E-01  5.237402385E+01  5.375222513E+01  5.000000000E-01  0.00000E+00  9.000E+00
</event>
<event>
      5  10001  3.52971E+09  1.08361E+01 -1.00000E+00  1.91806E-01
       1    -1     0     0   512     0  0.000000000E+00  0.000000000E+00  2.280181822E+02  2.280181822E+02  0.000000000E+00  0.00000E+00  9.000E+00
      21    -1     0     0   514   512  0.000000000E+00  0.000000000E+00 -4.315012523E+00  4.315012523E+00  0.000000000E+00  0.00000E+00  9.000E+00
      21     1     1     2   514   513 -1.376455817E+01 -3.119108728E+00  1.064370141E+01  1.767711177E+01  3.153981341E-07  0.00000E+00  9.000E+00
       1     1     1     2   511     0  7.829417066E+00  2.847981144E+00  2.013777349E+02  2.015502711E+02  3.300000131E-01  0.00000E+00  9.000E+00
      21     1     1     2   513   511  5.935141099E+00  2.711275838E-01  1.168173343E+01  1.310581191E+01  2.384185791E-07  0.00000E+00  9.000E+00
</event>
<event>
      5  10001  3.52971E+09  4.22610E+00 -1.00000E+00  2.57959E-01
      -2    -1     0     0     0   511  0.000000000E+00  0.000000000E+00  3.168201490E+00  3.168201490E+00  0.000000000E+00  0.00000E+00  9.000E+00
      -3    -1     0     0     0   512  0.000000000E+00  0.000000000E+00 -1.335245051E+02  1.335245051E+02  0.000000000E+00  0.00000E+00  9.000E+00
      -3     1     1     2     0   514  1.180968678E+01 -1.701607668E+00 -1.141842623E+02  1.148070552E+02  5.000000000E-01  0.00000E+00  9.000E+00
      -2     1     1     2     0   512 -9.768984202E+00  2.450183295E-01 -6.141317554E+00  1.154633135E+01  3.300000131E-01  0.00000E+00  9.000E+00
      21     1     1     2   514   511 -2.040702578E+00  1.456589339E+00 -1.003072378E+01  1.033932005E+01  1.685873940E-07  0.00000E+00  9.000E+00
</event>
<event>
      5  10001  3.52971E+09  5.56195E+00 -1.00000E+00  2.30703E-01
      21    -1     0     0   513   511  0.000000000E+00  0.000000000E+00  2.754630382E+00  2.754630382E+00  0.000000000E+00  0.00000E+00  9.000E+00
      -1    -1     0     0     0   513  0.000000000E+00  0.000000000E+00 -1.137206213E+02  1.137206213E+02  0.000000000E+00  0.00000E+00  9.000E+00
      -1     1     1     2     0   512 -2.329899527E+00  1.610494708E+01 -7.245161229E+01  7.425727422E+01  3.300000131E-01  0.00000E+00  9.000E+00
      21     1     1     2   515   511  3.489270991E+00 -8.813069012E+00 -2.617360799E+01  2.783707874E+01  3.371747881E-07  0.00000E+00  9.000E+00
      21     1     1     2   512   515 -1.159371464E+00 -7.291878066E+00 -1.234077063E+01  1.438089871E+01  2.920019320E-07  0.00000E+00  9.000E+00
</event>
<event>
      5  10001  3.52971E+09  8.94355E+00 -1.00000E+00  2.01530E-01
      21    -1     0     0   514   511  0.000000000E+00  0.000000000E+00  3.023583999E+00  3.023583999E+00  0.000000000E+00  0.00000E+00  9.000E+00
      21    -1     0     0   516   514  0.000000000E+00  0.000000000E+00 -5.734726074E+01  5.734726074E+01  0.000000000E+00  0.00000E+00  9.000E+00
      21     1     1     2   515   511  2.217705158E+00  8.740884477E+00 -6.826575303E+00  1.131032307E+01  2.230201594E-07  0.00000E+00  9.000E+00
      21     1     1     2   513   515  2.177906970E+00 -2.643606011E+00 -2.722806452E+01  2.744265711E+01  0.000000000E+00  0.00000E+00  9.000E+00
      21     1     1     2   516   513 -4.395612128E+00 -6.097278466E+00 -2.026903692E+01  2.161786457E+01  3.371747881E-07  0.00000E+00  9.000E+00
</event>
<event>
      5  10001  3.52971E+09  6.83244E+00 -1.00000E+00  2.17046E-01
      -2    -1     0     0     0   512  0.000000000E+00  0.000000000E+00  7.881844121E-01  7.881844121E-01  0.000000000E+00  0.00000E+00  9.000E+00
       2    -1     0     0   512     0  0.000000000E+00  0.000000000E+00 -5.676197209E+02  5.676197209E+02  0.000000000E+00  0.00000E+00  9.000E+00
      -2     1     1     2     0   511 -7.572561427E+00  6.875523557E+00 -5.759906469E+01  5.850109113E+01  3.300000131E-01  0.00000E+00  9.000E+00
       2     1     1     2   514     0  1.372683186E+01 -4.267672673E+00 -4.597685541E+02  4.599933382E+02  3.300000131E-01  0.00000E+00  9.000E+00
      21     1     1     2   511   514 -6.154270434E+00 -2.607850885E+00 -4.946391770E+01  4.991347598E+01  9.536743164E-07  0.00000E+00  9.000E+00
</event>
<event>
      5  10001  3.52971E+09  1.00199E+01 -1.00000E+00  1.95653E-01
      21    -1     0     0   513   512  0.000000000E+00  0.000000000E+00  1.515595509E+01  1.515595509E+01  0.000000000E+00  0.00000E+00  9.000E+00
      21    -1     0     0   511   515  0.000000000E+00  0.000000000E+00 -2.002310600E+01  2.002310600E+01  0.000000000E+00  0.00000E+00  9.000E+00
      21     1     1     2   513   515 -1.005371754E+01  1.038098654E-01 -1.555854634E+01  1.852448048E+01  2.384185791E-07  0.00000E+00  9.000E+00
      21     1     1     2   516   512  1.495727056E+00 -2.809290380E+00  5.306306681E+00  6.187584541E+00  1.460009660E-07  0.00000E+00  9.000E+00
      21     1     1     2   511   516  8.557990487E+00  2.705480514E+00  5.385088738E+00  1.046699607E+01  3.039252468E-07  0.00000E+00  9.000E+00
</event>
<event>
      5  10001  3.52971E+09  9.93416E+00 -1.00000E+00  1.96085E-01
      21    -1     0     0   514   515  0.000000000E+00  0.000000000E+00  1.444930589E+01  1.444930589E+01  0.000000000E+00  0.00000E+00  9.000E+00
      21    -1     0     0   511   512  0.000000000E+00  0.000000000E+00 -1.146465505E+02  1.146465505E+02  0.000000000E+00  0.00000E+00  9.000E+00
      21     1     1     2   514   517  1.050438959E+01 -3.449283821E+00  8.698845756E+00  1.406803743E+01  4.298152060E-07  0.00000E+00  9.000E+00
      21     1     1     2   511   515 -1.516532518E+01  1.222215017E+01 -3.177501176E+01  3.726955077E+01  6.743495762E-07  0.00000E+00  9.000E+00
      21     1     1     2   517   512  4.660935590E+00 -8.772866345E+00 -7.712107859E+01  7.775826816E+01  1.348699152E-06  0.00000E+00  9.000E+00
</event>
<event>
      5  10001  3.52971E+09  3.43788E+01 -1.00000E+00  1.49038E-01
      -3    -1     0     0     0   513  0.000000000E+00  0.000000000E+00  4.050985003E+01  4.050985003E+01  0.000000000E+00  0.00000E+00  9.000E+00
      21    -1     0     0   514   512  0.000000000E+00  0.000000000E+00 -7.664827500E+00  7.664827500E+00  0.000000000E+00  0.00000E+00  9.000E+00
      -3     1     1     2     0   512 -4.493304847E+00  7.697989529E-01  1.056937333E+00  4.706325042E+00  5.000000000E-01  0.00000E+00  9.000E+00
      -4     1     1     2     0   513 -4.365664175E+00  3.077254723E+00 -3.693700833E+00  6.664979082E+00  1.500000000E+00  0.00000E+00  9.000E+00
       4     1     1     2   514     0  8.858969022E+00 -3.847053676E+00  3.548178604E+01  3.680337341E+01  1.500000000E+00  0.00000E+00  9.000E+00
</event>
<event>
      5  10001  3.52971E+09  8.19659E+00 -1.00000E+00  2.06296E-01
      21    -1     0     0   511   512  0.000000000E+00  0.000000000E+00  6.171998792E+01  6.171998792E+01  0.000000000E+00  0.00000E+00  9.000E+00
      21    -1     0     0   514   515  0.000000000E+00  0.000000000E+00 -2.296909570E+00  2.296909570E+00  0.000000000E+00  0.00000E+00  9.000E+00
      21     1     1     2   511   515 -8.254678267E+00  6.135664336E+00  4.131709202E+01  4.257802465E+01  0.000000000E+00  0.00000E+00  9.000E+00
      21     1     1     2   514   513  3.111453035E+00  4.231760337E-01  4.667451024E+00  5.625417052E+00  0.000000000E+00  0.00000E+00  9.000E+00
      21     1     1     2   513   512  5.143225232E+00 -6.558840370E+00  1.343853530E+01  1.581345578E+01  1.685873940E-07  0.00000E+00  9.000E+00
</event>
<event>
      5  10001  3.52971E+09  4.81656E+00 -1.00000E+00  2.45796E-01
      -3    -1     0     0     0   512  0.000000000E+00  0.000000000E+00  1.015917747E+01  1.015917747E+01  0.000000000E+00  0.00000E+00  9.000E+00
       2    -1     0     0   512     0  0.000000000E+00  0.000000000E+00 -4.343244373E+02  4.343244373E+02  0.000000000E+00  0.00000E+00  9.000E+00
      -3     1     1     2     0   513 -8.839819936E+00  6.058412413E+00  6.063580843E+00  1.232330273E+01  5.000000000E-01  0.00000E+00  9.000E+00
      21     1     1     2   513   511  1.179696335E+01 -2.256635285E+00 -3.697573075E+01  3.887756952E+01  4.768371582E-07  0.00000E+00  9.000E+00
       2     1     1     2   511     0 -2.957143414E+00 -3.801777128E+00 -3.932531099E+02  3.932827425E+02  3.300000131E-01  0.00000E+00  9.000E+00
</event>
<event>
      5  10001  3.52971E+09  1.42180E+01 -1.00000E+00  1.79599E-01
      21    -1     0     0   514   513  0.000000000E+00  0.000000000E+00  1.331971192E+01  1.331971192E+01  0.000000000E+00  0.00000E+00  9.000E+00
      21    -1     0     0   512   515  0.000000000E+00  0.000000000E+00 -1.276823209E+01  1.276823209E+01  0.000000000E+00  0.00000E+00  9.000E+00
      21     1     1     2   514   515 -8.244948794E+00 -5.159978344E+00 -8.445105944E-02  9.726854019E+00  1.616857532E-07  0.00000E+00  9.000E+00
      21     1     1     2   512   516  5.748311230E+00 -2.288579578E+00  4.456936620E+00  7.625284422E+00  1.192092896E-07  0.00000E+00  9.000E+00
      21     1     1     2   516   513  2.496637564E+00  7.448557922E+00 -3.821005732E+00  8.735805575E+00  5.960464478E-08  0.00000E+00  9.000E+00
</event>
<event>
      5  10001  3.52971E+09  6.66128E+00 -1.00000E+00  2.18638E-01
      21    -1     0     0   511   512  0.000000000E+00  0.000000000E+00  1.339005900E+01  1.339005900E+01  0.000000000E+00  0.00000E+00  9.000E+00
      21    -1     0     0   517   513  0.000000000E+00  0.000000000E+00 -1.455759724E+01  1.455759724E+01  0.000000000E+00  0.00000E+00  9.000E+00
      21     1     1     2   511   513 -9.503548123E+00 -5.753782651E+00 -8.281287896E+00  1.385652088E+01  2.384185791E-07  0.00000E+00  9.000E+00
      -1     1     1     2     0   512  1.685538965E+00  1.929851414E+00  4.155495595E+00  4.893098377E+00  3.300000131E-01  0.00000E+00  9.000E+00
       1     1     1     2   517     0  7.818009158E+00  3.823931238E+00  2.958254062E+00  9.198036987E+00  3.300000131E-01  0.00000E+00  9.000E+00
</event>
<event>
      5  10001  3.52971E+09  8.93734E+00 -1.00000E+00  2.01567E-01
      21    -1     0     0   514   512  0.000000000E+00  0.000000000E+00  9.952394879E+00  9.952394879E+00  0.000000000E+00  0.00000E+00  9.000E+00
       3    -1     0     0   515     0  0.000000000E+00  0.000000000E+00 -3.682775738E+02  3.682775738E+02  0.000000000E+00  0.00000E+00  9.000E+00
      21     1     1     2   511   512 -1.536690203E+01  5.303428817E+00  2.651623158E+00  1.647116088E+01  9.073816149E-07  0.00000E+00  9.000E+00
       3     1     1     2   514     0  1.052824059E+01 -5.278961302E+00 -3.410236812E+02  3.412273618E+02  5.000000000E-01  0.00000E+00  9.000E+00
      21     1     1     2   515   511  4.838661443E+00 -2.446751416E-02 -1.995312086E+01  2.053144601E+01  2.384185791E-07  0.00000E+00  9.000E+00
</event>
<event>
      5  10001  3.52971E+09  4.79143E+00 -1.00000E+00  2.46260E-01
      21    -1     0     0   513   512  0.000000000E+00  0.000000000E+00  1.544892493E+02  1.544892493E+02  0.000000000E+00  0.00000E+00  9.000E+00
      21    -1     0     0   514   513  0.000000000E+00  0.000000000E+00 -3.635375127E+01  3.635375127E+01  0.000000000E+00  0.00000E+00  9.000E+00
      21     1     1     2   515   511  7.835237772E+00 -8.083098267E+00  1.884232356E+01  2.194904521E+01  3.371747881E-07  0.00000E+00  9.000E+00
      21     1     1     2   511   512 -3.153436701E+00  9.102194841E+00  1.337545983E+02  1.341010316E+02  1.907348633E-06  0.00000E+00  9.000E+00
      21     1     1     2   514   515 -4.681801071E+00 -1.019096574E+00 -3.446142377E+01  3.479292381E+01  1.066240300E-06  0.00000E+00  9.000E+00
</event>
<event>
      5  10001  3.52971E+09  4.64550E+00 -1.00000E+00  2.49037E-01
      21    -1     0     0   516   512  0.000000000E+00  0.000000000E+00  3.999559161E+02  3.999559161E+02  0.000000000E+00  0.00000E+00  9.000E+00
      21    -1     0     0   514   515  0.000000000E+00  0.000000000E+00 -4.248836773E-01  4.248836773E-01  0.000000000E+00  0.00000E+00  9.000E+00
      21     1     1     2   516   515 -9.179947386E+00  1.525646731E+00  1.151846965E+02  1.155599988E+02  3.568322551E-06  0.00000E+00  9.000E+00
      21     1     1     2   514   511  1.097013117E+01  2.761070258E+00  1.670993156E+02  1.674817858E+02  3.303624740E-06  0.00000E+00  9.000E+00
      21     1     1     2   511   512 -1.790183788E+00 -4.286716989E+00  1.172470203E+02  1.173390152E+02  1.907348633E-06  0.00000E+00  9.000E+00
</event>
<event>
      5  10001  3.52971E+09  6.72381E+00 -1.00000E+00  2.18049E-01
      21    -1     0     0   513   514  0.000000000E+00  0.000000000E+00  6.746148106E+00  6.746148106E+00  0.000000000E+00  0.00000E+00  9.000E+00
      21    -1     0     0   517   512  0.000000000E+00  0.000000000E+00 -1.797879533E+02  1.797879533E+02  0.000000000E+00  0.00000E+00  9.000E+00
      21     1     1     2   513   512  1.579810070E+01 -8.581041952E+00 -7.029095124E+00  1.930343091E+01  5.196212463E-07  0.00000E+00  9.000E+00
      21     1     1     2   515   514 -7.424355863E+00  8.731341330E+00 -1.099690546E+02  1.105646885E+02  0.000000000E+00  0.00000E+00  9.000E+00
      21     1     1     2   517   515 -8.373744840E+00 -1.502993784E-01 -5.604365544E+01  5.666598193E+01  0.000000000E+00  0.00000E+00  9.000E+00
</event>
<event>
      5  10001  3.52971E+09  3.68853E+00 -1.00000E+00  2.72042E-01
      21    -1     0     0   511   512  0.000000000E+00  0.000000000E+00  2.549146988E+00  2.549146988E+00  0.000000000E+00  0.00000E+00  9.000E+00
      21    -1     0     0   517   516  0.000000000E+00  0.000000000E+00 -2.597022848E+02  2.597022848E+02  0.000000000E+00  0.00000E+00  9.000E+00
      21     1     1     2   511   516 -6.828946422E+00 -7.854011354E+00 -9.254257600E+00  1.392699850E+01  4.915124924E-07  0.00000E+00  9.000E+00
      21     1     1     2   513   512  4.169243511E+00  6.218385554E+00 -2.320591914E+02  2.321799286E+02  4.672030912E-06  0.00000E+00  9.000E+00
      21     1     1     2   517   513  2.659702910E+00  1.635625800E+00 -1.583968883E+01  1.614450475E+01  2.384185791E-07  0.00000E+00  9.000E+00
</event>
<event>
      5  10001  3.52971E+09  3.24737E+00 -1.00000E+00  2.86792E-01
      21    -1     0     0   514   513  0.000000000E+00  0.000000000E+00  6.077445985E+00  6.077445985E+00  0.000000000E+00  0.00000E+00  9.000E+00
      21    -1     0     0   511   515  0.000000000E+00  0.000000000E+00 -7.928620843E+01  7.928620843E+01  0.000000000E+00  0.00000E+00  9.000E+00
      21     1     1     2   514   515  9.940180621E+00  3.453330145E+00 -6.438539164E+01  6.523964543E+01  9.536743164E-07  0.00000E+00  9.000E+00
      21     1     1     2   517   513 -8.278407135E+00 -6.243302757E+00  3.685834071E-01  1.037529314E+01  2.840029978E-07  0.00000E+00  9.000E+00
      21     1     1     2   511   517 -1.661773485E+00  2.789972612E+00 -9.191954212E+00  9.748715840E+00  0.000000000E+00  0.00000E+00  9.000E+00
</event>
<event>
      5  10001  3.52971E+09  3.61545E+00 -1.00000E+00  2.74252E-01
      21    -1     0     0   512   515  0.000000000E+00  0.000000000E+00  4.872796756E+00  4.872796756E+00  0.000000000E+00  0.00000E+00  9.000E+00
      21    -1     0     0   513   516  0.000000000E+00  0.000000000E+00 -4.599506337E+01  4.599506337E+01  0.000000000E+00  0.00000E+00  9.000E+00
      21     1     1     2   512   516  1.184577973E+01  1.350871866E+00 -2.238995029E+01  2.536645868E+01  0.000000000E+00  0.00000E+00  9.000E+00
      21     1     1     2   511   515 -9.992608821E+00 -4.455265328E+00 -6.455638472E+00  1.270342034E+01  3.576278687E-07  0.00000E+00  9.000E+00
      21     1     1     2   513   511 -1.853170912E+00  3.104393462E+00 -1.227667786E+01  1.279798111E+01  1.685873940E-07  0.00000E+00  9.000E+00
</event>
<event>
      5  10001  3.52971E+09  8.30686E+00 -1.00000E+00  2.05551E-01
      21    -1     0     0   513   512  0.000000000E+00  0.000000000E+00  7.958717742E+00  7.958717742E+00  0.000000000E+00  0.00000E+00  9.000E+00
       1    -1     0     0   514     0  0.000000000E+00  0.000000000E+00 -8.017806316E+01  8.017806316E+01  0.000000000E+00  0.00000E+00  9.000E+00
      21     1     1     2   514   511  2.437007843E+00 -1.105108577E+01 -1.706149429E+01  2.047339960E+01  7.539457465E-07  0.00000E+00  9.000E+00
       1     1     1     2   513     0  2.952231089E+00  1.737196347E+01 -5.655746703E+01  5.923982410E+01  3.300000131E-01  0.00000E+00  9.000E+00
      21     1     1     2   511   512 -5.389238932E+00 -6.320877696E+00  1.399615902E+00  8.423557194E+00  1.555726902E-07  0.00000E+00  9.000E+00
</event>
<event>
      5  10001  3.52971E+09  6.59514E+00 -1.00000E+00  2.19271E-01
       2    -1     0     0   513     0  0.000000000E+00  0.000000000E+00  2.881939026E+02  2.881939026E+02  0.000000000E+00  0.00000E+00  9.000E+00
      21    -1     0     0   511   513  0.000000000E+00  0.000000000E+00 -2.069681838E+01  2.069681838E+01  0.000000000E+00  0.00000E+00  9.000E+00
      21     1     1     2   511   515 -1.085615030E+00  1.069315867E+01 -1.863701847E+01  2.151419671E+01  1.066240300E-06  0.00000E+00  9.000E+00
       2     1     1     2   514     0 -5.534187185E-01 -5.663329648E+00  2.749008983E+02  2.749599832E+02  3.300000131E-01  0.00000E+00  9.000E+00
      21     1     1     2   515   514  1.639033748E+00 -5.029829022E+00  1.123320441E+01  1.241654110E+01  1.685873940E-07  0.00000E+00  9.000E+00
</event>
<event>
      5  10001  3.52971E+09  1.08263E+01 -1.00000E+00  1.91849E-01
       3    -1     0     0   513     0  0.000000000E+00  0.000000000E+00  3.026996661E+02  3.026996661E+02  0.000000000E+00  0.00000E+00  9.000E+00
       1    -1     0     0   511     0  0.000000000E+00  0.000000000E+00 -2.484962110E+02  2.484962110E+02  0.000000000E+00  0.00000E+00  9.000E+00
       1     1     1     2   512     0 -6.183881021E+00  1.430134601E+01 -2.475978822E+02  2.480878656E+02  3.300000131E-01  0.00000E+00  9.000E+00
       3     1     1     2   511     0  2.193664774E+00 -4.237205121E+00  2.559842725E+02  2.560292246E+02  5.000000000E-01  0.00000E+00  9.000E+00
      21     1     1     2   513   512  3.990216247E+00 -1.006414089E+01  4.581706478E+01  4.707878697E+01  9.536743164E-07  0.00000E+00  9.000E+00
</event>
<event>
      5  10001  3.52971E+09  4.28944E+00 -1.00000E+00  2.56512E-01
       2    -1     0     0   512     0  0.000000000E+00  0.000000000E+00  7.600544081E+02  7.600544081E+02  0.000000000E+00  0.00000E+00  9.000E+00
      21    -1     0     0   511   512  0.000000000E+00  0.000000000E+00 -2.213300670E+00  2.213300670E+00  0.000000000E+00  0.00000E+00  9.000E+00
      21     1     1     2   514   513  8.771187697E+00 -7.237316573E+00  1.401931004E+01  1.805141376E+01  1.359195024E-06  0.00000E+00  9.000E+00
       2     1     1     2   513     0 -6.608697276E+00  1.094168251E+01  7.110519222E+02  7.111668864E+02  3.300000131E-01  0.00000E+00  9.000E+00
      21     1     1     2   511   514 -2.162490420E+00 -3.704365937E+00  3.276987519E+01  3.304940865E+01  4.768371582E-07  0.00000E+00  9.000E+00
</event>
<event>
      5  10001  3.52971E+09  2.16489E+00 -1.00000E+00  3.47729E-01
      21    -1     0     0   515   513  0.000000000E+00  0.000000000E+00  8.074434252E-01  8.074434252E-01  0.000000000E+00  0.00000E+00  9.000E+00
      21    -1     0     0   512   514  0.000000000E+00  0.000000000E+00 -3.172900834E+02  3.172900834E+02  0.000000000E+00  0.00000E+00  9.000E+00
      21     1     1     2   515   514 -1.130078342E+01 -1.045729990E+00 -4.973898304E+01  5.101732736E+01  1.784161275E-06  0.00000E+00  9.000E+00
      21     1     1     2   511   513  1.056446058E+01 -9.900969359E-01 -1.821105444E+02  1.824194027E+02  0.000000000E+00  0.00000E+00  9.000E+00
      21     1     1     2   512   511  7.363228416E-01  2.035826926E+00 -8.463311251E+01  8.466079669E+01  0.000000000E+00  0.00000E+00  9.000E+00
</event>
<event>
      5  10001  3.52971E+09  1.23284E+01 -1.00000E+00  1.85799E-01
      21    -1     0     0   516   511  0.000000000E+00  0.000000000E+00  8.885957765E+00  8.885957765E+00  0.000000000E+00  0.00000E+00  9.000E+00
      21    -1     0     0   512   517  0.000000000E+00  0.000000000E+00 -2.805113337E+02  2.805113337E+02  0.000000000E+00  0.00000E+00  9.000E+00
      21     1     1     2   516   517 -1.366038413E+01 -8.916276337E-01 -2.705159982E+02  2.708621538E+02  0.000000000E+00  0.00000E+00  9.000E+00
      21     1     1     2   513   511  3.151391590E+00  5.317774671E+00  2.359021584E+00  6.616266261E+00  3.278255463E-07  0.00000E+00  9.000E+00
      21     1     1     2   512   513  1.050899254E+01 -4.426147037E+00 -3.468399361E+00  1.191887142E+01  4.193558478E-07  0.00000E+00  9.000E+00
</event>
<event>
      5  10001  3.52971E+09  2.71064E+00 -1.00000E+00  3.10896E-01
      21    -1     0     0   512   511  0.000000000E+00  0.000000000E+00  6.649734038E+00  6.649734038E+00  0.000000000E+00  0.00000E+00  9.000E+00
      -4    -1     0     0     0   514  0.000000000E+00  0.000000000E+00 -8.783576655E+01  8.783576655E+01  0.000000000E+00  0.00000E+00  9.000E+00
      -4     1     1     2     0   515  5.223562773E+00 -1.061492555E+00 -5.798961932E+01  5.825339753E+01  1.500000000E+00  0.00000E+00  9.000E+00
      21     1     1     2   512   514 -9.941376373E+00  5.172771420E-01  2.366121399E+00  1.023215863E+01  2.457562462E-07  0.00000E+00  9.000E+00
      21     1     1     2   515   511  4.717813600E+00  5.442154125E-01 -2.556253460E+01  2.599994443E+01  3.371747881E-07  0.00000E+00  9.000E+00
</event>
<event>
      5  10001  3.52971E+09  6.59542E+00 -1.00000E+00  2.19268E-01
      21    -1     0     0   513   516  0.000000000E+00  0.000000000E+00  2.011580824E-01  2.011580824E-01  0.000000000E+00  0.00000E+00  9.000E+00
      21    -1     0     0   515   511  0.000000000E+00  0.000000000E+00 -6.984526755E+02  6.984526755E+02  0.000000000E+00  0.00000E+00  9.000E+00
      21     1     1     2   513   511  8.557724410E+00  4.912707851E+00 -4.219864907E+02  4.221018452E+02  5.394796609E-06  0.00000E+00  9.000E+00
      21     1     1     2   512   516 -5.759518361E+00 -4.137066743E-01 -7.686657901E+01  7.708316401E+01  1.651812370E-06  0.00000E+00  9.000E+00
      21     1     1     2   515   512 -2.798206050E+00 -4.499001177E+00 -1.993984477E+02  1.994688244E+02  0.000000000E+00  0.00000E+00  9.000E+00
</event>
<event>
      5  10001  3.52971E+09  8.86050E+00 -1.00000E+00  2.02029E-01
      21    -1     0     0   514   513  0.000000000E+00  0.000000000E+00  6.596732367E+01  6.596732367E+01  0.000000000E+00  0.00000E+00  9.000E+00
      21    -1     0     0   515   517  0.000000000E+00  0.000000000E+00 -4.069769682E+01  4.069769682E+01  0.000000000E+00  0.00000E+00  9.000E+00
      21     1     1     2   514   517 -9.496280267E+00  8.031519505E+00  6.119187358E+00  1.386106411E+01  1.460009660E-07  0.00000E+00  9.000E+00
      21     1     1     2   515   511  3.082572757E+00 -1.414485300E+01 -3.503011807E+01  3.790367123E+01  8.259061849E-07  0.00000E+00  9.000E+00
      21     1     1     2   511   513  6.413707510E+00  6.113333492E+00  5.418055756E+01  5.490028514E+01  6.743495762E-07  0.00000E+00  9.000E+00
</event>
<event>
      5  10001  3.52971E+09  4.83992E+00 -1.00000E+00  2.45370E-01
       2    -1     0     0   515     0  0.000000000E+00  0.000000000E+00  4.318010713E+02  4.318010713E+02  0.000000000E+00  0.00000E+00  9.000E+00
      21    -1     0     0   511   512  0.000000000E+00  0.000000000E+00 -1.085024283E+00  1.085024283E+00  0.000000000E+00  0.00000E+00  9.000E+00
      21     1     1     2   515   512 -1.061170424E+01 -8.942481307E+00  4.961712676E+01  5.152121414E+01  9.536743164E-07  0.00000E+00  9.000E+00
      21     1     1     2   511   514  1.970548995E+00  3.439950742E+00  1.169762400E+02  1.170433982E+02  1.348699152E-06  0.00000E+00  9.000E+00
       2     1     1     2   514     0  8.641155242E+00  5.502530565E+00  2.641226802E+02  2.643214833E+02  3.300000131E-01  0.00000E+00  9.000E+00
</event>
<event>
      5  10001  3.52971E+09  7.59341E+00 -1.00000E+00  2.10672E-01
       1    -1     0     0   511     0  0.000000000E+00  0.000000000E+00  6.446485876E+02  6.446485876E+02  0.000000000E+00  0.00000E+00  9.000E+00
      21    -1     0     0   513   514  0.000000000E+00  0.000000000E+00 -1.199478806E+00  1.199478806E+00  0.000000000E+00  0.00000E+00  9.000E+00
      21     1     1     2   511   514 -6.489432321E+00 -8.107223320E+00  2.229951529E+01  2.459894680E+01  1.617033478E-06  0.00000E+00  9.000E+00
      21     1     1     2   513   512  2.560521713E+00  6.181384522E-01  1.313683558E+02  1.313947612E+02  0.000000000E+00  0.00000E+00  9.000E+00
       1     1     1     2   512     0  3.928910607E+00  7.489084868E+00  4.897812377E+02  4.898543584E+02  3.300000131E-01  0.00000E+00  9.000E+00
</event>
<event>
      5  10001  3.52971E+09  1.73254E+01 -1.00000E+00  1.71680E-01
       2    -1     0     0   513     0  0.000000000E+00  0.000000000E+00  4.913500227E+02  4.913500227E+02  0.000000000E+00  0.00000E+00  9.000E+00
      21    -1     0     0   512   515  0.000000000E+00  0.000000000E+00 -2.142003115E-01  2.142003115E-01  0.000000000E+00  0.00000E+00  9.000E+00
      21     1     1     2   513   515  1.153837559E+00  3.066907092E+00  9.545753343E+01  9.551375791E+01  1.907348633E-06  0.00000E+00  9.000E+00
       2     1     1     2   511     0 -9.960564558E-01 -1.810161951E+00  3.936736091E+02  3.936791691E+02  3.300000131E-01  0.00000E+00  9.000E+00
      21     1     1     2   512   511 -1.577811029E-01 -1.256745142E+00  2.004679864E+00  2.371295971E+00  1.154238983E-07  0.00000E+00  9.000E+00
</event>
<event>
      5  10001  3.52971E+09  8.51535E+00 -1.00000E+00  2.04183E-01
      21    -1     0     0   511   512  0.000000000E+00  0.000000000E+00  1.248051213E+01  1.248051213E+01  0.000000000E+00  0.00000E+00  9.000E+00
      21    -1     0     0   514   511  0.000000000E+00  0.000000000E+00 -3.746904975E+01  3.746904975E+01  0.000000000E+00  0.00000E+00  9.000E+00
      -1     1     1     2     0   512  1.012958200E+01 -1.550799621E+00  8.169468072E+00  1.310963461E+01  3.300000131E-01  0.00000E+00  9.000E+00
       1     1     1     2   513     0 -8.064341970E+00 -4.423122856E+00 -2.407307395E+01  2.577245461E+01  3.300000131E-01  0.00000E+00  9.000E+00
      21     1     1     2   514   513 -2.065240033E+00  5.973922477E+00 -9.084931747E+00  1.106747266E+01  1.685873940E-07  0.00000E+00  9.000E+00
</event>
<event>
      5  10001  3.52971E+09  6.60073E+00 -1.00000E+00  2.19217E-01
       2    -1     0     0   513     0  0.000000000E+00  0.000000000E+00  1.410401747E+01  1.410401747E+01  0.000000000E+00  0.00000E+00  9.000E+00
      21    -1     0     0   515   511  0.000000000E+00  0.000000000E+00 -1.046122617E+01  1.046122617E+01  0.000000000E+00  0.00000E+00  9.000E+00
      21     1     1     2   513   511 -2.683951993E+00 -1.141878279E+01  8.867028851E-02  1.173030525E+01  1.235539016E-07  0.00000E+00  9.000E+00
      21     1     1     2   515   512 -3.874294490E-01  2.945642003E+00 -3.806235060E-01  2.995293415E+00  5.025691376E-08  0.00000E+00  9.000E+00
       2     1     1     2   512     0  3.071381442E+00  8.473140788E+00  3.934744518E+00  9.839644973E+00  3.300000131E-01  0.00000E+00  9.000E+00
</event>
<event>
      5  10001  3.52971E+09  1.25489E+01 -1.00000E+00  1.85005E-01
       1    -1     0     0   511     0  0.000000000E+00  0.000000000E+00  2.951895019E+00  2.951895019E+00  0.000000000E+00  0.00000E+00  9.000E+00
      21    -1     0     0   512   514  0.000000000E+00  0.000000000E+00 -3.788996148E+01  3.788996148E+01  0.000000000E+00  0.00000E+00  9.000E+00
      -4     1     1     2     0   514  2.502593397E+00 -5.134801323E+00 -3.883353518E+00  7.068210020E+00  1.500000000E+00  0.00000E+00  9.000E+00
       1     1     1     2   512     0 -5.624716435E+00  3.204000975E+00 -7.611249263E+00  9.997153223E+00  3.300000131E-01  0.00000E+00  9.000E+00
       4     1     1     2   511     0  3.122123038E+00  1.930800348E+00 -2.344346368E+01  2.377649326E+01  1.500000000E+00  0.00000E+00  9.000E+00
</event>
<event>
      5  10001  3.52971E+09  3.97253E+00 -1.00000E+00  2.64169E-01
      21    -1     0     0   513   512  0.000000000E+00  0.000000000E+00  1.277142282E+02  1.277142282E+02  0.000000000E+00  0.00000E+00  9.000E+00
      21    -1     0     0   516   515  0.000000000E+00  0.000000000E+00 -2.425653760E+00  2.425653760E+00  0.000000000E+00  0.00000E+00  9.000E+00
      21     1     1     2   513   515  2.155426983E+00  1.021433361E+01  1.074124505E+01  1.497841186E+01  2.665600750E-07  0.00000E+00  9.000E+00
      21     1     1     2   514   512 -2.607268059E+00 -5.041243086E+00  8.261042988E+01  8.280516350E+01  0.000000000E+00  0.00000E+00  9.000E+00
      21     1     1     2   516   514  4.518410760E-01 -5.173090526E+00  3.193689956E+01  3.235630664E+01  6.743495762E-07  0.00000E+00  9.000E+00
</event>
<event>
      5  10001  3.52971E+09  1.27689E+01 -1.00000E+00  1.84232E-01
       1    -1     0     0   515     0  0.000000000E+00  0.000000000E+00  3.705165376E+02  3.705165376E+02  0.000000000E+00  0.00000E+00  9.000E+00
      21    -1     0     0   511   512  0.000000000E+00  0.000000000E+00 -1.486315482E+01  1.486315482E+01  0.000000000E+00  0.00000E+00  9.000E+00
      21     1     1     2   515   514  1.060543632E+01  2.291402844E+01  1.195919497E+02  1.222283208E+02  2.336015456E-06  0.00000E+00  9.000E+00
       1     1     1     2   511     0 -6.752941537E+00 -1.074024417E+01  2.463970800E+02  2.467237017E+02  3.300000131E-01  0.00000E+00  9.000E+00
      21     1     1     2   514   512 -3.852494785E+00 -1.217378427E+01 -1.033564693E+01  1.642766986E+01  7.152557373E-07  0.00000E+00  9.000E+00
</event>
<event>
      5  10001  3.52971E+09  4.47335E+01 -1.00000E+00  1.41888E-01
      21    -1     0     0   513   512  0.000000000E+00  0.000000000E+00  4.479199970E+00  4.479199970E+00  0.000000000E+00  0.00000E+00  9.000E+00
      21    -1     0     0   516   513  0.000000000E+00  0.000000000E+00 -2.699440131E+02  2.699440131E+02  0.000000000E+00  0.00000E+00  9.000E+00
      21     1     1     2   511   512  1.471721491E+01 -1.530363116E+00 -9.272544558E+00  1.746191595E+01  4.460403188E-07  0.00000E+00  9.000E+00
      21     1     1     2   515   511 -1.692892017E+00  2.333809500E+00 -9.590050498E+00  1.001407104E+01  1.685873940E-07  0.00000E+00  9.000E+00
      21     1     1     2   516   515 -1.302432289E+01 -8.034463832E-01 -2.466022181E+02  2.469472261E+02  3.814697266E-06  0.00000E+00  9.000E+00
</event>
<event>
      5  10001  3.52971E+09  6.92322E+00 -1.00000E+00  2.16227E-01
      21    -1     0     0   514   515  0.000000000E+00  0.000000000E+00  2.815976966E+00  2.815976966E+00  0.000000000E+00  0.00000E+00  9.000E+00
      21    -1     0     0   512   517  0.000000000E+00  0.000000000E+00 -9.525386571E+01  9.525386571E+01  0.000000000E+00  0.00000E+00  9.000E+00
      21     1     1     2   514   517 -9.104815250E+00  5.475801386E+00 -1.050345492E+01  1.494003436E+01  1.192092896E-07  0.00000E+00  9.000E+00
      21     1     1     2   512   511  7.751516625E+00  2.385868759E-01 -5.628192375E+01  5.681371203E+01  0.000000000E+00  0.00000E+00  9.000E+00
      21     1     1     2   511   515  1.353298624E+00 -5.714388262E+00 -2.565251008E+01  2.631609629E+01  0.000000000E+00  0.00000E+00  9.000E+00
</event>
<event>
      5  10001  3.52971E+09  1.88807E+01 -1.00000E+00  1.68456E-01
      21    -1     0     0   513   512  0.000000000E+00  0.000000000E+00  9.952844911E+01  9.952844911E+01  0.000000000E+00  0.00000E+00  9.000E+00
      21    -1     0     0   516   515  0.000000000E+00  0.000000000E+00 -1.269113936E+00  1.269113936E+00  0.000000000E+00  0.00000E+00  9.000E+00
      21     1     1     2   513   515  3.133844769E+00 -1.102356215E-01  1.680404982E+01  1.709412839E+01  2.384185791E-07  0.00000E+00  9.000E+00
      21     1     1     2   516   514 -3.852198978E+00 -2.396155767E+00  8.091331981E+01  8.104039932E+01  0.000000000E+00  0.00000E+00  9.000E+00
      21     1     1     2   514   512  7.183542092E-01  2.506391388E+00  5.419655438E-01  2.663035338E+00  1.835627108E-07  0.00000E+00  9.000E+00
</event>
<event>
      5  10001  3.52971E+09  2.15666E+01 -1.00000E+00  1.63708E-01
      21    -1     0     0   511   515  0.000000000E+00  0.000000000E+00  5.418259417E+01  5.418259417E+01  0.000000000E+00  0.00000E+00  9.000E+00
      21    -1     0     0   517   512  0.000000000E+00  0.000000000E+00 -3.131769283E+00  3.131769283E+00  0.000000000E+00  0.00000E+00  9.000E+00
      21     1     1     2   511   512 -6.172723094E+00 -2.295257950E+00  2.531697353E+01  2.615950817E+01  3.371747881E-07  0.00000E+00  9.000E+00
      21     1     1     2   517   513  2.547425301E+00 -1.235654406E+00  2.593609078E+01  2.609017099E+01  4.768371582E-07  0.00000E+00  9.000E+00
      21     1     1     2   513   515  3.625297793E+00  3.530912356E+00 -2.022394150E-01  5.064684288E+00  1.109486268E-07  0.00000E+00  9.000E+00
</event>
<event>
      5  10001  3.52971E+09  7.97438E+00 -1.00000E+00  2.07848E-01
      21    -1     0     0   514   512  0.000000000E+00  0.000000000E+00  1.566760891E+02  1.566760891E+02  0.000000000E+00  0.00000E+00  9.000E+00
      21    -1     0     0   511   515  0.000000000E+00  0.000000000E+00 -1.772522870E+02  1.772522870E+02  0.000000000E+00  0.00000E+00  9.000E+00
      21     1     1     2   514   515 -1.151463951E+01  5.214525909E+00 -7.522405876E-02  1.264056416E+01  3.554920607E-07  0.00000E+00  9.000E+00
      21     1     1     2   516   512  4.843735196E+00 -9.583709069E+00  1.501084900E+02  1.504920863E+02  2.697398305E-06  0.00000E+00  9.000E+00
      21     1     1     2   511   516  6.670904315E+00  4.369183160E+00 -1.706094639E+02  1.707957257E+02  2.697398305E-06  0.00000E+00  9.000E+00
</event>
<event>
      5  10001  3.52971E+09  1.29624E+01 -1.00000E+00  1.83569E-01
      21    -1     0     0   513   512  0.000000000E+00  0.000000000E+00  1.914204216E+00  1.914204216E+00  0.000000000E+00  0.00000E+00  9.000E+00
       2    -1     0     0   512     0  0.000000000E+00  0.000000000E+00 -6.862223419E+02  6.862223419E+02  0.000000000E+00  0.00000E+00  9.000E+00
      21     1     1     2   513   511  1.048749289E+01 -3.200840970E+00 -1.783312346E+01  2.093449742E+01  4.768371582E-07  0.00000E+00  9.000E+00
       2     1     1     2   514     0 -9.344390779E+00  8.384192998E+00 -6.434735269E+02  6.435960698E+02  3.300000131E-01  0.00000E+00  9.000E+00
      21     1     1     2   511   514 -1.143102108E+00 -5.183352028E+00 -2.300148727E+01  2.360597884E+01  7.539457465E-07  0.00000E+00  9.000E+00
</event>
<event>
      5  10001  3.52971E+09  1.14469E+01 -1.00000E+00  1.89204E-01
      21    -1     0     0   515   511  0.000000000E+00  0.000000000E+00  7.594263150E+02  7.594263150E+02  0.000000000E+00  0.00000E+00  9.000E+00
      21    -1     0     0   513   515  0.000000000E+00  0.000000000E+00 -1.541554858E+00  1.541554858E+00  0.000000000E+00  0.00000E+00  9.000E+00
      21     1     1     2   512   516 -2.870137436E+00 -1.132943408E+01  3.108215745E+01  3.320684082E+01  2.236564522E-06  0.00000E+00  9.000E+00
      21     1     1     2   516   511  1.295302737E+01  1.674862526E+01  6.170386280E+02  6.174017864E+02  7.629394531E-06  0.00000E+00  9.000E+00
      21     1     1     2   513   512 -1.008288994E+01 -5.419191181E+00  1.097639747E+02  1.103592427E+02  1.907348633E-06  0.00000E+00  9.000E+00
</event>
<event>
      5  10001  3.52971E+09  1.14529E+01 -1.00000E+00  1.89180E-01
      21    -1     0     0   514   516  0.000000000E+00  0.000000000E+00  3.265661948E+02  3.265661948E+02  0.000000000E+00  0.00000E+00  9.000E+00
      21    -1     0     0   513   512  0.000000000E+00  0.000000000E+00 -1.720326581E+01  1.720326581E+01  0.000000000E+00  0.00000E+00  9.000E+00
      21     1     1     2   514   512  1.246510824E+01 -1.537371742E+01 -1.104962503E+01  2.266769340E+01  3.769728732E-07  0.00000E+00  9.000E+00
      21     1     1     2   511   516 -5.555802965E-01  5.558608934E+00  8.911704134E+01  8.929195854E+01  9.536743164E-07  0.00000E+00  9.000E+00
      21     1     1     2   513   511 -1.190952794E+01  9.815108488E+00  2.312955126E+02  2.318098086E+02  2.697398305E-06  0.00000E+00  9.000E+00
</event>
<event>
      5  10001  3.52971E+09  3.85531E+00 -1.00000E+00  2.67290E-01
      21    -1     0     0   515   511  0.000000000E+00  0.000000000E+00  1.094026225E+01  1.094026225E+01  0.000000000E+00  0.00000E+00  9.000E+00
      21    -1     0     0   513   517  0.000000000E+00  0.000000000E+00 -1.220549835E+01  1.220549835E+01  0.000000000E+00  0.00000E+00  9.000E+00
      21     1     1     2   515   517 -9.683814489E+00  7.730387600E-01 -4.002200302E+00  1.050673400E+01  1.032382731E-07  0.00000E+00  9.000E+00
      21     1     1     2   512   511  8.896183168E+00  1.319699174E+00  4.241895694E+00  9.943709567E+00  1.576990671E-07  0.00000E+00  9.000E+00
      21     1     1     2   513   512  7.876313213E-01 -2.092737935E+00 -1.504931491E+00  2.695317041E+00  4.214684851E-08  0.00000E+00  9.000E+00
</event>
<event>
      5  10001  3.52971E+09  1.30105E+01 -1.00000E+00  1.83406E-01
      21    -1     0     0   514   512  0.000000000E+00  0.000000000E+00  9.134343531E+01  9.134343531E+01  0.000000000E+00  0.00000E+00  9.000E+00
      21    -1     0     0   513   516  0.000000000E+00  0.000000000E+00 -4.850523351E+01  4.850523351E+01  0.000000000E+00  0.00000E+00  9.000E+00
      21     1     1     2   514   516 -8.841445414E-01 -1.079694886E+01  8.969992180E+01  9.035171159E+01  1.348699152E-06  0.00000E+00  9.000E+00
      21     1     1     2   513   511  3.584514771E+00  8.171073450E-03 -2.160035466E+01  2.189575608E+01  6.743495762E-07  0.00000E+00  9.000E+00
      21     1     1     2   511   512 -2.700370230E+00  1.078877778E+01 -2.526136534E+01  2.760120114E+01  4.768371582E-07  0.00000E+00  9.000E+00
</event>
<event>
      5  10001  3.52971E+09  9.10661E+00 -1.00000E+00  2.00571E-01
      21    -1     0     0   515   511  0.000000000E+00  0.000000000E+00  3.358966081E+00  3.358966081E+00  0.000000000E+00  0.00000E+00  9.000E+00
       2    -1     0     0   512     0  0.000000000E+00  0.000000000E+00 -1.404443194E+03  1.404443194E+03  0.000000000E+00  0.00000E+00  9.000E+00
      21     1     1     2   513   511  9.827865574E+00 -5.363743546E+00 -7.012303008E+00  1.321094546E+01  2.528810911E-07  0.00000E+00  9.000E+00
      21     1     1     2   512   513 -1.109691271E+01 -3.653954751E+00 -1.401298850E+02  1.406160642E+02  1.907348633E-06  0.00000E+00  9.000E+00
       2     1     1     2   515     0  1.269047136E+00  9.017698296E+00 -1.253942040E+03  1.253975151E+03  3.300000131E-01  0.00000E+00  9.000E+00
</event>
<event>
      5  10001  3.52971E+09  6.76017E+00 -1.00000E+00  2.17710E-01
      21    -1     0     0   512   511  0.000000000E+00  0.000000000E+00  7.543979430E+01  7.543979430E+01  0.000000000E+00  0.00000E+00  9.000E+00
       1    -1     0     0   511     0  0.000000000E+00  0.000000000E+00 -3.833811251E+00  3.833811251E+00  0.000000000E+00  0.00000E+00  9.000E+00
      21     1     1     2   512   513  4.717327916E+00 -8.412025483E+00  4.718710901E+01  4.816262672E+01  0.000000000E+00  0.00000E+00  9.000E+00
       1     1     1     2   514     0 -8.837541656E+00  1.120957689E+01  1.869540831E+01  2.352411419E+01  3.300000131E-01  0.00000E+00  9.000E+00
      21     1     1     2   513   514  4.120213740E+00 -2.797551409E+00  5.723465718E+00  7.586864634E+00  1.192092896E-07  0.00000E+00  9.000E+00
</event>
<event>
      5  10001  3.52971E+09  8.87440E+00 -1.00000E+00  2.01945E-01
      21    -1     0     0   515   513  0.000000000E+00  0.000000000E+00  1.233421027E+02  1.233421027E+02  0.000000000E+00  0.00000E+00  9.000E+00
      21    -1     0     0   511   512  0.000000000E+00  0.000000000E+00 -4.973498751E+01  4.973498751E+01  0.000000000E+00  0.00000E+00  9.000E+00
      21     1     1     2   511   516 -2.561320518E+00  1.436720965E+01 -4.490148060E+01  4.721355776E+01  1.066240300E-06  0.00000E+00  9.000E+00
      21     1     1     2   516   513 -5.107400217E+00 -1.883327234E+01  1.144561320E+02  1.161076390E+02  2.336015456E-06  0.00000E+00  9.000E+00
      21     1     1     2   515   512  7.668720735E+00  4.466062686E+00  4.052463763E+00  9.755893408E+00  1.332800375E-07  0.00000E+00  9.000E+00
</event>
<event>
      5  10001  3.52971E+09  7.56202E+00 -1.00000E+00  2.10914E-01
      21    -1     0     0   514   512  0.000000000E+00  0.000000000E+00  6.658602915E+01  6.658602915E+01  0.000000000E+00  0.00000E+00  9.000E+00
      21    -1     0     0   511   517  0.000000000E+00  0.000000000E+00 -4.399887091E+02  4.399887091E+02  0.000000000E+00  0.00000E+00  9.000E+00
      21     1     1     2   514   517  1.211243236E+01  3.532563468E+00  6.582680952E+01  6.702506153E+01  1.348699152E-06  0.00000E+00  9.000E+00
      21     1     1     2   513   512 -6.899683670E+00  2.553587742E+00 -2.996852869E+02  2.997755788E+02  0.000000000E+00  0.00000E+00  9.000E+00
      21     1     1     2   511   513 -5.212748689E+00 -6.086151210E+00 -1.395442026E+02  1.397740980E+02  2.697398305E-06  0.00000E+00  9.000E+00
</event>
<event>
      5  10001  3.52971E+09  2.99384E+01 -1.00000E+00  1.53099E-01
      21    -1     0     0   515   513  0.000000000E+00  0.000000000E+00  2.274934792E+02  2.274934792E+02  0.000000000E+00  0.00000E+00  9.000E+00
      21    -1     0     0   511   515  0.000000000E+00  0.000000000E+00 -1.219261214E+00  1.219261214E+00  0.000000000E+00  0.00000E+00  9.000E+00
      21     1     1     2   511   516  8.830054842E-01  4.263422424E+00  2.656277837E+01  2.691723730E+01  3.371747881E-07  0.00000E+00  9.000E+00
      21     1     1     2   516   512 -2.916785384E-01  3.750363840E+00  1.849532327E+02  1.849914825E+02  0.000000000E+00  0.00000E+00  9.000E+00
      21     1     1     2   512   513 -5.913269458E-01 -8.013786264E+00  1.475820693E+01  1.680402064E+01  4.768371582E-07  0.00000E+00  9.000E+00
</event>
<event>
      5  10001  3.52971E+09  3.69535E+00 -1.00000E+00  2.71840E-01
      21    -1     0     0   515   516  0.000000000E+00  0.000000000E+00  5.295394216E-01  5.295394216E-01  0.000000000E+00  0.00000E+00  9.000E+00
      21    -1     0     0   511   513  0.000000000E+00  0.000000000E+00 -1.698373960E+03  1.698373960E+03  0.000000000E+00  0.00000E+00  9.000E+00
      21     1     1     2   514   513 -1.234768990E+01 -5.377788969E+00 -1.341446278E+03  1.341513885E+03  2.642899792E-05  0.00000E+00  9.000E+00
      21     1     1     2   511   516  9.202017024E+00  3.438632671E+00 -3.488219256E+02  3.489602228E+02  7.629394531E-06  0.00000E+00  9.000E+00
      21     1     1     2   515   514  3.145672874E+00  1.939156298E+00 -7.576217121E+00  8.429392080E+00  5.196212463E-07  0.00000E+00  9.000E+00
</event>
<event>
      5  10001  3.52971E+09  1.70320E+01 -1.00000E+00  1.72335E-01
      21    -1     0     0   512   514  0.000000000E+00  0.000000000E+00  2.350334451E+01  2.350334451E+01  0.000000000E+00  0.00000E+00  9.000E+00
      21    -1     0     0   517   512  0.000000000E+00  0.000000000E+00 -4.589257975E+01  4.589257975E+01  0.000000000E+00  0.00000E+00  9.000E+00
      21     1     1     2   511   514 -5.937373988E+00 -9.358362817E+00  2.041443889E+01  2.322887599E+01  5.331201500E-07  0.00000E+00  9.000E+00
      21     1     1     2   517   513  8.808255818E-01  9.393424304E+00 -1.374354797E+01  1.667025449E+01  1.685873940E-07  0.00000E+00  9.000E+00
      21     1     1     2   513   511  5.056548406E+00 -3.506148683E-02 -2.906012616E+01  2.949679378E+01  0.000000000E+00  0.00000E+00  9.000E+00
</event>
<event>
      5  10001  3.52971E+09  6.00956E+00 -1.00000E+00  2.25358E-01
      21    -1     0     0   515   514  0.000000000E+00  0.000000000E+00  2.630325902E+01  2.630325902E+01  0.000000000E+00  0.00000E+00  9.000E+00
      21    -1     0     0   516   512  0.000000000E+00  0.000000000E+00 -2.184944871E+02  2.184944871E+02  0.000000000E+00  0.00000E+00  9.000E+00
      21     1     1     2   516   511  5.119777559E+00  1.565932908E+01 -1.026798452E+01  1.941283636E+01  5.591411304E-07  0.00000E+00  9.000E+00
      21     1     1     2   511   514  1.902601173E-01 -1.284538983E+01  1.978347598E+01  2.358868714E+01  3.371747881E-07  0.00000E+00  9.000E+00
      21     1     1     2   515   512 -5.310037676E+00 -2.813939243E+00 -2.017067196E+02  2.017962226E+02  2.697398305E-06  0.00000E+00  9.000E+00
</event>
<event>
      5  10001  3.52971E+09  7.75857E+00 -1.00000E+00  2.09421E-01
      21    -1     0     0   513   514  0.000000000E+00  0.000000000E+00  2.740976936E+01  2.740976936E+01  0.000000000E+00  0.00000E+00  9.000E+00
      21    -1     0     0   517   511  0.000000000E+00  0.000000000E+00 -1.684240761E+01  1.684240761E+01  0.000000000E+00  0.00000E+00  9.000E+00
      21     1     1     2   512   514 -3.349526635E+00 -9.441425521E+00  1.772867434E+01  2.036334300E+01  2.384185791E-07  0.00000E+00  9.000E+00
      21     1     1     2   517   512 -2.193080981E+00  1.487050375E+01 -4.776767383E+00  1.577209538E+01  8.429369702E-08  0.00000E+00  9.000E+00
      21     1     1     2   513   511  5.542607616E+00 -5.429078228E+00 -2.384545204E+00  8.116738595E+00  1.861154437E-07  0.00000E+00  9.000E+00
</event>
<event>
      5  10001  3.52971E+09  1.93781E+01 -1.00000E+00  1.67506E-01
      21    -1     0     0   515   511  0.000000000E+00  0.000000000E+00  2.621752908E+01  2.621752908E+01  0.000000000E+00  0.00000E+00  9.000E+00
      21    -1     0     0   514   516  0.000000000E+00  0.000000000E+00 -9.057900315E+00  9.057900315E+00  0.000000000E+00  0.00000E+00  9.000E+00
      21     1     1     2   515   516  1.745839534E+00  8.521131858E+00 -2.345632212E+00  9.008864206E+00  1.548574097E-07  0.00000E+00  9.000E+00
      21     1     1     2   514   512  4.173913804E+00 -5.681242157E+00  1.646909954E+00  7.239501453E+00  8.161702119E-08  0.00000E+00  9.000E+00
      21     1     1     2   512   511 -5.919753338E+00 -2.839889701E+00  1.785835102E+01  1.902706373E+01  3.371747881E-07  0.00000E+00  9.000E+00
</event>
<event>
      5  10001  3.52971E+09  6.92383E+00 -1.00000E+00  2.16222E-01
       2    -1     0     0   513     0  0.000000000E+00  0.000000000E+00  1.773437979E+03  1.773437979E+03  0.000000000E+00  0.00000E+00  9.000E+00
      21    -1     0     0   511   513  0.000000000E+00  0.000000000E+00 -1.313472058E+01  1.313472058E+01  0.000000000E+00  0.00000E+00  9.000E+00
      21     1     1     2   514   512 -3.862469619E+00  1.449387683E+01  8.074029478E+02  8.075422660E+02  1.078959322E-05  0.00000E+00  9.000E+00
      21     1     1     2   511   514 -1.659250331E+00 -1.031658574E+01 -1.096134815E+01  1.514385045E+01  9.233911863E-07  0.00000E+00  9.000E+00
       2     1     1     2   512     0  5.521719950E+00 -4.177291093E+00  9.638616591E+02  9.638865836E+02  3.300000131E-01  0.00000E+00  9.000E+00
</event>
<event>
      5  10001  3.52971E+09  4.57749E+00 -1.00000E+00  2.50385E-01
      21    -1     0     0   511   512  0.000000000E+00  0.000000000E+00  3.974942580E+01  3.974942580E+01  0.000000000E+00  0.00000E+00  9.000E+00
       3    -1     0     0   512     0  0.000000000E+00  0.000000000E+00 -3.188762107E+00  3.188762107E+00  0.000000000E+00  0.00000E+00  9.000E+00
      21     1     1     2   511   515 -5.654252828E+00 -7.699513586E+00  2.484968802E+01  2.662254832E+01  0.000000000E+00  0.00000E+00  9.000E+00
      21     1     1     2   515   513  5.924459833E+00  4.874516809E+00  1.088678053E+01  1.331848823E+01  3.576278687E-07  0.00000E+00  9.000E+00
       3     1     1     2   513     0 -2.702070048E-01  2.824996776E+00  8.241951440E-01  2.997151355E+00  5.000000000E-01  0.00000E+00  9.000E+00
</event>
<event>
      5  10001  3.52971E+09  6.66964E+00 -1.00000E+00  2.18559E-01
      21    -1     0     0   514   513  0.000000000E+00  0.000000000E+00  4.868061865E+01  4.868061865E+01  0.000000000E+00  0.00000E+00  9.000E+00
      21    -1     0     0   512   514  0.000000000E+00  0.000000000E+00 -1.046056529E+02  1.046056529E+02  0.000000000E+00  0.00000E+00  9.000E+00
      21     1     1     2   516   513 -9.810184544E+00  8.334076717E+00  4.599208869E+01  4.775948887E+01  1.348699152E-06  0.00000E+00  9.000E+00
      21     1     1     2   512   511  6.633352888E+00 -4.230048208E+00 -9.948439523E+01  9.979498771E+01  0.000000000E+00  0.00000E+00  9.000E+00
      21     1     1     2   511   516  3.176831656E+00 -4.104028509E+00 -2.432727687E+00  5.731794952E+00  8.429369702E-08  0.00000E+00  9.000E+00
</event>
<event>
      5  10001  3.52971E+09  8.26483E+00 -1.00000E+00  2.05833E-01
      21    -1     0     0   515   512  0.000000000E+00  0.000000000E+00  7.665260873E+02  7.665260873E+02  0.000000000E+00  0.00000E+00  9.000E+00
      21    -1     0     0   513   516  0.000000000E+00  0.000000000E+00 -2.239225509E-01  2.239225509E-01  0.000000000E+00  0.00000E+00  9.000E+00
      21     1     1     2   515   516  1.033183980E+01  1.009545388E+00  5.304181645E+02  5.305197408E+02  1.525878906E-05  0.00000E+00  9.000E+00
      21     1     1     2   514   512 -5.040674746E+00  3.198524850E+00  1.216563769E+02  1.218027627E+02  1.348699152E-06  0.00000E+00  9.000E+00
      21     1     1     2   513   514 -5.291165051E+00 -4.208070238E+00  1.142276234E+02  1.144275064E+02  0.000000000E+00  0.00000E+00  9.000E+00
</event>
<event>
      5  10001  3.52971E+09  8.09632E+00 -1.00000E+00  2.06988E-01
      21    -1     0     0   515   512  0.000000000E+00  0.000000000E+00  5.641135016E+00  5.641135016E+00  0.000000000E+00  0.00000E+00  9.000E+00
       2    -1     0     0   513     0  0.000000000E+00  0.000000000E+00 -4.877301504E+02  4.877301504E+02  0.000000000E+00  0.00000E+00  9.000E+00
      21     1     1     2   513   512 -1.987626418E+00 -1.486104468E+01 -2.479743238E+01  2.897781842E+01  2.105655877E-06  0.00000E+00  9.000E+00
       2     1     1     2   511     0  1.094428239E+00  2.290786430E+01 -4.555309301E+02  4.561079973E+02  3.300000131E-01  0.00000E+00  9.000E+00
      21     1     1     2   515   511  8.931981799E-01 -8.046819612E+00 -1.760652859E+00  8.285469651E+00  2.466581070E-07  0.00000E+00  9.000E+00
</event>
<event>
      5  10001  3.52971E+09  7.96780E+00 -1.00000E+00  2.07895E-01
      21    -1     0     0   513   511  0.000000000E+00  0.000000000E+00  6.144927108E+00  6.144927108E+00  0.000000000E+00  0.00000E+00  9.000E+00
      -1    -1     0     0     0   514  0.000000000E+00  0.000000000E+00 -2.325354020E+01  2.325354020E+01  0.000000000E+00  0.00000E+00  9.000E+00
      -1     1     1     2     0   511 -1.804677808E+00  8.616004231E+00 -1.041302831E+01  1.363937130E+01  3.300000131E-01  0.00000E+00  9.000E+00
      21     1     1     2   512   514 -6.556647333E-01 -6.824273178E+00  1.498892470E+00  7.017640579E+00  2.546311541E-07  0.00000E+00  9.000E+00
      21     1     1     2   513   512  2.460342542E+00 -1.791731052E+00 -8.194477247E+00  8.741455424E+00  1.192092896E-07  0.00000E+00  9.000E+00
</event>
<event>
      5  10001  3.52971E+09  5.63320E+00 -1.00000E+00  2.29806E-01
       2    -1     0     0   515     0  0.000000000E+00  0.000000000E+00  1.205928103E+03  1.205928103E+03  0.000000000E+00  0.00000E+00  9.000E+00
      21    -1     0     0   516   515  0.000000000E+00  0.000000000E+00 -6.268547100E-01  6.268547100E-01  0.000000000E+00  0.00000E+00  9.000E+00
      21     1     1     2   516   517  1.337910729E+00  8.143270142E+00  4.297446730E+01  4.375965829E+01  1.719260824E-06  0.00000E+00  9.000E+00
      21     1     1     2   517   511 -4.448924545E+00 -1.283919362E+01  2.040620311E+02  2.045139369E+02  2.697398305E-06  0.00000E+00  9.000E+00
       2     1     1     2   511     0  3.111013817E+00  4.695923476E+00  9.582647495E+02  9.582813622E+02  3.300000131E-01  0.00000E+00  9.000E+00
</event>
<event>
      5  10001  3.52971E+09  7.62776E+00 -1.00000E+00  2.10408E-01
      21    -1     0     0   515   516  0.000000000E+00  0.000000000E+00  1.569587493E+02  1.569587493E+02  0.000000000E+00  0.00000E+00  9.000E+00
      21    -1     0     0   514   513  0.000000000E+00  0.000000000E+00 -4.136741406E+00  4.136741406E+00  0.000000000E+00  0.00000E+00  9.000E+00
      21     1     1     2   512   513 -1.096162818E+01 -1.182784393E+01  1.648044417E+01  2.305775845E+01  2.384185791E-07  0.00000E+00  9.000E+00
      21     1     1     2   514   516  8.765250179E+00  4.523148351E+00  3.371762809E+01  3.513071200E+01  6.743495762E-07  0.00000E+00  9.000E+00
      21     1     1     2   515   512  2.196378002E+00  7.304695583E+00  1.026239356E+02  1.029070202E+02  1.348699152E-06  0.00000E+00  9.000E+00
</event>
<event>
      5  10001  3.52971E+09  7.99494E+00 -1.00000E+00  2.07701E-01
      21    -1     0     0   511   513  0.000000000E+00  0.000000000E+00  2.401655179E+01  2.401655179E+01  0.000000000E+00  0.00000E+00  9.000E+00
       3    -1     0     0   515     0  0.000000000E+00  0.000000000E+00 -2.631786614E+02  2.631786614E+02  0.000000000E+00  0.00000E+00  9.000E+00
      21     1     1     2   515   514  9.122953970E+00  1.259123733E+01 -6.161166901E+01  6.354341276E+01  1.651812370E-06  0.00000E+00  9.000E+00
       3     1     1     2   511     0 -2.743693262E+00 -7.772275371E+00 -1.998200470E+02  1.999905931E+02  5.000000000E-01  0.00000E+00  9.000E+00
      21     1     1     2   514   513 -6.379260708E+00 -4.818961961E+00  2.226960646E+01  2.366120735E+01  2.384185791E-07  0.00000E+00  9.000E+00
</event>
<event>
      5  10001  3.52971E+09  7.50891E+00 -1.00000E+00  2.11329E-01
      21    -1     0     0   512   511  0.000000000E+00  0.000000000E+00  3.489937081E+01  3.489937081E+01  0.000000000E+00  0.00000E+00  9.000E+00
      21    -1     0     0   514   513  0.000000000E+00  0.000000000E+00 -4.055391781E+01  4.055391781E+01  0.000000000E+00  0.00000E+00  9.000E+00
      21     1     1     2   512   513  5.454286759E+00  5.973318992E+00 -7.253078685E+00  1.086448039E+01  1.192092896E-07  0.00000E+00  9.000E+00
      21     1     1     2   514   515 -6.411906478E+00 -1.342091879E+01 -2.926340481E+01  3.282652079E+01  3.371747881E-07  0.00000E+00  9.000E+00
      21     1     1     2   515   511  9.576197197E-01  7.447599798E+00  3.086193650E+01  3.176228743E+01  4.768371582E-07  0.00000E+00  9.000E+00
</event>
<event>
      5  10001  3.52971E+09  4.82719E+00 -1.00000E+00  2.45602E-01
       4    -1     0     0   512     0  0.000000000E+00  0.000000000E+00  1.173713609E+01  1.173713609E+01  0.000000000E+00  0.00000E+00  9.000E+00
       1    -1     0     0   516     0  0.000000000E+00  0.000000000E+00 -5.195253858E+01  5.195253858E+01  0.000000000E+00  0.00000E+00  9.000E+00
      21     1     1     2   516   515  1.094795183E+01 -1.947271731E+00 -1.967383815E+01  2.259888104E+01  0.000000000E+00  0.00000E+00  9.000E+00
       4     1     1     2   515     0 -9.438549665E+00 -2.632276403E+00  7.628976266E+00  1.250865211E+01  1.500000000E+00  0.00000E+00  9.000E+00
       1     1     1     2   512     0 -1.509402166E+00  4.579548134E+00 -2.817054060E+01  2.858214152E+01  3.300000131E-01  0.00000E+00  9.000E+00
</event>
<event>
      5  10001  3.52971E+09  1.39573E+01 -1.00000E+00  1.80379E-01
      21    -1     0     0   511   515  0.000000000E+00  0.000000000E+00  1.510163817E+00  1.510163817E+00  0.000000000E+00  0.00000E+00  9.000E+00
      21    -1     0     0   513   511  0.000000000E+00  0.000000000E+00 -3.196280276E+02  3.196280276E+02  0.000000000E+00  0.00000E+00  9.000E+00
      21     1     1     2   513   514  1.813745895E+01 -5.076223693E-01 -9.195922119E+01  9.373219009E+01  1.348699152E-06  0.00000E+00  9.000E+00
      21     1     1     2   514   516 -1.202971261E+01  6.108804886E+00 -9.113482947E+01  9.212810985E+01  1.907348633E-06  0.00000E+00  9.000E+00
      21     1     1     2   516   515 -6.107746334E+00 -5.601182516E+00 -1.350238131E+02  1.352778915E+02  1.907348633E-06  0.00000E+00  9.000E+00
</event>
<event>
      5  10001  3.52971E+09  1.35170E+01 -1.00000E+00  1.81747E-01
      21    -1     0     0   512   513  0.000000000E+00  0.000000000E+00  4.010607470E+00  4.010607470E+00  0.000000000E+00  0.00000E+00  9.000E+00
      21    -1     0     0   515   512  0.000000000E+00  0.000000000E+00 -3.756326386E+02  3.756326386E+02  0.000000000E+00  0.00000E+00  9.000E+00
      21     1     1     2   517   513  1.248477872E+01 -8.413562153E+00 -1.178741036E+01  1.912068960E+01  9.078709013E-07  0.00000E+00  9.000E+00
      21     1     1     2   515   511 -1.288415599E-01  6.264331260E+00 -2.295968234E+02  2.296823018E+02  4.672030912E-06  0.00000E+00  9.000E+00
      21     1     1     2   511   517 -1.235593716E+01  2.149230893E+00 -1.302377974E+02  1.308402546E+02  0.000000000E+00  0.00000E+00  9.000E+00
</event>
<event>
      5  10001  3.52971E+09  8.98284E+00 -1.00000E+00  2.01296E-01
      21    -1     0     0   514   513  0.000000000E+00  0.000000000E+00  3.385155345E+02  3.385155345E+02  0.000000000E+00  0.00000E+00  9.000E+00
      21    -1     0     0   516   514  0.000000000E+00  0.000000000E+00 -4.211402171E+00  4.211402171E+00  0.000000000E+00  0.00000E+00  9.000E+00
      21     1     1     2   516   517 -1.388591797E+01 -1.423485395E+00  9.551731214E+00  1.691391728E+01  2.920019320E-07  0.00000E+00  9.000E+00
      21     1     1     2   517   512  1.883937273E+01 -9.464349144E-01  2.915517132E+02  2.921612896E+02  3.814697266E-06  0.00000E+00  9.000E+00
      21     1     1     2   512   513 -4.953454762E+00  2.369920309E+00  3.320068795E+01  3.365172977E+01  0.000000000E+00  0.00000E+00  9.000E+00
</event>
<event>
      5  10001  3.52971E+09  5.62542E+00 -1.00000E+00  2.29903E-01
      -4    -1     0     0     0   511  0.000000000E+00  0.000000000E+00  4.557919386E+01  4.557919386E+01  0.000000000E+00  0.00000E+00  9.000E+00
      21    -1     0     0   512   514  0.000000000E+00  0.000000000E+00 -3.103319899E+01  3.103319899E+01  0.000000000E+00  0.00000E+00  9.000E+00
      -4     1     1     2     0   513  4.275882732E+00 -7.545719506E+00  4.159778575E+01  4.251878215E+01  1.500000000E+00  0.00000E+00  9.000E+00
      21     1     1     2   512   511 -4.027746303E+00  1.316327516E+01 -2.407145622E+01  2.772957912E+01  3.371747881E-07  0.00000E+00  9.000E+00
      21     1     1     2   513   514 -2.481364288E-01 -5.617555657E+00 -2.980334666E+00  6.364031581E+00  0.000000000E+00  0.00000E+00  9.000E+00
</event>
<event>
      5  10001  3.52971E+09  1.17940E+01 -1.00000E+00  1.87818E-01
      21    -1     0     0   515   512  0.000000000E+00  0.000000000E+00  2.225386461E+02  2.225386461E+02  0.000000000E+00  0.00000E+00  9.000E+00
      21    -1     0     0   513   516  0.000000000E+00  0.000000000E+00 -2.040997271E+00  2.040997271E+00  0.000000000E+00  0.00000E+00  9.000E+00
      21     1     1     2   515   516 -1.583130290E+01 -3.845044988E+00  4.432448275E+01  4.722366244E+01  1.066240300E-06  0.00000E+00  9.000E+00
      21     1     1     2   511   512  9.305238071E+00  7.279888700E+00  7.612264532E+01  7.703402732E+01  9.536743164E-07  0.00000E+00  9.000E+00
      21     1     1     2   513   511  6.526064826E+00 -3.434843712E+00  1.000505207E+02  1.003219536E+02  0.000000000E+00  0.00000E+00  9.000E+00
</event>
<event>
      5  10001  3.52971E+09  1.29330E+01 -1.00000E+00  1.83669E-01
       2    -1     0     0   514     0  0.000000000E+00  0.000000000E+00  6.119054492E+02  6.119054492E+02  0.000000000E+00  0.00000E+00  9.000E+00
      -3    -1     0     0     0   514  0.000000000E+00  0.000000000E+00 -3.621950325E+01  3.621950325E+01  0.000000000E+00  0.00000E+00  9.000E+00
      -3     1     1     2     0   515  2.326730506E+00 -6.969424791E+00 -2.521351316E+01  2.626704785E+01  5.000000000E-01  0.00000E+00  9.000E+00
       2     1     1     2   512     0  8.933259758E+00  5.833922831E+00  6.082626445E+02  6.083563030E+02  3.300000131E-01  0.00000E+00  9.000E+00
      21     1     1     2   515   512 -1.125999026E+01  1.135501960E+00 -7.363185430E+00  1.350160158E+01  7.862392639E-07  0.00000E+00  9.000E+00
</event>
<event>
      5  10001  3.52971E+09  8.05623E+00 -1.00000E+00  2.07268E-01
      21    -1     0     0   511   512  0.000000000E+00  0.000000000E+00  1.990687548E+02  1.990687548E+02  0.000000000E+00  0.00000E+00  9.000E+00
       2    -1     0     0   513     0  0.000000000E+00  0.000000000E+00 -1.372435377E+00  1.372435377E+00  0.000000000E+00  0.00000E+00  9.000E+00
      21     1     1     2   514   512 -5.417178555E+00  3.116517227E+00  3.997721998E+01  4.046278068E+01  4.768371582E-07  0.00000E+00  9.000E+00
       2     1     1     2   511     0  1.194609139E+01 -6.453334337E+00  4.460500867E+01  4.662692701E+01  3.300000131E-01  0.00000E+00  9.000E+00
      21     1     1     2   513   514 -6.528912838E+00  3.336817111E+00  1.131140908E+02  1.133514825E+02  1.907348633E-06  0.00000E+00  9.000E+00
</event>
<event>
      5  10001  3.52971E+09  5.95177E+00 -1.00000E+00  2.26011E-01
      21    -1     0     0   515   513  0.000000000E+00  0.000000000E+00  2.410526167E+02  2.410526167E+02  0.000000000E+00  0.00000E+00  9.000E+00
       3    -1     0     0   514     0  0.000000000E+00  0.000000000E+00 -2.513435255E+00  2.513435255E+00  0.000000000E+00  0.00000E+00  9.000E+00
      -5     1     1     2     0   513 -2.668514606E+00  9.257576269E+00  1.824185164E+02  1.827358170E+02  4.800000191E+00  0.00000E+00  9.000E+00
       5     1     1     2   514     0  4.014169397E+00 -1.490016752E+01  4.919990522E+01  5.178609103E+01  4.800000191E+00  0.00000E+00  9.000E+00
       3     1     1     2   515     0 -1.345654791E+00  5.642591255E+00  6.920759845E+00  9.044143946E+00  5.000000000E-01  0.00000E+00  9.000E+00
</event>
<event>
      5  10001  3.52971E+09  1.30766E+01 -1.00000E+00  1.83184E-01
      21    -1     0     0   511   514  0.000000000E+00  0.000000000E+00  1.840365524E+01  1.840365524E+01  0.000000000E+00  0.00000E+00  9.000E+00
      21    -1     0     0   513   512  0.000000000E+00  0.000000000E+00 -7.935909158E+01  7.935909158E+01  0.000000000E+00  0.00000E+00  9.000E+00
      21     1     1     2   511   512 -1.014552767E+01 -3.425413477E+00 -7.559245370E+01  7.634712991E+01  9.536743164E-07  0.00000E+00  9.000E+00
      21     1     1     2   513   516  1.288603010E+00  6.195002995E+00  6.537856545E+00  9.098468444E+00  4.768371582E-07  0.00000E+00  9.000E+00
      21     1     1     2   516   514  8.856924656E+00 -2.769589518E+00  8.099160810E+00  1.231714846E+01  7.251217997E-07  0.00000E+00  9.000E+00
</event>
<event>
      5  10001  3.52971E+09  7.01464E+00 -1.00000E+00  2.15420E-01
      21    -1     0     0   515   512  0.000000000E+00  0.000000000E+00  1.368794219E+02  1.368794219E+02  0.000000000E+00  0.00000E+00  9.000E+00
      21    -1     0     0   517   514  0.000000000E+00  0.000000000E+00 -1.547800113E+00  1.547800113E+00  0.000000000E+00  0.00000E+00  9.000E+00
      21     1     1     2   515   514  6.815858273E+00 -8.805553994E+00  3.504777153E+01  3.677417565E+01  6.743495762E-07  0.00000E+00  9.000E+00
      21     1     1     2   511   512 -1.029182787E+01  7.572825061E+00  7.135327254E+01  7.248833632E+01  1.348699152E-06  0.00000E+00  9.000E+00
      21     1     1     2   517   511  3.475969592E+00  1.232728934E+00  2.893057773E+01  2.916471006E+01  4.768371582E-07  0.00000E+00  9.000E+00
</event>
<event>
      5  10001  3.52971E+09  7.46913E+00 -1.00000E+00  2.11642E-01
      21    -1     0     0   513   514  0.000000000E+00  0.000000000E+00  7.653393146E+01  7.653393146E+01  0.000000000E+00  0.00000E+00  9.000E+00
      21    -1     0     0   516   513  0.000000000E+00  0.000000000E+00 -6.141860188E+01  6.141860188E+01  0.000000000E+00  0.00000E+00  9.000E+00
      21     1     1     2   511   512  1.572599279E+01  4.769151894E-01 -7.485873141E+00  1.742333476E+01  3.674277069E-07  0.00000E+00  9.000E+00
      21     1     1     2   516   511 -8.848160793E+00 -3.389523276E+00 -4.830761613E+01  4.922808745E+01  0.000000000E+00  0.00000E+00  9.000E+00
      21     1     1     2   512   514 -6.877831999E+00  2.912608087E+00  7.090881885E+01  7.130111114E+01  0.000000000E+00  0.00000E+00  9.000E+00
</event>
<event>
      5  10001  3.52971E+09  1.05306E+01 -1.00000E+00  1.93192E-01
      21    -1     0     0   512   511  0.000000000E+00  0.000000000E+00  1.422662582E+00  1.422662582E+00  0.000000000E+00  0.00000E+00  9.000E+00
       1    -1     0     0   511     0  0.000000000E+00  0.000000000E+00 -7.573585205E+02  7.573585205E+02  0.000000000E+00  0.00000E+00  9.000E+00
      21     1     1     2   512   515  1.369518520E+01 -4.822659191E+00 -4.428946861E+01  4.660872418E+01  2.185142372E-06  0.00000E+00  9.000E+00
       1     1     1     2   513     0 -1.865481100E+01  8.204013191E+00 -6.165603243E+02  6.168971148E+02  3.300000131E-01  0.00000E+00  9.000E+00
      21     1     1     2   515   513  4.959625797E+00 -3.381354000E+00 -9.508606496E+01  9.527534410E+01  1.907348633E-06  0.00000E+00  9.000E+00
</event>
<event>
      5  10001  3.52971E+09  4.47906E+00 -1.00000E+00  2.52400E-01
      21    -1     0     0   513   511  0.000000000E+00  0.000000000E+00  1.475017901E+00  1.475017901E+00  0.000000000E+00  0.00000E+00  9.000E+00
       1    -1     0     0   511     0  0.000000000E+00  0.000000000E+00 -1.212534229E+03  1.212534229E+03  0.000000000E+00  0.00000E+00  9.000E+00
      21     1     1     2   513   514  8.725653529E-03  1.059633246E+01 -1.798565770E+01  2.087501427E+01  1.784161275E-06  0.00000E+00  9.000E+00
       1     1     1     2   512     0  1.956203413E-01 -3.895332346E+00 -7.474896427E+02  7.474998908E+02  3.300000131E-01  0.00000E+00  9.000E+00
      21     1     1     2   514   512 -2.043459948E-01 -6.701000117E+00 -4.455839104E+02  4.456343415E+02  7.629394531E-06  0.00000E+00  9.000E+00
</event>
<event>
      5  10001  3.52971E+09  1.09314E+01 -1.00000E+00  1.91386E-01
      21    -1     0     0   515   516  0.000000000E+00  0.000000000E+00  6.526233677E+01  6.526233677E+01  0.000000000E+00  0.00000E+00  9.000E+00
      21    -1     0     0   511   515  0.000000000E+00  0.000000000E+00 -2.149629391E+00  2.149629391E+00  0.000000000E+00  0.00000E+00  9.000E+00
      21     1     1     2   512   516 -7.266550358E+00  7.770950789E+00  3.161709509E+01  3.335912367E+01  0.000000000E+00  0.00000E+00  9.000E+00
      21     1     1     2   511   513 -7.828232432E-01 -3.937603159E+00  8.994200579E+00  9.849526634E+00  2.064765462E-07  0.00000E+00  9.000E+00
      21     1     1     2   513   512  8.049373601E+00 -3.833347630E+00  2.250141171E+01  2.420331586E+01  2.384185791E-07  0.00000E+00  9.000E+00
</event>
<event>
      5  10001  3.52971E+09  4.07652E+00 -1.00000E+00  2.61538E-01
      21    -1     0     0   515   511  0.000000000E+00  0.000000000E+00  3.522046204E+02  3.522046204E+02  0.000000000E+00  0.00000E+00  9.000E+00
      21    -1     0     0   517   514  0.000000000E+00  0.000000000E+00 -1.549772509E+00  1.549772509E+00  0.000000000E+00  0.00000E+00  9.000E+00
      21     1     1     2   517   512  3.111236219E+00 -1.112410657E+01  2.416798635E+01  2.678650970E+01  1.118282261E-06  0.00000E+00  9.000E+00
      21     1     1     2   512   511 -7.160989382E+00  1.159051751E+01  2.588180739E+02  2.591764172E+02  3.814697266E-06  0.00000E+00  9.000E+00
      21     1     1     2   515   514  4.049753163E+00 -4.664109334E-01  6.766878760E+01  6.779146594E+01  9.536743164E-07  0.00000E+00  9.000E+00
</event>
<event>
      5  10001  3.52971E+09  8.71593E+00 -1.00000E+00  2.02915E-01
      21    -1     0     0   512   511  0.000000000E+00  0.000000000E+00  2.252348453E-01  2.252348453E-01  0.000000000E+00  0.00000E+00  9.000E+00
       2    -1     0     0   511     0  0.000000000E+00  0.000000000E+00 -1.266756747E+03  1.266756747E+03  0.000000000E+00  0.00000E+00  9.000E+00
      21     1     1     2   512   513 -9.841716470E+00 -2.618120702E-01 -1.336987569E+02  1.340607531E+02  2.697398305E-06  0.00000E+00  9.000E+00
       2     1     1     2   516     0  4.657490389E+00  4.863153495E+00 -7.060415445E+02  7.060737312E+02  3.300000131E-01  0.00000E+00  9.000E+00
      21     1     1     2   513   516  5.184226081E+00 -4.601341425E+00 -4.267912108E+02  4.268474976E+02  7.629394531E-06  0.00000E+00  9.000E+00
</event>
<event>
      5  10001  3.52971E+09  7.51939E+00 -1.00000E+00  2.11247E-01
      21    -1     0     0   514   513  0.000000000E+00  0.000000000E+00  5.322173725E+00  5.322173725E+00  0.000000000E+00  0.00000E+00  9.000E+00
      21    -1     0     0   511   515  0.000000000E+00  0.000000000E+00 -1.703231398E+02  1.703231398E+02  0.000000000E+00  0.00000E+00  9.000E+00
      21     1     1     2   514   515 -8.118329194E+00 -5.599050426E+00 -1.473055722E+02  1.476353218E+02  1.907348633E-06  0.00000E+00  9.000E+00
      21     1     1     2   512   513  6.342228654E+00  2.838637130E+00  2.623793409E+00  7.427382911E+00  1.931411236E-07  0.00000E+00  9.000E+00
      21     1     1     2   511   512  1.776100540E+00  2.760413297E+00 -2.031918724E+01  2.058260880E+01  2.384185791E-07  0.00000E+00  9.000E+00
</event>
<event>
      5  10001  3.52971E+09  6.09944E+00 -1.00000E+00  2.24363E-01
      -4    -1     0     0     0   516  0.000000000E+00  0.000000000E+00  2.324160496E+02  2.324160496E+02  0.000000000E+00  0.00000E+00  9.000E+00
      21    -1     0     0   513   514  0.000000000E+00  0.000000000E+00 -4.212452187E+01  4.212452187E+01  0.000000000E+00  0.00000E+00  9.000E+00
      -4     1     1     2     0   511  7.228503933E+00  1.394667880E+00  2.221068143E+02  2.222338483E+02  1.500000000E+00  0.00000E+00  9.000E+00
      21     1     1     2   511   514 -1.302173279E+01  5.124843289E-01  5.754002304E+00  1.424558555E+01  1.884864366E-07  0.00000E+00  9.000E+00
      21     1     1     2   513   516  5.793228859E+00 -1.907152209E+00 -3.756928889E+01  3.806113763E+01  4.768371582E-07  0.00000E+00  9.000E+00
</event>
<event>
      5  10001  3.52971E+09  1.31695E+01 -1.00000E+00  1.82875E-01
      21    -1     0     0   512   511  0.000000000E+00  0.000000000E+00  7.018664976E+02  7.018664976E+02  0.000000000E+00  0.00000E+00  9.000E+00
      21    -1     0     0   513   515  0.000000000E+00  0.000000000E+00 -1.528157046E+00  1.528157046E+00  0.000000000E+00  0.00000E+00  9.000E+00
      21     1     1     2   512   515  2.457861219E+00 -1.238435975E+01  6.287101910E+02  6.288369563E+02  7.629394531E-06  0.00000E+00  9.000E+00
      21     1     1     2   514   511  5.894356540E+00  5.711646105E+00  1.680844330E+01  1.870534967E+01  1.092571186E-06  0.00000E+00  9.000E+00
      21     1     1     2   513   514 -8.352217759E+00  6.672713646E+00  5.481970627E+01  5.585234860E+01  1.168007728E-06  0.00000E+00  9.000E+00
</event>
<event>
      5  10001  3.52971E+09  2.51244E+00 -1.00000E+00  3.22371E-01
       2    -1     0     0   512     0  0.000000000E+00  0.000000000E+00  1.973218687E+02  1.973218687E+02  0.000000000E+00  0.00000E+00  9.000E+00
      21    -1     0     0   514   511  0.000000000E+00  0.000000000E+00 -1.971224862E+01  1.971224862E+01  0.000000000E+00  0.00000E+00  9.000E+00
      21     1     1     2   514   516 -1.854992373E+00  1.154342898E+01  1.137718151E+02  1.143709651E+02  0.000000000E+00  0.00000E+00  9.000E+00
       2     1     1     2   516     0  2.843138575E+00 -9.233515110E+00  8.288708841E+01  8.344890391E+01  3.300000131E-01  0.00000E+00  9.000E+00
      21     1     1     2   512   511 -9.881462025E-01 -2.309913871E+00 -1.904928348E+01  1.921424826E+01  4.129530925E-07  0.00000E+00  9.000E+00
</event>
<event>
      5  10001  3.52971E+09  2.07245E+01 -1.00000E+00  1.65101E-01
      21    -1     0     0   513   514  0.000000000E+00  0.000000000E+00  1.243527369E+02  1.243527369E+02  0.000000000E+00  0.00000E+00  9.000E+00
      -1    -1     0     0     0   511  0.000000000E+00  0.000000000E+00 -3.324368049E+00  3.324368049E+00  0.000000000E+00  0.00000E+00  9.000E+00
      -1     1     1     2     0   514 -6.716685724E+00 -4.696099466E+00  8.980651093E+00  1.216257421E+01  3.300000131E-01  0.00000E+00  9.000E+00
      21     1     1     2   515   511  4.411986458E+00  4.490329944E-01  1.102801591E+02  1.103692925E+02  1.907348633E-06  0.00000E+00  9.000E+00
      21     1     1     2   513   515  2.304699266E+00  4.247066471E+00  1.767558699E+00  5.145238194E+00  1.724934116E-07  0.00000E+00  9.000E+00
</event>
<event>
      5  10001  3.52971E+09  4.64174E+00 -1.00000E+00  2.49111E-01
      21    -1     0     0   512   511  0.000000000E+00  0.000000000E+00  3.812022769E+02  3.812022769E+02  0.000000000E+00  0.00000E+00  9.000E+00
      21    -1     0     0   516   512  0.000000000E+00  0.000000000E+00 -3.230137352E+00  3.230137352E+00  0.000000000E+00  0.00000E+00  9.000E+00
      21     1     1     2   515   511  5.265143912E+00  1.134438647E+01  3.582203060E+02  3.584385644E+02  8.529922400E-06  0.00000E+00  9.000E+00
      21     1     1     2   514   515 -8.417649858E+00 -9.989209092E+00  1.305023762E+01  1.846482682E+01  1.450243599E-06  0.00000E+00  9.000E+00
      21     1     1     2   516   514  3.152505946E+00 -1.355177378E+00  6.701595987E+00  7.529023060E+00  1.685873940E-07  0.00000E+00  9.000E+00
</event>
<event>
      5  10001 -3.52971E+09  6.98604E+00 -1.00000E+00  2.15671E-01
      -2    -1     0     0     0   513  0.000000000E+00  0.000000000E+00  6.517130881E+02  6.517130881E+02  0.000000000E+00  0.00000E+00  9.000E+00
      21    -1     0     0   515   511  0.000000000E+00  0.000000000E+00 -6.535322359E+01  6.535322359E+01  0.000000000E+00  0.00000E+00  9.000E+00
      -2     1     1     2     0   512 -5.129355375E+00 -1.001836253E+01  6.497050689E+02  6.498026341E+02  3.300000131E-01  0.00000E+00  9.000E+00
      21     1     1     2   515   513  1.139552155E+01  6.929704692E+00 -5.384008754E+01  5.546741156E+01  4.473129043E-06  0.00000E+00  9.000E+00
      21     1     1     2   512   511 -6.266166179E+00  3.088657841E+00 -9.505116833E+00  1.179626601E+01  1.685873940E-07  0.00000E+00  9.000E+00
</event>
<event>
      5  10001  3.52971E+09  9.50802E+00 -1.00000E+00  1.98320E-01
      21    -1     0     0   514   511  0.000000000E+00  0.000000000E+00  3.668308059E+01  3.668308059E+01  0.000000000E+00  0.00000E+00  9.000E+00
      21    -1     0     0   512   516  0.000000000E+00  0.000000000E+00 -3.519382808E+01  3.519382808E+01  0.000000000E+00  0.00000E+00  9.000E+00
      21     1     1     2   514   516 -6.271027858E+00  1.355840619E+01 -3.102836088E+01  3.443712165E+01  8.920806376E-07  0.00000E+00  9.000E+00
      21     1     1     2   512   513 -1.675821513E+00 -8.850972931E+00  1.947903940E+01  2.146115271E+01  4.129530925E-07  0.00000E+00  9.000E+00
      21     1     1     2   513   511  7.946849371E+00 -4.707433259E+00  1.303857398E+01  1.597863431E+01  4.460403188E-07  0.00000E+00  9.000E+00
</event>
<event>
      5  10001  3.52971E+09  8.35363E+00 -1.00000E+00  2.05239E-01
      21    -1     0     0   515   512  0.000000000E+00  0.000000000E+00  2.924886190E+02  2.924886190E+02  0.000000000E+00  0.00000E+00  9.000E+00
      21    -1     0     0   517   511  0.000000000E+00  0.000000000E+00 -1.981861923E+00  1.981861923E+00  0.000000000E+00  0.00000E+00  9.000E+00
      21     1     1     2   515   511  8.965115186E+00  3.227118799E+00  1.202300836E+01  1.534080559E+01  9.973764736E-07  0.00000E+00  9.000E+00
      21     1     1     2   517   514 -7.707120211E+00 -8.511077382E+00  2.388054767E+02  2.390813541E+02  3.814697266E-06  0.00000E+00  9.000E+00
      21     1     1     2   514   512 -1.257994975E+00  5.283958583E+00  3.967827197E+01  4.004832126E+01  6.743495762E-07  0.00000E+00  9.000E+00
</event>
<event>
      5  10001  3.52971E+09  7.98717E+00 -1.00000E+00  2.07756E-01
      21    -1     0     0   513   511  0.000000000E+00  0.000000000E+00  7.172430615E+01  7.172430615E+01  0.000000000E+00  0.00000E+00  9.000E+00
      21    -1     0     0   516   512  0.000000000E+00  0.000000000E+00 -5.494588368E+00  5.494588368E+00  0.000000000E+00  0.00000E+00  9.000E+00
      21     1     1     2   513   512 -8.474999279E+00 -2.117300462E+00  5.805486201E+01  5.870839444E+01  6.743495762E-07  0.00000E+00  9.000E+00
      21     1     1     2   515   511  4.915626770E+00 -1.806833359E+00 -3.076693086E+00  6.074049199E+00  2.493441184E-07  0.00000E+00  9.000E+00
      21     1     1     2   516   515  3.559372509E+00  3.924133821E+00  1.125154885E+01  1.243645088E+01  1.192092896E-07  0.00000E+00  9.000E+00
</event>
<event>
      5  10001  3.52971E+09  1.13275E+01 -1.00000E+00  1.89696E-01
      21    -1     0     0   514   512  0.000000000E+00  0.000000000E+00  1.237773004E+02  1.237773004E+02  0.000000000E+00  0.00000E+00  9.000E+00
      21    -1     0     0   516   517  0.000000000E+00  0.000000000E+00 -3.470799738E+00  3.470799738E+00  0.000000000E+00  0.00000E+00  9.000E+00
      21     1     1     2   514   517  3.712250291E+00  1.539778470E+01  9.202017277E+01  9.337336222E+01  0.000000000E+00  0.00000E+00  9.000E+00
      21     1     1     2   511   512 -2.018165947E+00 -9.142974698E+00  2.481653229E+01  2.652408820E+01  3.371747881E-07  0.00000E+00  9.000E+00
      21     1     1     2   516   511 -1.694084343E+00 -6.254810001E+00  3.469795630E+00  7.350649741E+00  9.424321831E-08  0.00000E+00  9.000E+00
</event>
<event>
      5  10001  3.52971E+09  9.23503E+00 -1.00000E+00  1.99834E-01
      21    -1     0     0   513   511  0.000000000E+00  0.000000000E+00  6.088431238E+01  6.088431238E+01  0.000000000E+00  0.00000E+00  9.000E+00
      21    -1     0     0   516   515  0.000000000E+00  0.000000000E+00 -1.643129477E+01  1.643129477E+01  0.000000000E+00  0.00000E+00  9.000E+00
      21     1     1     2   513   515  7.976685993E+00 -5.072118620E+00  5.467198947E+01  5.548315365E+01  0.000000000E+00  0.00000E+00  9.000E+00
      21     1     1     2   512   511 -1.157238292E+01 -2.299550253E-01 -1.019761566E+01  1.542609124E+01  4.460403188E-07  0.00000E+00  9.000E+00
      21     1     1     2   516   512  3.595696926E+00  5.302073645E+00 -2.135620142E-02  6.406362260E+00  1.532236159E-07  0.00000E+00  9.000E+00
</event>
<event>
      5  10001  3.52971E+09  6.43728E+00 -1.00000E+00  2.20824E-01
      21    -1     0     0   514   512  0.000000000E+00  0.000000000E+00  8.997940192E+01  8.997940192E+01  0.000000000E+00  0.00000E+00  9.000E+00
      21    -1     0     0   516   514  0.000000000E+00  0.000000000E+00 -3.981668733E+00  3.981668733E+00  0.000000000E+00  0.00000E+00  9.000E+00
      21     1     1     2   516   517 -1.188850361E+01 -2.764206047E+00  8.205730324E+00  1.470752744E+01  3.371747881E-07  0.00000E+00  9.000E+00
      21     1     1     2   517   511  5.482766879E+00  4.152854868E+00  5.795515794E+01  5.836186484E+01  9.536743164E-07  0.00000E+00  9.000E+00
      21     1     1     2   511   512  6.405736734E+00 -1.388648821E+00  1.983684492E+01  2.089167837E+01  3.371747881E-07  0.00000E+00  9.000E+00
</event>
<event>
      5  10001  3.52971E+09  7.40869E+00 -1.00000E+00  2.12123E-01
       1    -1     0     0   513     0  0.000000000E+00  0.000000000E+00  2.188786720E+02  2.188786720E+02  0.000000000E+00  0.00000E+00  9.000E+00
      21    -1     0     0   515   512  0.000000000E+00  0.000000000E+00 -6.214118055E+00  6.214118055E+00  0.000000000E+00  0.00000E+00  9.000E+00
      21     1     1     2   513   512  1.093165705E+01  9.596999478E+00  9.217215475E+00  1.722093452E+01  1.685873940E-07  0.00000E+00  9.000E+00
      21     1     1     2   515   516 -9.684095533E+00 -2.294270328E+00  9.421605693E+00  1.370445316E+01  1.192092896E-07  0.00000E+00  9.000E+00
       1     1     1     2   516     0 -1.247561514E+00 -7.302729150E+00  1.940257328E+02  1.941674024E+02  3.300000131E-01  0.00000E+00  9.000E+00
</event>
<event>
      5  10001  3.52971E+09  2.17944E+00 -1.00000E+00  3.46496E-01
       2    -1     0     0   511     0  0.000000000E+00  0.000000000E+00  1.684404139E+03  1.684404139E+03  0.000000000E+00  0.00000E+00  9.000E+00
       2    -1     0     0   515     0  0.000000000E+00  0.000000000E+00 -8.138379604E-01  8.138379604E-01  0.000000000E+00  0.00000E+00  9.000E+00
      21     1     1     2   515   514  4.699221382E+00 -1.105706111E+01  1.329082749E+02  1.334501811E+02  2.697398305E-06  0.00000E+00  9.000E+00
       2     1     1     2   511     0 -2.532821742E+00  1.081999369E+01  5.645973895E+01  5.754388301E+01  3.300000131E-01  0.00000E+00  9.000E+00
       2     1     1     2   514     0 -2.166399640E+00  2.370674160E-01  1.494222287E+03  1.494223913E+03  3.300000131E-01  0.00000E+00  9.000E+00
</event>
<event>
      5  10001  3.52971E+09  3.58249E+00 -1.00000E+00  2.75277E-01
      21    -1     0     0   512   515  0.000000000E+00  0.000000000E+00  5.307299820E+00  5.307299820E+00  0.000000000E+00  0.00000E+00  9.000E+00
      21    -1     0     0   514   513  0.000000000E+00  0.000000000E+00 -3.098086227E+01  3.098086227E+01  0.000000000E+00  0.00000E+00  9.000E+00
      21     1     1     2   512   513 -1.927344560E+00  1.010302031E+01 -5.092559890E+00  1.147692653E+01  1.976862425E-07  0.00000E+00  9.000E+00
      21     1     1     2   511   515  2.951071614E+00 -1.163467253E+01 -1.817688809E+01  2.178241698E+01  2.384185791E-07  0.00000E+00  9.000E+00
      21     1     1     2   514   511 -1.023727053E+00  1.531652223E+00 -2.404114466E+00  3.028818578E+00  6.664001875E-08  0.00000E+00  9.000E+00
</event>
<event>
      5  10001  3.52971E+09  8.94953E+00 -1.00000E+00  2.01494E-01
      21    -1     0     0   512   511  0.000000000E+00  0.000000000E+00  4.334808815E+01  4.334808815E+01  0.000000000E+00  0.00000E+00  9.000E+00
      21    -1     0     0   514   516  0.000000000E+00  0.000000000E+00 -3.446495442E+02  3.446495442E+02  0.000000000E+00  0.00000E+00  9.000E+00
      21     1     1     2   514   517  1.482541138E+01 -3.739947336E+00 -3.414452501E+02  3.417874177E+02  0.000000000E+00  0.00000E+00  9.000E+00
      21     1     1     2   517   511 -5.946482353E+00  2.618050944E+00  1.668953501E+00  6.708222485E+00  8.935728282E-07  0.00000E+00  9.000E+00
      21     1     1     2   512   516 -8.878929028E+00  1.121896392E+00  3.847484058E+01  3.950199222E+01  1.348699152E-06  0.00000E+00  9.000E+00
</event>
<event>
      5  10001  3.52971E+09  3.64312E+00 -1.00000E+00  2.73406E-01
      21    -1     0     0   513   516  0.000000000E+00  0.000000000E+00  2.417969423E+02  2.417969423E+02  0.000000000E+00  0.00000E+00  9.000E+00
      21    -1     0     0   514   515  0.000000000E+00  0.000000000E+00 -2.868274594E+01  2.868274594E+01  0.000000000E+00  0.00000E+00  9.000E+00
      21     1     1     2   513   515  5.024380359E+00 -8.798953531E+00  2.370067570E+02  2.372232468E+02  2.697398305E-06  0.00000E+00  9.000E+00
      21     1     1     2   511   516 -6.625128692E+00  6.860652462E+00 -2.735941249E+01  2.897409765E+01  1.118282261E-06  0.00000E+00  9.000E+00
      21     1     1     2   514   511  1.600748334E+00  1.938301069E+00  3.466851864E+00  4.282343764E+00  5.960464478E-08  0.00000E+00  9.000E+00
</event>
<event>
      5  10001  3.52971E+09  1.23548E+01 -1.00000E+00  1.85703E-01
      21    -1     0     0   513   511  0.000000000E+00  0.000000000E+00  1.443323719E+01  1.443323719E+01  0.000000000E+00  0.00000E+00  9.000E+00
      21    -1     0     0   514   517  0.000000000E+00  0.000000000E+00 -1.110052243E+02  1.110052243E+02  0.000000000E+00  0.00000E+00  9.000E+00
      21     1     1     2   512   517 -6.641065186E+00 -1.801775503E+01 -2.969686675E+01  3.536448979E+01  0.000000000E+00  0.00000E+00  9.000E+00
      21     1     1     2   514   511  1.601847082E+01  9.973846359E+00 -7.361872411E+01  7.599858919E+01  9.536743164E-07  0.00000E+00  9.000E+00
      21     1     1     2   513   512 -9.377405631E+00  8.043908667E+00  6.743603710E+00  1.407538255E+01  0.000000000E+00  0.00000E+00  9.000E+00
</event>
<event>
      5  10001  3.52971E+09  2.88252E+00 -1.00000E+00  3.02223E-01
      21    -1     0     0   515   517  0.000000000E+00  0.000000000E+00  4.477661909E+01  4.477661909E+01  0.000000000E+00  0.00000E+00  9.000E+00
      21    -1     0     0   516   515  0.000000000E+00  0.000000000E+00 -1.957892279E+01  1.957892279E+01  0.000000000E+00  0.00000E+00  9.000E+00
      21     1     1     2   514   511  1.333812617E+00  1.079994256E+01  6.444158266E+00  1.264693604E+01  8.429369702E-08  0.00000E+00  9.000E+00
      21     1     1     2   516   514  6.565640023E-01 -1.288496708E+01 -1.387876624E+01  1.894923759E+01  2.920019320E-07  0.00000E+00  9.000E+00
      21     1     1     2   511   517 -1.990376620E+00  2.085024520E+00  3.263230427E+01  3.275936825E+01  4.768371582E-07  0.00000E+00  9.000E+00
</event>
<event>
      5  10001  3.52971E+09  7.96170E+00 -1.00000E+00  2.07938E-01
      21    -1     0     0   512   516  0.000000000E+00  0.000000000E+00  1.770239679E+00  1.770239679E+00  0.000000000E+00  0.00000E+00  9.000E+00
      21    -1     0     0   511   513  0.000000000E+00  0.000000000E+00 -9.157457327E+01  9.157457327E+01  0.000000000E+00  0.00000E+00  9.000E+00
      21     1     1     2   512   513  7.830782906E+00  7.091750957E+00 -5.527827274E+01  5.627878401E+01  0.000000000E+00  0.00000E+00  9.000E+00
      21     1     1     2   511   514 -7.137007299E+00 -2.012143178E+00 -2.669733870E+01  2.770800402E+01  0.000000000E+00  0.00000E+00  9.000E+00
      21     1     1     2   514   516 -6.937756069E-01 -5.079607779E+00 -7.828722151E+00  9.358024914E+00  8.429369702E-08  0.00000E+00  9.000E+00
</event>
<event>
      5  10001  3.52971E+09  5.22553E+00 -1.00000E+00  2.35210E-01
      21    -1     0     0   515   511  0.000000000E+00  0.000000000E+00  5.599003763E+01  5.599003763E+01  0.000000000E+00  0.00000E+00  9.000E+00
      21    -1     0     0   517   516  0.000000000E+00  0.000000000E+00 -2.496126641E+01  2.496126641E+01  0.000000000E+00  0.00000E+00  9.000E+00
      21     1     1     2   515   516  7.595296372E+00  8.298068735E+00 -2.284665225E+01  2.546597712E+01  8.259061849E-07  0.00000E+00  9.000E+00
      21     1     1     2   512   511 -4.047714978E+00 -8.586348905E+00  3.431800664E+01  3.560667022E+01  4.768371582E-07  0.00000E+00  9.000E+00
      21     1     1     2   517   512 -3.547581394E+00  2.882801700E-01  1.955741683E+01  1.987865670E+01  2.384185791E-07  0.00000E+00  9.000E+00
</event>
<event>
      5  10001  3.52971E+09  7.11468E+00 -1.00000E+00  2.14555E-01
      21    -1     0     0   513   512  0.000000000E+00  0.000000000E+00  2.989197074E+01  2.989197074E+01  0.000000000E+00  0.00000E+00  9.000E+00
      21    -1     0     0   517   514  0.000000000E+00  0.000000000E+00 -1.179654068E+02  1.179654068E+02  0.000000000E+00  0.00000E+00  9.000E+00
      21     1     1     2   513   514  1.017334377E+01 -1.754579163E+00  2.820447360E+01  3.003444360E+01  8.259061849E-07  0.00000E+00  9.000E+00
      21     1     1     2   517   511 -6.548504416E+00  6.821382842E+00 -9.910177613E+01  9.955187696E+01  1.907348633E-06  0.00000E+00  9.000E+00
      21     1     1     2   511   512 -3.624839351E+00 -5.066803679E+00 -1.717613356E+01  1.827105700E+01  3.371747881E-07  0.00000E+00  9.000E+00
</event>
<event>
      5  10001  3.52971E+09  5.51233E+00 -1.00000E+00  2.31339E-01
      21    -1     0     0   515   514  0.000000000E+00  0.000000000E+00  8.624079132E+01  8.624079132E+01  0.000000000E+00  0.00000E+00  9.000E+00
      21    -1     0     0   516   512  0.000000000E+00  0.000000000E+00 -2.334295735E+01  2.334295735E+01  0.000000000E+00  0.00000E+00  9.000E+00
      21     1     1     2   515   512  1.154344549E+01 -4.600557907E+00  8.214467611E+01  8.307926383E+01  1.348699152E-06  0.00000E+00  9.000E+00
      21     1     1     2   516   513 -9.496354797E+00  8.492516626E+00 -1.777135163E+01  2.186605890E+01  1.039242493E-06  0.00000E+00  9.000E+00
      21     1     1     2   513   514 -2.047090690E+00 -3.891958719E+00 -1.475490505E+00  4.638425939E+00  7.884953353E-08  0.00000E+00  9.000E+00
</event>
<event>
      5  10001  3.52971E+09  7.66596E+00 -1.00000E+00  2.10117E-01
      21    -1     0     0   512   514  0.000000000E+00  0.000000000E+00  3.503374719E+02  3.503374719E+02  0.000000000E+00  0.00000E+00  9.000E+00
      -4    -1     0     0     0   511  0.000000000E+00  0.000000000E+00 -1.444988181E+02  1.444988181E+02  0.000000000E+00  0.00000E+00  9.000E+00
      -4     1     1     2     0   514 -1.565316869E+00 -1.250681937E+01 -1.405963396E+02  1.411681673E+02  1.500000000E+00  0.00000E+00  9.000E+00
      21     1     1     2   513   511 -6.099687793E+00  1.262194056E+01  1.017790521E+01  1.732366385E+01  1.011524364E-06  0.00000E+00  9.000E+00
      21     1     1     2   512   513  7.665004663E+00 -1.151211924E-01  3.362570883E+02  3.363444588E+02  0.000000000E+00  0.00000E+00  9.000E+00
</event>
<event>
      5  10001  3.52971E+09  6.58215E+00 -1.00000E+00  2.19396E-01
       1    -1     0     0   511     0  0.000000000E+00  0.000000000E+00  2.179177326E+02  2.179177326E+02  0.000000000E+00  0.00000E+00  9.000E+00
      21    -1     0     0   513   511  0.000000000E+00  0.000000000E+00 -1.387524891E+00  1.387524891E+00  0.000000000E+00  0.00000E+00  9.000E+00
      21     1     1     2   513   512 -7.901606920E+00 -6.661577423E+00  2.292937572E+01  2.515091005E+01  5.840038640E-07  0.00000E+00  9.000E+00
       1     1     1     2   514     0  2.934281681E+00  8.134861091E+00  1.494855426E+02  1.497358418E+02  3.300000131E-01  0.00000E+00  9.000E+00
      21     1     1     2   512   514  4.967325239E+00 -1.473283667E+00  4.411528935E+01  4.441850560E+01  8.259061849E-07  0.00000E+00  9.000E+00
</event>
<event>
      5  10001  3.52971E+09  3.71896E+00 -1.00000E+00  2.71146E-01
      21    -1     0     0   515   513  0.000000000E+00  0.000000000E+00  3.100083725E+00  3.100083725E+00  0.000000000E+00  0.00000E+00  9.000E+00
      21    -1     0     0   512   516  0.000000000E+00  0.000000000E+00 -3.822177530E+01  3.822177530E+01  0.000000000E+00  0.00000E+00  9.000E+00
      21     1     1     2   515   516 -8.370417247E+00 -5.247584686E+00 -1.971328151E+01  2.205027206E+01  2.384185791E-07  0.00000E+00  9.000E+00
      21     1     1     2   511   513  5.348030109E+00  6.374199896E+00 -1.047869874E+01  1.338039527E+01  3.153981341E-07  0.00000E+00  9.000E+00
      21     1     1     2   512   511  3.022387138E+00 -1.126615210E+00 -4.929711332E+00  5.891191701E+00  8.429369702E-08  0.00000E+00  9.000E+00
</event>
<event>
      5  10001  3.52971E+09  2.42877E+00 -1.00000E+00  3.27787E-01
      21    -1     0     0   513   511  0.000000000E+00  0.000000000E+00  1.312410470E+02  1.312410470E+02  0.000000000E+00  0.00000E+00  9.000E+00
      -1    -1     0     0     0   514  0.000000000E+00  0.000000000E+00 -2.410492361E+01  2.410492361E+01  0.000000000E+00  0.00000E+00  9.000E+00
      -1     1     1     2     0   511  8.375296954E+00 -9.260706072E+00 -2.142385428E+01  2.479912717E+01  3.300000131E-01  0.00000E+00  9.000E+00
      21     1     1     2   512   514 -6.091535014E+00  1.008730007E+01  3.452724687E+01  3.648275206E+01  0.000000000E+00  0.00000E+00  9.000E+00
      21     1     1     2   513   512 -2.283761940E+00 -8.265939976E-01  9.403273081E+01  9.406409139E+01  1.348699152E-06  0.00000E+00  9.000E+00
</event>
<event>
      5  10001  3.52971E+09  9.03454E+00 -1.00000E+00  2.00992E-01
      21    -1     0     0   515   511  0.000000000E+00  0.000000000E+00  2.199867556E+01  2.199867556E+01  0.000000000E+00  0.00000E+00  9.000E+00
      21    -1     0     0   516   515  0.000000000E+00  0.000000000E+00 -1.004996701E+01  1.004996701E+01  0.000000000E+00  0.00000E+00  9.000E+00
      21     1     1     2   516   517  7.263925321E+00 -9.180677415E+00 -1.598037507E-01  1.170790272E+01  3.718718678E-07  0.00000E+00  9.000E+00
      21     1     1     2   514   511 -8.573269718E+00  5.984380162E+00  3.435606561E+00  1.100532380E+01  2.528810911E-07  0.00000E+00  9.000E+00
      21     1     1     2   517   514  1.309344396E+00  3.196297254E+00  8.672905740E+00  9.335416051E+00  1.192092896E-07  0.00000E+00  9.000E+00
</event>
<event>
      5  10001  3.52971E+09  1.20191E+01 -1.00000E+00  1.86951E-01
       3    -1     0     0   512     0  0.000000000E+00  0.000000000E+00  5.759948550E+01  5.759948550E+01  0.000000000E+00  0.00000E+00  9.000E+00
       2    -1     0     0   511     0  0.000000000E+00  0.000000000E+00 -3.888828729E+02  3.888828729E+02  0.000000000E+00  0.00000E+00  9.000E+00
       2     1     1     2   513     0  4.289914615E+01 -6.641233584E-01 -2.424091862E+02  2.461769694E+02  3.300000131E-01  0.00000E+00  9.000E+00
       3     1     1     2   511     0 -7.333596474E+01  7.772822341E+00  2.833185165E+01  7.900331834E+01  5.000000000E-01  0.00000E+00  9.000E+00
      21     1     1     2   512   513  3.043681859E+01 -7.108698983E+00 -1.172060528E+02  1.213020707E+02  2.697398305E-06  0.00000E+00  9.000E+00
</event>
<event>
      5  10001  3.52971E+09  8.29178E+00 -1.00000E+00  2.05652E-01
      21    -1     0     0   514   511  0.000000000E+00  0.000000000E+00  2.189835403E+02  2.189835403E+02  0.000000000E+00  0.00000E+00  9.000E+00
      21    -1     0     0   515   513  0.000000000E+00  0.000000000E+00 -3.321396386E+00  3.321396386E+00  0.000000000E+00  0.00000E+00  9.000E+00
      21     1     1     2   514   513 -4.346443306E+00  2.384228279E+01  1.466993835E+02  1.486877773E+02  0.000000000E+00  0.00000E+00  9.000E+00
      21     1     1     2   515   516  1.183691426E-01 -1.441287190E+01  4.982143541E+01  5.186444171E+01  9.536743164E-07  0.00000E+00  9.000E+00
      21     1     1     2   516   511  4.228074163E+00 -9.429410895E+00  1.914132508E+01  2.175271769E+01  3.371747881E-07  0.00000E+00  9.000E+00
</event>
<event>
      5  10001  3.52971E+09  1.27372E+01 -1.00000E+00  1.84342E-01
      -4    -1     0     0     0   516  0.000000000E+00  0.000000000E+00  3.768540423E+02  3.768540423E+02  0.000000000E+00  0.00000E+00  9.000E+00
      21    -1     0     0   511   512  0.000000000E+00  0.000000000E+00 -3.600538364E+01  3.600538364E+01  0.000000000E+00  0.00000E+00  9.000E+00
      21     1     1     2   515   516  1.023077481E+01 -1.611926606E+01  5.309436398E+01  5.642261052E+01  1.348699152E-06  0.00000E+00  9.000E+00
      21     1     1     2   511   515  2.138355256E+00  1.308193865E+01 -3.292915670E+01  3.549702865E+01  4.768371582E-07  0.00000E+00  9.000E+00
      -4     1     1     2     0   512 -1.236913007E+01  3.037327404E+00  3.206834514E+02  3.209397868E+02  1.500000000E+00  0.00000E+00  9.000E+00
</event>
<event>
      5  10001  3.52971E+09  6.74885E+00 -1.00000E+00  2.17815E-01
      21    -1     0     0   513   511  0.000000000E+00  0.000000000E+00  8.731206254E+00  8.731206254E+00  0.000000000E+00  0.00000E+00  9.000E+00
      21    -1     0     0   516   514  0.000000000E+00  0.000000000E+00 -2.813277165E+02  2.813277165E+02  0.000000000E+00  0.00000E+00  9.000E+00
      21     1     1     2   513   514 -8.642739587E+00 -4.528878595E+00 -2.632448651E+02  2.634256378E+02  0.000000000E+00  0.00000E+00  9.000E+00
      21     1     1     2   516   515  1.276329208E+01  4.060936859E+00  2.895416309E+00  1.370314812E+01  9.620197053E-07  0.00000E+00  9.000E+00
      21     1     1     2   515   511 -4.120552493E+00  4.679417365E-01 -1.224706152E+01  1.293013682E+01  0.000000000E+00  0.00000E+00  9.000E+00
</event>
<event>
      5  10001  3.52971E+09  2.04589E+00 -1.00000E+00  3.58520E-01
      21    -1     0     0   512   514  0.000000000E+00  0.000000000E+00  3.980222679E+02  3.980222679E+02  0.000000000E+00  0.00000E+00  9.000E+00
      -1    -1     0     0     0   511  0.000000000E+00  0.000000000E+00 -1.065376667E+01  1.065376667E+01  0.000000000E+00  0.00000E+00  9.000E+00
      21     1     1     2   512   511 -1.086992691E+01 -2.610703072E+00 -1.677768626E+00  1.130424651E+01  6.147519155E-07  0.00000E+00  9.000E+00
      21     1     1     2   517   514  9.971600471E+00  7.726219301E-01  3.928834762E+02  3.930107577E+02  0.000000000E+00  0.00000E+00  9.000E+00
      -1     1     1     2     0   517  8.983264424E-01  1.838081142E+00 -3.837206401E+00  4.361030343E+00  3.300000131E-01  0.00000E+00  9.000E+00
</event>
<event>
      5  10001  3.52971E+09  5.83484E+00 -1.00000E+00  2.27365E-01
      -1    -1     0     0     0   511  0.000000000E+00  0.000000000E+00  4.123025174E+02  4.123025174E+02  0.000000000E+00  0.00000E+00  9.000E+00
       4    -1     0     0   513     0  0.000000000E+00  0.000000000E+00 -6.146556437E+01  6.146556437E+01  0.000000000E+00  0.00000E+00  9.000E+00
      -1     1     1     2     0   512  5.364733752E+00 -1.006117317E+01  2.683568715E+02  2.685991939E+02  3.300000131E-01  0.00000E+00  9.000E+00
       4     1     1     2   512     0  4.670687251E-01  9.877232937E+00 -6.087701543E+01  6.169310246E+01  1.500000000E+00  0.00000E+00  9.000E+00
      21     1     1     2   513   511 -5.831802477E+00  1.839402325E-01  1.433570970E+02  1.434757854E+02  1.907348633E-06  0.00000E+00  9.000E+00
</event>
<event>
      5  10001  3.52971E+09  8.84679E+00 -1.00000E+00  2.02112E-01
       2    -1     0     0   515     0  0.000000000E+00  0.000000000E+00  2.445069683E+00  2.445069683E+00  0.000000000E+00  0.00000E+00  9.000E+00
      -4    -1     0     0     0   515  0.000000000E+00  0.000000000E+00 -7.146735744E+02  7.146735744E+02  0.000000000E+00  0.00000E+00  9.000E+00
      21     1     1     2   512   514 -5.074922315E+00 -1.189592893E+01 -1.526593981E+02  1.532062655E+02  0.000000000E+00  0.00000E+00  9.000E+00
       2     1     1     2   514     0 -3.723916784E+00  1.277801633E+01 -1.862655631E+01  2.289547461E+01  3.300000131E-01  0.00000E+00  9.000E+00
      -4     1     1     2     0   512  8.798839100E+00 -8.820874001E-01 -5.409425503E+02  5.410169040E+02  1.500000000E+00  0.00000E+00  9.000E+00
</event>
<event>
      5  10001  3.52971E+09  7.58509E+00 -1.00000E+00  2.10736E-01
      21    -1     0     0   511   512  0.000000000E+00  0.000000000E+00  1.946174534E+02  1.946174534E+02  0.000000000E+00  0.00000E+00  9.000E+00
      -2    -1     0     0     0   511  0.000000000E+00  0.000000000E+00 -3.712087080E+01  3.712087080E+01  0.000000000E+00  0.00000E+00  9.000E+00
      21     1     1     2   516   512 -1.133903530E+01  1.967590208E+00  1.823447032E+02  1.827075146E+02  0.000000000E+00  0.00000E+00  9.000E+00
      21     1     1     2   513   516  1.232981575E+01  5.552481786E+00  7.732621861E+00  1.557715799E+01  0.000000000E+00  0.00000E+00  9.000E+00
      -2     1     1     2     0   513 -9.907804487E-01 -7.520071994E+00 -3.258074240E+01  3.345365158E+01  3.300000131E-01  0.00000E+00  9.000E+00
</event>
<event>
      5  10001  3.52971E+09  2.67379E+00 -1.00000E+00  3.12900E-01
      21    -1     0     0   513   511  0.000000000E+00  0.000000000E+00  4.277258413E+01  4.277258413E+01  0.000000000E+00  0.00000E+00  9.000E+00
       1    -1     0     0   512     0  0.000000000E+00  0.000000000E+00 -5.071423936E+00  5.071423936E+00  0.000000000E+00  0.00000E+00  9.000E+00
      21     1     1     2   513   514 -1.531247894E+00 -1.325805815E+01  2.529062906E+01  2.859609667E+01  5.840038640E-07  0.00000E+00  9.000E+00
       1     1     1     2   514     0  3.157253633E-01  1.087698283E+01  6.299738675E+00  1.257791896E+01  3.300000131E-01  0.00000E+00  9.000E+00
      21     1     1     2   512   511  1.215522530E+00  2.381075318E+00  6.110792460E+00  6.669992442E+00  8.429369702E-08  0.00000E+00  9.000E+00
</event>
<event>
      5  10001  3.52971E+09  5.64348E+00 -1.00000E+00  2.29678E-01
      21    -1     0     0   512   511  0.000000000E+00  0.000000000E+00  2.403240532E+01  2.403240532E+01  0.000000000E+00  0.00000E+00  9.000E+00
       2    -1     0     0   514     0  0.000000000E+00  0.000000000E+00 -8.912999194E+00  8.912999194E+00  0.000000000E+00  0.00000E+00  9.000E+00
      21     1     1     2   513   511 -2.385887952E+00 -5.209550456E+00  1.403284358E+01  1.515759138E+01  2.920019320E-07  0.00000E+00  9.000E+00
       2     1     1     2   512     0  7.696629708E+00  7.293164397E+00 -2.692613260E+00  1.094474403E+01  3.300000131E-01  0.00000E+00  9.000E+00
      21     1     1     2   514   513 -5.310741756E+00 -2.083613941E+00  3.779175805E+00  6.843069108E+00  1.460009660E-07  0.00000E+00  9.000E+00
</event>
<event>
      5  10001  3.52971E+09  5.27940E+00 -1.00000E+00  2.34456E-01
       1    -1     0     0   514     0  0.000000000E+00  0.000000000E+00  3.448478339E+02  3.448478339E+02  0.000000000E+00  0.00000E+00  9.000E+00
      21    -1     0     0   515   512  0.000000000E+00  0.000000000E+00 -1.000417243E+01  1.000417243E+01  0.000000000E+00  0.00000E+00  9.000E+00
      21     1     1     2   514   512  8.601338939E+00 -9.166497177E+00 -5.861069762E+00  1.386938502E+01  5.960464478E-07  0.00000E+00  9.000E+00
       1     1     1     2   511     0 -1.818963738E+00  4.495354336E+00  1.814616814E+02  1.815267682E+02  3.300000131E-01  0.00000E+00  9.000E+00
      21     1     1     2   515   511 -6.782375202E+00  4.671142841E+00  1.592430499E+02  1.594558532E+02  1.907348633E-06  0.00000E+00  9.000E+00
</event>
<event>
      5  10001  3.52971E+09  5.58358E+00 -1.00000E+00  2.30429E-01
      21    -1     0     0   513   511  0.000000000E+00  0.000000000E+00  2.900657943E+02  2.900657943E+02  0.000000000E+00  0.00000E+00  9.000E+00
      21    -1     0     0   515   516  0.000000000E+00  0.000000000E+00 -8.126247539E-01  8.126247539E-01  0.000000000E+00  0.00000E+00  9.000E+00
      21     1     1     2   513   516 -1.027979215E+01 -8.754342392E+00  8.420597953E+01  8.528164882E+01  0.000000000E+00  0.00000E+00  9.000E+00
      21     1     1     2   512   511  3.845546061E+00  7.225559287E+00  1.306858003E+02  1.309418777E+02  0.000000000E+00  0.00000E+00  9.000E+00
      21     1     1     2   515   512  6.434246091E+00  1.528783105E+00  7.436138967E+01  7.465489250E+01  1.348699152E-06  0.00000E+00  9.000E+00
</event>
<event>
      5  10001  3.52971E+09  1.31905E+01 -1.00000E+00  1.82806E-01
      21    -1     0     0   514   512  0.000000000E+00  0.000000000E+00  7.276933696E+01  7.276933696E+01  0.000000000E+00  0.00000E+00  9.000E+00
      21    -1     0     0   515   517  0.000000000E+00  0.000000000E+00 -1.884212463E+00  1.884212463E+00  0.000000000E+00  0.00000E+00  9.000E+00
      21     1     1     2   514   517  4.912384922E+00 -1.729001005E+00  2.485149745E+01  2.539129566E+01  3.371747881E-07  0.00000E+00  9.000E+00
      21     1     1     2   515   511 -8.742531941E+00 -2.450105887E+00  1.370010916E+01  1.643556737E+01  3.769728732E-07  0.00000E+00  9.000E+00
      21     1     1     2   511   512  3.830147019E+00  4.179106892E+00  3.233351788E+01  3.282668639E+01  4.768371582E-07  0.00000E+00  9.000E+00
</event>
<event>
      5  10001  3.52971E+09  3.73649E+00 -1.00000E+00  2.70636E-01
      21    -1     0     0   513   515  0.000000000E+00  0.000000000E+00  1.834549563E+01  1.834549563E+01  0.000000000E+00  0.00000E+00  9.000E+00
      21    -1     0     0   516   512  0.000000000E+00  0.000000000E+00 -8.719600286E+00  8.719600286E+00  0.000000000E+00  0.00000E+00  9.000E+00
      21     1     1     2   513   512 -3.470768912E+00 -8.032219103E+00  1.032207340E+01  1.353173972E+01  1.685873940E-07  0.00000E+00  9.000E+00
      -5     1     1     2     0   515  2.818079389E+00  3.405764173E+00 -1.741461263E+00  6.753775996E+00  4.800000191E+00  0.00000E+00  9.000E+00
       5     1     1     2   516     0  6.526895226E-01  4.626454930E+00  1.045283202E+00  6.779580196E+00  4.800000191E+00  0.00000E+00  9.000E+00
</event>
<event>
      5  10001  3.52971E+09  9.66584E+00 -1.00000E+00  1.97474E-01
      21    -1     0     0   511   512  0.000000000E+00  0.000000000E+00  3.854928088E+01  3.854928088E+01  0.000000000E+00  0.00000E+00  9.000E+00
      21    -1     0     0   516   514  0.000000000E+00  0.000000000E+00 -9.647632634E+00  9.647632634E+00  0.000000000E+00  0.00000E+00  9.000E+00
      21     1     1     2   511   514 -2.443416068E+00  1.775360523E+01  6.335378025E+00  1.900783511E+01  3.371747881E-07  0.00000E+00  9.000E+00
      21     1     1     2   516   513 -9.145719715E-01 -3.558894054E+00  2.781663084E+00  4.608667735E+00  8.429369702E-08  0.00000E+00  9.000E+00
      21     1     1     2   513   512  3.357988040E+00 -1.419471118E+01  1.978460713E+01  2.458041067E+01  3.371747881E-07  0.00000E+00  9.000E+00
</event>
<event>
      5  10001  3.52971E+09  4.03970E+00 -1.00000E+00  2.62455E-01
      21    -1     0     0   511   514  0.000000000E+00  0.000000000E+00  2.363488782E+01  2.363488782E+01  0.000000000E+00  0.00000E+00  9.000E+00
      21    -1     0     0   512   515  0.000000000E+00  0.000000000E+00 -2.541945140E+02  2.541945140E+02  0.000000000E+00  0.00000E+00  9.000E+00
      21     1     1     2   512   517  7.068427000E+00  6.678423816E+00 -2.149589902E+02  2.151788360E+02  2.697398305E-06  0.00000E+00  9.000E+00
      21     1     1     2   517   514 -1.096152843E+01 -5.600046443E+00 -3.797206471E+01  3.991733112E+01  8.259061849E-07  0.00000E+00  9.000E+00
      21     1     1     2   511   515  3.893101432E+00 -1.078377373E+00  2.237142872E+01  2.273323469E+01  4.129530925E-07  0.00000E+00  9.000E+00
</event>
<event>
      5  10001  3.52971E+09  1.00152E+01 -1.00000E+00  1.95676E-01
      21    -1     0     0   513   515  0.000000000E+00  0.000000000E+00  1.059589846E+02  1.059589846E+02  0.000000000E+00  0.00000E+00  9.000E+00
      -2    -1     0     0     0   516  0.000000000E+00  0.000000000E+00 -5.099038228E+01  5.099038228E+01  0.000000000E+00  0.00000E+00  9.000E+00
      21     1     1     2   513   516 -2.173998843E+01 -6.200517603E+00  7.813263859E+01  8.133746202E+01  9.536743164E-07  0.00000E+00  9.000E+00
      21     1     1     2   512   515  1.179242206E+01  7.362368204E+00  2.381518690E+01  2.757587371E+01  3.371747881E-07  0.00000E+00  9.000E+00
      -2     1     1     2     0   512  9.947566369E+00 -1.161850602E+00 -4.697922320E+01  4.803603112E+01  3.300000131E-01  0.00000E+00  9.000E+00
</event>
<event>
      5  10001  3.52971E+09  6.60165E+00 -1.00000E+00  2.19208E-01
      -1    -1     0     0     0   515  0.000000000E+00  0.000000000E+00  5.473702711E+00  5.473702711E+00  0.000000000E+00  0.00000E+00  9.000E+00
      21    -1     0     0   514   511  0.000000000E+00  0.000000000E+00 -1.118938090E+02  1.118938090E+02  0.000000000E+00  0.00000E+00  9.000E+00
      21     1     1     2   512   515  1.207064150E+01 -1.636496958E+00 -3.138370953E+01  3.366475505E+01  5.840038640E-07  0.00000E+00  9.000E+00
      21     1     1     2   514   512 -9.801907880E+00  7.835626635E+00 -7.599500382E+01  7.702411991E+01  1.348699152E-06  0.00000E+00  9.000E+00
      -1     1     1     2     0   511 -2.268733620E+00 -6.199129677E+00  9.586070835E-01  6.678636728E+00  3.300000131E-01  0.00000E+00  9.000E+00
</event>
<event>
      5  10001  3.52971E+09  4.58061E+00 -1.00000E+00  2.50322E-01
      21    -1     0     0   513   511  0.000000000E+00  0.000000000E+00  4.728122037E+01  4.728122037E+01  0.000000000E+00  0.00000E+00  9.000E+00
      21    -1     0     0   512   516  0.000000000E+00  0.000000000E+00 -5.500010255E+01  5.500010255E+01  0.000000000E+00  0.00000E+00  9.000E+00
      21     1     1     2   513   516  1.489168765E+01  2.392640337E+00 -7.851067346E+00  1.700371569E+01  1.460009660E-07  0.00000E+00  9.000E+00
      21     1     1     2   515   511 -1.096292844E+01 -4.747804793E+00  4.174119833E+01  4.341722111E+01  4.768371582E-07  0.00000E+00  9.000E+00
      21     1     1     2   512   515 -3.928759213E+00  2.355164456E+00 -4.160901317E+01  4.186038612E+01  6.743495762E-07  0.00000E+00  9.000E+00
</event>
<event>
      5  10001  3.52971E+09  1.04220E+01 -1.00000E+00  1.93700E-01
      21    -1     0     0   514   515  0.000000000E+00  0.000000000E+00  8.942198968E-01  8.942198968E-01  0.000000000E+00  0.00000E+00  9.000E+00
      21    -1     0     0   512   514  0.000000000E+00  0.000000000E+00 -1.311487943E+02  1.311487943E+02  0.000000000E+00  0.00000E+00  9.000E+00
      21     1     1     2   512   517  7.657502043E+00 -4.261142208E+00 -5.539820927E+01  5.608704182E+01  6.743495762E-07  0.00000E+00  9.000E+00
      21     1     1     2   517   511 -3.413750286E+00  1.422036544E+00 -6.218108165E+01  6.229095275E+01  6.743495762E-07  0.00000E+00  9.000E+00
      21     1     1     2   511   515 -4.243751758E+00  2.839105664E+00 -1.267528349E+01  1.366501963E+01  1.685873940E-07  0.00000E+00  9.000E+00
</event>
<event>
      5  10001  3.52971E+09  3.24161E+00 -1.00000E+00  2.87010E-01
      21    -1     0     0   511   513  0.000000000E+00  0.000000000E+00  1.792594091E+02  1.792594091E+02  0.000000000E+00  0.00000E+00  9.000E+00
       2    -1     0     0   515     0  0.000000000E+00  0.000000000E+00 -2.285311853E+00  2.285311853E+00  0.000000000E+00  0.00000E+00  9.000E+00
      21     1     1     2   515   513 -5.805049867E+00  9.980848052E+00  1.495523418E+02  1.499973962E+02  1.907348633E-06  0.00000E+00  9.000E+00
       2     1     1     2   512     0  4.486500578E+00 -1.017552746E+01  1.319989431E+01  1.726314445E+01  3.300000131E-01  0.00000E+00  9.000E+00
      21     1     1     2   511   512  1.318549290E+00  1.946794129E-01  1.422186120E+01  1.428418035E+01  0.000000000E+00  0.00000E+00  9.000E+00
</event>
<event>
      5  10001  3.52971E+09  3.84690E+00 -1.00000E+00  2.67520E-01
      21    -1     0     0   515   513  0.000000000E+00  0.000000000E+00  1.378579685E+02  1.378579685E+02  0.000000000E+00  0.00000E+00  9.000E+00
      -1    -1     0     0     0   514  0.000000000E+00  0.000000000E+00 -2.171531812E+00  2.171531812E+00  0.000000000E+00  0.00000E+00  9.000E+00
      -1     1     1     2     0   512 -1.398798264E+01 -2.524911086E+00  7.670094272E+01  7.800757879E+01  3.300000131E-01  0.00000E+00  9.000E+00
      21     1     1     2   515   514  1.093012117E+01  1.914668365E-01  1.954616023E+01  2.239545910E+01  6.307962682E-07  0.00000E+00  9.000E+00
      21     1     1     2   512   513  3.057861467E+00  2.333444250E+00  3.943933377E+01  3.962646246E+01  0.000000000E+00  0.00000E+00  9.000E+00
</event>
<event>
      5  10001  3.52971E+09  4.55888E+00 -1.00000E+00  2.50760E-01
      21    -1     0     0   514   513  0.000000000E+00  0.000000000E+00  5.367781439E+00  5.367781439E+00  0.000000000E+00  0.00000E+00  9.000E+00
       3    -1     0     0   512     0  0.000000000E+00  0.000000000E+00 -6.653709731E+01  6.653709731E+01  0.000000000E+00  0.00000E+00  9.000E+00
      21     1     1     2   512   513 -8.206403947E+00  9.614504109E-01 -2.991510467E+01  3.103518874E+01  3.371747881E-07  0.00000E+00  9.000E+00
       3     1     1     2   511     0  1.270789687E+01 -1.675686373E+00 -3.343920764E+01  3.581520872E+01  5.000000000E-01  0.00000E+00  9.000E+00
      21     1     1     2   514   511 -4.501492928E+00  7.142359623E-01  2.184996447E+00  5.054481285E+00  7.884953353E-08  0.00000E+00  9.000E+00
</event>
<event>
      5  10001  3.52971E+09  4.98331E+00 -1.00000E+00  2.42826E-01
      21    -1     0     0   515   512  0.000000000E+00  0.000000000E+00  6.908026563E+01  6.908026563E+01  0.000000000E+00  0.00000E+00  9.000E+00
      21    -1     0     0   513   515  0.000000000E+00  0.000000000E+00 -6.580687500E+01  6.580687500E+01  0.000000000E+00  0.00000E+00  9.000E+00
      21     1     1     2   511   512 -4.657857799E+00  7.508683788E+00  5.395533274E+01  5.467406975E+01  0.000000000E+00  0.00000E+00  9.000E+00
      21     1     1     2   516   511  3.859984651E+00 -1.242770617E+01  1.177965792E+01  1.755299698E+01  0.000000000E+00  0.00000E+00  9.000E+00
      21     1     1     2   513   516  7.978731475E-01  4.919022380E+00 -6.246160003E+01  6.266007390E+01  6.743495762E-07  0.00000E+00  9.000E+00
</event>
<event>
      5  10001  3.52971E+09  1.26012E+01 -1.00000E+00  1.84819E-01
      21    -1     0     0   514   511  0.000000000E+00  0.000000000E+00  3.966347243E+00  3.966347243E+00  0.000000000E+00  0.00000E+00  9.000E+00
      21    -1     0     0   513   514  0.000000000E+00  0.000000000E+00 -4.569598071E+01  4.569598071E+01  0.000000000E+00  0.00000E+00  9.000E+00
      21     1     1     2   516   511  1.883236509E-01 -9.120476420E+00 -8.787306728E+00  1.266630631E+01  2.920019320E-07  0.00000E+00  9.000E+00
      21     1     1     2   513   512  5.890580014E+00  7.512820481E+00 -1.329905241E+01  1.637089489E+01  2.384185791E-07  0.00000E+00  9.000E+00
      21     1     1     2   512   516 -6.078903665E+00  1.607655939E+00 -1.964327432E+01  2.062512675E+01  3.371747881E-07  0.00000E+00  9.000E+00
</event>
<event>
      5  10001  3.52971E+09  1.01119E+01 -1.00000E+00  1.95196E-01
      -4    -1     0     0     0   515  0.000000000E+00  0.000000000E+00  2.997518604E+01  2.997518604E+01  0.000000000E+00  0.00000E+00  9.000E+00
      21    -1     0     0   515   514  0.000000000E+00  0.000000000E+00 -6.728914260E+00  6.728914260E+00  0.000000000E+00  0.00000E+00  9.000E+00
      -4     1     1     2     0   511 -2.771829625E+00  4.240401197E+00  1.858602958E+01  1.932238436E+01  1.500000000E+00  0.00000E+00  9.000E+00
      21     1     1     2   512   514  8.513601797E+00 -2.798272512E-01 -7.543645958E-01  8.551536984E+00  1.519626234E-07  0.00000E+00  9.000E+00
      21     1     1     2   511   512 -5.741772172E+00 -3.960573946E+00  5.414606796E+00  8.830178957E+00  0.000000000E+00  0.00000E+00  9.000E+00
</event>
<event>
      5  10001  3.52971E+09  8.62377E+00 -1.00000E+00  2.03492E-01
      21    -1     0     0   513   514  0.000000000E+00  0.000000000E+00  4.892508389E-01  4.892508389E-01  0.000000000E+00  0.00000E+00  9.000E+00
      21    -1     0     0   515   513  0.000000000E+00  0.000000000E+00 -2.596097007E+02  2.596097007E+02  0.000000000E+00  0.00000E+00  9.000E+00
      21     1     1     2   512   514 -8.765546183E+00 -4.798736315E+00 -1.085943466E+02  1.090531741E+02  0.000000000E+00  0.00000E+00  9.000E+00
      21     1     1     2   516   512  1.672504306E+00  5.142990598E+00 -6.796692161E+01  6.818174283E+01  0.000000000E+00  0.00000E+00  9.000E+00
      21     1     1     2   515   516  7.093041877E+00 -3.442542824E-01 -8.255918159E+01  8.286403453E+01  1.651812370E-06  0.00000E+00  9.000E+00
</event>
<event>
      5  10001  3.52971E+09  9.02679E+00 -1.00000E+00  2.01037E-01
      21    -1     0     0   511   515  0.000000000E+00  0.000000000E+00  3.345517518E+00  3.345517518E+00  0.000000000E+00  0.00000E+00  9.000E+00
      21    -1     0     0   514   517  0.000000000E+00  0.000000000E+00 -3.241712579E+01  3.241712579E+01  0.000000000E+00  0.00000E+00  9.000E+00
      21     1     1     2   511   517 -7.185538724E+00 -3.020231377E+00 -1.048464029E+01  1.306451095E+01  1.192092896E-07  0.00000E+00  9.000E+00
      21     1     1     2   512   515  3.100005311E+00  6.773143918E+00 -9.865242731E+00  1.236157456E+01  3.153981341E-07  0.00000E+00  9.000E+00
      21     1     1     2   514   512  4.085533413E+00 -3.752912541E+00 -8.721725247E+00  1.033655780E+01  0.000000000E+00  0.00000E+00  9.000E+00
</event>
<event>
      5  10001  3.52971E+09  1.45577E+01 -1.00000E+00  1.78613E-01
      21    -1     0     0   513   512  0.000000000E+00  0.000000000E+00  4.304868627E+00  4.304868627E+00  0.000000000E+00  0.00000E+00  9.000E+00
      21    -1     0     0   514   516  0.000000000E+00  0.000000000E+00 -4.327922554E+02  4.327922554E+02  0.000000000E+00  0.00000E+00  9.000E+00
      21     1     1     2   513   516 -3.502266283E+00 -9.961924914E+00 -4.018948218E+02  4.020335230E+02  5.394796609E-06  0.00000E+00  9.000E+00
      21     1     1     2   511   512  7.566539616E+00 -8.538429557E-01 -1.970579423E+00  7.865414981E+00  1.082361924E-06  0.00000E+00  9.000E+00
      21     1     1     2   514   511 -4.064273334E+00  1.081576787E+01 -2.462198555E+01  2.719818605E+01  1.011524364E-06  0.00000E+00  9.000E+00
</event>
<event>
      5  10001  3.52971E+09  6.91667E+00 -1.00000E+00  2.16286E-01
      21    -1     0     0   511   512  0.000000000E+00  0.000000000E+00  2.248899098E+02  2.248899098E+02  0.000000000E+00  0.00000E+00  9.000E+00
      21    -1     0     0   515   513  0.000000000E+00  0.000000000E+00 -7.283500106E+00  7.283500106E+00  0.000000000E+00  0.00000E+00  9.000E+00
      -2     1     1     2     0   512  5.561339105E+00  7.025608213E+00  1.437269483E+02  1.440063617E+02  3.300000131E-01  0.00000E+00  9.000E+00
       2     1     1     2   515     0 -9.991254138E+00 -1.233694103E+01  7.834272123E+01  7.993570005E+01  3.300000131E-01  0.00000E+00  9.000E+00
      21     1     1     2   511   513  4.429915033E+00  5.311332819E+00 -4.463259810E+00  8.231348106E+00  3.371747881E-07  0.00000E+00  9.000E+00
</event>
<event>
      5  10001  3.52971E+09  6.70195E+00 -1.00000E+00  2.18254E-01
      21    -1     0     0   514   513  0.000000000E+00  0.000000000E+00  3.862442051E+01  3.862442051E+01  0.000000000E+00  0.00000E+00  9.000E+00
      21    -1     0     0   512   516  0.000000000E+00  0.000000000E+00 -4.408234530E+00  4.408234530E+00  0.000000000E+00  0.00000E+00  9.000E+00
      21     1     1     2   514   516  9.206172832E+00  7.248242396E+00  1.372684526E+01  1.804762912E+01  0.000000000E+00  0.00000E+00  9.000E+00
      21     1     1     2   512   515 -7.658705728E+00 -2.170675506E+00  1.658228572E+01  1.839401547E+01  3.371747881E-07  0.00000E+00  9.000E+00
      21     1     1     2   515   513 -1.547467104E+00 -5.077566890E+00  3.907055011E+00  6.591010455E+00  1.737759082E-07  0.00000E+00  9.000E+00
</event>
<event>
      5  10001  3.52971E+09  2.45515E+01 -1.00000E+00  1.59339E-01
      21    -1     0     0   515   512  0.000000000E+00  0.000000000E+00  1.473976238E+02  1.473976238E+02  0.000000000E+00  0.00000E+00  9.000E+00
      -2    -1     0     0     0   511  0.000000000E+00  0.000000000E+00 -2.437506274E+00  2.437506274E+00  0.000000000E+00  0.00000E+00  9.000E+00
      21     1     1     2   514   512  7.224972646E+00 -7.509203525E+00  3.608427675E+01  3.755879918E+01  4.768371582E-07  0.00000E+00  9.000E+00
      21     1     1     2   515   511 -1.167507021E+01 -5.965534243E+00  4.710191257E+01  4.889258667E+01  6.743495762E-07  0.00000E+00  9.000E+00
      -2     1     1     2     0   514  4.450097559E+00  1.347473777E+01  6.177392819E+01  6.338374421E+01  3.300000131E-01  0.00000E+00  9.000E+00
</event>
<event>
      5  10001  3.52971E+09  4.76721E+00 -1.00000E+00  2.46710E-01
      21    -1     0     0   512   514  0.000000000E+00  0.000000000E+00  1.066966000E+01  1.066966000E+01  0.000000000E+00  0.00000E+00  9.000E+00
      -2    -1     0     0     0   513  0.000000000E+00  0.000000000E+00 -8.128118095E+01  8.128118095E+01  0.000000000E+00  0.00000E+00  9.000E+00
      -2     1     1     2     0   514 -1.358876671E+01  1.410868862E+01 -3.469639722E+01  3.984543331E+01  3.300000131E-01  0.00000E+00  9.000E+00
      21     1     1     2   511   513  1.442153612E+01 -1.880237921E+01 -3.955358168E+01  4.610852407E+01  8.259061849E-07  0.00000E+00  9.000E+00
      21     1     1     2   512   511 -8.327694094E-01  4.693690592E+00  3.638457954E+00  5.996883569E+00  1.788139343E-07  0.00000E+00  9.000E+00
</event>
<event>
      5  10001  3.52971E+09  8.71725E+00 -1.00000E+00  2.02907E-01
      21    -1     0     0   515   513  0.000000000E+00  0.000000000E+00  2.816607080E+00  2.816607080E+00  0.000000000E+00  0.00000E+00  9.000E+00
       2    -1     0     0   512     0  0.000000000E+00  0.000000000E+00 -2.251795166E+03  2.251795166E+03  0.000000000E+00  0.00000E+00  9.000E+00
      21     1     1     2   512   511 -4.775282203E+00 -2.499728018E+01 -1.263796086E+02  1.289165343E+02  7.509239077E-06  0.00000E+00  9.000E+00
       2     1     1     2   515     0  7.556065105E+00  3.325906404E+01 -2.110539256E+03  2.110814848E+03  3.300000131E-01  0.00000E+00  9.000E+00
      21     1     1     2   511   513 -2.780782902E+00 -8.261783860E+00 -1.205969446E+01  1.488039168E+01  7.152557373E-07  0.00000E+00  9.000E+00
</event>
<event>
      5  10001  3.52971E+09  6.75696E+00 -1.00000E+00  2.17740E-01
       4    -1     0     0   511     0  0.000000000E+00  0.000000000E+00  1.849199816E+02  1.849199816E+02  0.000000000E+00  0.00000E+00  9.000E+00
       3    -1     0     0   514     0  0.000000000E+00  0.000000000E+00 -1.130482633E+01  1.130482633E+01  0.000000000E+00  0.00000E+00  9.000E+00
       3     1     1     2   511     0  1.813332535E+01  2.630824022E+00  2.105808416E+01  2.791830281E+01  5.000000000E-01  0.00000E+00  9.000E+00
       4     1     1     2   512     0 -1.225581315E+01 -5.959093458E+00  1.586312166E+02  1.592225758E+02  1.500000000E+00  0.00000E+00  9.000E+00
      21     1     1     2   514   512 -5.877512194E+00  3.328269435E+00 -6.074145559E+00  9.083929288E+00  2.384185791E-07  0.00000E+00  9.000E+00
</event>
<event>
      5  10001  3.52971E+09  1.05351E+01 -1.00000E+00  1.93172E-01
      21    -1     0     0   513   511  0.000000000E+00  0.000000000E+00  1.130362503E+02  1.130362503E+02  0.000000000E+00  0.00000E+00  9.000E+00
      21    -1     0     0   514   513  0.000000000E+00  0.000000000E+00 -2.459406187E+01  2.459406187E+01  0.000000000E+00  0.00000E+00  9.000E+00
      21     1     1     2   512   515 -1.197070366E+00  1.150280078E+01  2.007016177E+01  2.316373884E+01  0.000000000E+00  0.00000E+00  9.000E+00
      21     1     1     2   514   512 -9.331308878E+00 -1.187806379E+01 -2.022629196E+01  2.524410052E+01  5.331201500E-07  0.00000E+00  9.000E+00
      21     1     1     2   515   511  1.052837924E+01  3.752630082E-01  8.859831861E+01  8.922247280E+01  1.651812370E-06  0.00000E+00  9.000E+00
</event>
<event>
      5  10001  3.52971E+09  5.76991E+00 -1.00000E+00  2.28136E-01
      21    -1     0     0   516   514  0.000000000E+00  0.000000000E+00  1.259545138E+02  1.259545138E+02  0.000000000E+00  0.00000E+00  9.000E+00
      21    -1     0     0   515   512  0.000000000E+00  0.000000000E+00 -9.636126377E+00  9.636126377E+00  0.000000000E+00  0.00000E+00  9.000E+00
      21     1     1     2   516   511  1.551992544E+01  5.019083320E+00  2.989792955E+00  1.658306802E+01  5.960464478E-08  0.00000E+00  9.000E+00
      21     1     1     2   515   514 -1.073353337E+01 -1.796922936E+00  1.126765961E+02  1.132009407E+02  1.348699152E-06  0.00000E+00  9.000E+00
      21     1     1     2   511   512 -4.786392070E+00 -3.222160384E+00  6.519983438E-01  5.806631419E+00  1.205981825E-07  0.00000E+00  9.000E+00
</event>
<event>
      5  10001  3.52971E+09  1.98190E+01 -1.00000E+00  1.66692E-01
      21    -1     0     0   513   512  0.000000000E+00  0.000000000E+00  4.251721779E+00  4.251721779E+00  0.000000000E+00  0.00000E+00  9.000E+00
      21    -1     0     0   511   517  0.000000000E+00  0.000000000E+00 -3.132611230E+02  3.132611230E+02  0.000000000E+00  0.00000E+00  9.000E+00
      21     1     1     2   513   517  7.527767606E+00 -1.071767067E+01 -2.945546172E+02  2.948456516E+02  6.607249480E-06  0.00000E+00  9.000E+00
      21     1     1     2   514   512 -4.011118908E+00  6.413317786E+00 -1.527821212E+01  1.704826928E+01  2.920019320E-07  0.00000E+00  9.000E+00
      21     1     1     2   511   514 -3.516648698E+00  4.304352883E+00  8.234281134E-01  5.618923889E+00  1.467594177E-07  0.00000E+00  9.000E+00
</event>
<event>
      5  10001  3.52971E+09  1.55172E+01 -1.00000E+00  1.76004E-01
      21    -1     0     0   511   512  0.000000000E+00  0.000000000E+00  1.376717147E+02  1.376717147E+02  0.000000000E+00  0.00000E+00  9.000E+00
       1    -1     0     0   514     0  0.000000000E+00  0.000000000E+00 -3.203598979E+02  3.203598979E+02  0.000000000E+00  0.00000E+00  9.000E+00
      21     1     1     2   514   512 -3.118611339E+00  1.339968773E+01  1.360927743E+02  1.367864050E+02  1.907348633E-06  0.00000E+00  9.000E+00
       1     1     1     2   513     0  1.549316463E+01 -1.388786984E+01 -2.738289900E+02  2.746185277E+02  3.300000131E-01  0.00000E+00  9.000E+00
      21     1     1     2   511   513 -1.237455329E+01  4.881821146E-01 -4.495196762E+01  4.662667995E+01  8.259061849E-07  0.00000E+00  9.000E+00
</event>
<event>
      5  10001  3.52971E+09  6.89904E+00 -1.00000E+00  2.16444E-01
      21    -1     0     0   515   513  0.000000000E+00  0.000000000E+00  1.172787593E+03  1.172787593E+03  0.000000000E+00  0.00000E+00  9.000E+00
      21    -1     0     0   512   514  0.000000000E+00  0.000000000E+00 -1.806459353E+01  1.806459353E+01  0.000000000E+00  0.00000E+00  9.000E+00
      21     1     1     2   515   516 -3.995824439E+00  7.018677503E+00  6.370140717E+00  1.028625975E+01  1.359195024E-06  0.00000E+00  9.000E+00
      21     1     1     2   512   513  3.148448709E+00 -1.386548375E+01  1.163675184E+03  1.163762045E+03  1.525878906E-05  0.00000E+00  9.000E+00
      21     1     1     2   516   514  8.473757295E-01  6.846806248E+00 -1.532232491E+01  1.680388176E+01  1.283923342E-06  0.00000E+00  9.000E+00
</event>
<event>
      5  10001  3.52971E+09  8.83700E+00 -1.00000E+00  2.02171E-01
      21    -1     0     0   511   513  0.000000000E+00  0.000000000E+00  1.155927715E+02  1.155927715E+02  0.000000000E+00  0.00000E+00  9.000E+00
      21    -1     0     0   517   511  0.000000000E+00  0.000000000E+00 -1.877143465E+00  1.877143465E+00  0.000000000E+00  0.00000E+00  9.000E+00
      21     1     1     2   512   513 -1.181433620E+01 -6.613427376E+00  4.265447957E+01  4.475176632E+01  4.768371582E-07  0.00000E+00  9.000E+00
      21     1     1     2   515   512  3.154429718E+00  5.639303178E+00  2.386995533E+01  2.472907063E+01  3.371747881E-07  0.00000E+00  9.000E+00
      21     1     1     2   517   515  8.659906481E+00  9.741241985E-01  4.719119312E+01  4.798907799E+01  6.743495762E-07  0.00000E+00  9.000E+00
</event>
<event>
      5  10001  3.52971E+09  5.87129E+00 -1.00000E+00  2.26938E-01
      21    -1     0     0   514   515  0.000000000E+00  0.000000000E+00  3.416130557E+01  3.416130557E+01  0.000000000E+00  0.00000E+00  9.000E+00
      21    -1     0     0   513   511  0.000000000E+00  0.000000000E+00 -2.772080223E+01  2.772080223E+01  0.000000000E+00  0.00000E+00  9.000E+00
      21     1     1     2   513   515 -5.417174539E+00  1.448691746E+01  2.732323664E+01  3.139706703E+01  3.371747881E-07  0.00000E+00  9.000E+00
       2     1     1     2   514     0  1.449920380E+00 -1.016021725E+01 -2.220001107E+01  2.445979712E+01  3.300000131E-01  0.00000E+00  9.000E+00
      -2     1     1     2     0   511  3.967254159E+00 -4.326700216E+00  1.317277768E+00  6.025243650E+00  3.300000131E-01  0.00000E+00  9.000E+00
</event>
<event>
      5  10001  3.52971E+09  1.61768E+01 -1.00000E+00  1.74345E-01
      21    -1     0     0   512   513  0.000000000E+00  0.000000000E+00  7.891706829E+00  7.891706829E+00  0.000000000E+00  0.00000E+00  9.000E+00
      21    -1     0     0   516   512  0.000000000E+00  0.000000000E+00 -3.182687690E+02  3.182687690E+02  0.000000000E+00  0.00000E+00  9.000E+00
      21     1     1     2   516   511  5.455083792E-02 -1.064985086E+01 -3.129888973E+02  3.131700371E+02  3.814697266E-06  0.00000E+00  9.000E+00
      21     1     1     2   514   513  3.450224209E-01  4.019362522E+00 -2.377692519E+00  4.682706191E+00  1.763129170E-07  0.00000E+00  9.000E+00
      21     1     1     2   511   514 -3.995732588E-01  6.630488341E+00  4.989527629E+00  8.307732566E+00  4.339283639E-07  0.00000E+00  9.000E+00
</event>
<event>
      5  10001  3.52971E+09  7.98756E+00 -1.00000E+00  2.07754E-01
      21    -1     0     0   515   513  0.000000000E+00  0.000000000E+00  7.401678396E+01  7.401678396E+01  0.000000000E+00  0.00000E+00  9.000E+00
       2    -1     0     0   511     0  0.000000000E+00  0.000000000E+00 -4.933578196E+01  4.933578196E+01  0.000000000E+00  0.00000E+00  9.000E+00
      21     1     1     2   511   512  2.835488985E+00 -6.601075630E+00  6.276949615E+01  6.317929918E+01  9.536743164E-07  0.00000E+00  9.000E+00
       2     1     1     2   515     0  3.963635807E+00  8.986846585E+00 -4.739508804E+01  4.840327562E+01  3.300000131E-01  0.00000E+00  9.000E+00
      21     1     1     2   512   513 -6.799124792E+00 -2.385770955E+00  9.306593893E+00  1.176999112E+01  2.384185791E-07  0.00000E+00  9.000E+00
</event>
<event>
      5  10001  3.52971E+09  1.19501E+01 -1.00000E+00  1.87214E-01
      21    -1     0     0   515   512  0.000000000E+00  0.000000000E+00  3.785444873E+02  3.785444873E+02  0.000000000E+00  0.00000E+00  9.000E+00
      21    -1     0     0   511   513  0.000000000E+00  0.000000000E+00 -2.015927435E+01  2.015927435E+01  0.000000000E+00  0.00000E+00  9.000E+00
      21     1     1     2   514   513 -3.661329000E-01  8.366813047E+00 -1.868157897E+01  2.047288467E+01  1.994752947E-06  0.00000E+00  9.000E+00
      21     1     1     2   511   512  1.231599401E+01 -8.293009744E+00  2.857489920E+02  2.861344861E+02  5.394796609E-06  0.00000E+00  9.000E+00
      21     1     1     2   515   514 -1.194986111E+01 -7.380330317E-02  9.131779992E+01  9.209639086E+01  0.000000000E+00  0.00000E+00  9.000E+00
</event>
<event>
      5  10001  3.52971E+09  4.57704E+00 -1.00000E+00  2.50394E-01
      21    -1     0     0   516   511  0.000000000E+00  0.000000000E+00  2.035830412E+01  2.035830412E+01  0.000000000E+00  0.00000E+00  9.000E+00
       1    -1     0     0   517     0  0.000000000E+00  0.000000000E+00 -3.823248069E+01  3.823248069E+01  0.000000000E+00  0.00000E+00  9.000E+00
      21     1     1     2   516   514  3.157752813E+00 -1.330149513E+01  4.882490982E+00  1.451688306E+01  2.384185791E-07  0.00000E+00  9.000E+00
      21     1     1     2   517   511 -3.558797030E-01  9.682519824E+00  8.252411567E+00  1.272714175E+01  2.920019320E-07  0.00000E+00  9.000E+00
       1     1     1     2   514     0 -2.801873110E+00  3.618975306E+00 -3.100907911E+01  3.134676000E+01  3.300000131E-01  0.00000E+00  9.000E+00
</event>
<event>
      5  10001  3.52971E+09  7.27691E+00 -1.00000E+00  2.13194E-01
      21    -1     0     0   512   515  0.000000000E+00  0.000000000E+00  1.738143345E+01  1.738143345E+01  0.000000000E+00  0.00000E+00  9.000E+00
      21    -1     0     0   514   513  0.000000000E+00  0.000000000E+00 -1.954095028E+02  1.954095028E+02  0.000000000E+00  0.00000E+00  9.000E+00
      21     1     1     2   512   513  9.842093933E+00  5.322006459E+00 -1.907298197E+02  1.910577261E+02  2.697398305E-06  0.00000E+00  9.000E+00
      21     1     1     2   511   515 -6.644146423E+00 -9.683615332E+00  1.092701117E+01  1.604109288E+01  4.915124924E-07  0.00000E+00  9.000E+00
      21     1     1     2   514   511 -3.197947511E+00  4.361608873E+00  1.774739178E+00  5.692117303E+00  6.664001875E-08  0.00000E+00  9.000E+00
</event>
<event>
      5  10001  3.52971E+09  1.16155E+01 -1.00000E+00  1.88523E-01
       2    -1     0     0   513     0  0.000000000E+00  0.000000000E+00  1.892951453E+03  1.892951453E+03  0.000000000E+00  0.00000E+00  9.000E+00
      21    -1     0     0   516   511  0.000000000E+00  0.000000000E+00 -7.976796496E-01  7.976796496E-01  0.000000000E+00  0.00000E+00  9.000E+00
      21     1     1     2   513   512 -6.889277051E+00  1.189795752E+01  1.222179469E+02  1.229888210E+02  2.336015456E-06  0.00000E+00  9.000E+00
       2     1     1     2   516     0  3.410970318E+00 -1.652484744E+01  1.747759284E+03  1.747840762E+03  3.300000131E-01  0.00000E+00  9.000E+00
      21     1     1     2   512   511  3.478306732E+00  4.626889917E+00  2.217654260E+01  2.291954995E+01  2.064765462E-06  0.00000E+00  9.000E+00
</event>
<event>
      5  10001  3.52971E+09  7.13708E+00 -1.00000E+00  2.14365E-01
      -4    -1     0     0     0   514  0.000000000E+00  0.000000000E+00  9.754348699E+01  9.754348699E+01  0.000000000E+00  0.00000E+00  9.000E+00
      21    -1     0     0   513   511  0.000000000E+00  0.000000000E+00 -2.148229609E+00  2.148229609E+00  0.000000000E+00  0.00000E+00  9.000E+00
      -4     1     1     2     0   511  1.209165043E+01  5.763417203E+00  5.570878834E+01  5.731617648E+01  1.500000000E+00  0.00000E+00  9.000E+00
       1     1     1     2   513     0 -3.840669399E+00 -5.328448698E+00  1.683788457E+01  1.807668011E+01  3.300000131E-01  0.00000E+00  9.000E+00
      -1     1     1     2     0   514 -8.250981027E+00 -4.349685057E-01  2.284858447E+01  2.429886001E+01  3.300000131E-01  0.00000E+00  9.000E+00
</event>
<event>
      5  10001  3.52971E+09  5.89920E+00 -1.00000E+00  2.26614E-01
      21    -1     0     0   512   511  0.000000000E+00  0.000000000E+00  5.317017204E+01  5.317017204E+01  0.000000000E+00  0.00000E+00  9.000E+00
      21    -1     0     0   515   513  0.000000000E+00  0.000000000E+00 -1.547989838E+02  1.547989838E+02  0.000000000E+00  0.00000E+00  9.000E+00
      21     1     1     2   512   514 -9.438119124E+00  1.975632563E+00  5.015545404E+01  5.107397367E+01  1.348699152E-06  0.00000E+00  9.000E+00
      21     1     1     2   515   511  1.189337304E+01 -7.339609141E+00 -1.711279492E+01  2.209456799E+01  5.840038640E-07  0.00000E+00  9.000E+00
      21     1     1     2   514   513 -2.455253918E+00  5.363976579E+00 -1.346714708E+02  1.348006142E+02  2.697398305E-06  0.00000E+00  9.000E+00
</event>
<event>
      5  10001  3.52971E+09  1.29686E+01 -1.00000E+00  1.83548E-01
      21    -1     0     0   516   513  0.000000000E+00  0.000000000E+00  6.138343060E-01  6.138343060E-01  0.000000000E+00  0.00000E+00  9.000E+00
      21    -1     0     0   514   517  0.000000000E+00  0.000000000E+00 -9.176714977E+02  9.176714977E+02  0.000000000E+00  0.00000E+00  9.000E+00
      21     1     1     2   516   517  7.970337126E+00 -3.167117297E+00 -3.830155662E+01  3.925004644E+01  6.743495762E-07  0.00000E+00  9.000E+00
       2     1     1     2   514     0 -2.442792739E+00  9.054372083E+00 -7.296158049E+02  7.296761477E+02  3.300000131E-01  0.00000E+00  9.000E+00
      -2     1     1     2     0   513 -5.527544386E+00 -5.887254786E+00 -1.491403018E+02  1.493591378E+02  3.300000131E-01  0.00000E+00  9.000E+00
</event>
<event>
      5  10001  3.52971E+09  9.32916E+00 -1.00000E+00  1.99304E-01
      21    -1     0     0   511   514  0.000000000E+00  0.000000000E+00  2.063792627E+02  2.063792627E+02  0.000000000E+00  0.00000E+00  9.000E+00
      21    -1     0     0   512   511  0.000000000E+00  0.000000000E+00 -4.995868909E+01  4.995868909E+01  0.000000000E+00  0.00000E+00  9.000E+00
      21     1     1     2   513   514 -8.015453331E+00 -9.009979963E+00  2.050015908E+02  2.053559823E+02  3.814697266E-06  0.00000E+00  9.000E+00
      21     1     1     2   512   515  3.024296657E+00  9.359599258E+00 -2.478072949E+01  2.666145200E+01  1.719260824E-06  0.00000E+00  9.000E+00
      21     1     1     2   515   513  4.991156674E+00 -3.496192945E-01 -2.380028769E+01  2.432051752E+01  7.539457465E-07  0.00000E+00  9.000E+00
</event>
<event>
      5  10001  3.52971E+09  6.45101E+00 -1.00000E+00  2.20686E-01
       2    -1     0     0   512     0  0.000000000E+00  0.000000000E+00  2.502988859E+02  2.502988859E+02  0.000000000E+00  0.00000E+00  9.000E+00
      21    -1     0     0   515   514  0.000000000E+00  0.000000000E+00 -7.089105599E+00  7.089105599E+00  0.000000000E+00  0.00000E+00  9.000E+00
      21     1     1     2   512   511 -6.598593643E+00 -1.199236334E+01  1.466794680E+00  1.376625233E+01  5.310335660E-07  0.00000E+00  9.000E+00
       2     1     1     2   515     0  1.907958787E-01  1.273685708E+01  2.288546722E+02  2.292091486E+02  3.300000131E-01  0.00000E+00  9.000E+00
      21     1     1     2   511   514  6.407797765E+00 -7.444937418E-01  1.288831344E+01  1.441259056E+01  1.685873940E-07  0.00000E+00  9.000E+00
</event>
<event>
      5  10001  3.52971E+09  1.82580E+01 -1.00000E+00  1.69699E-01
      21    -1     0     0   514   515  0.000000000E+00  0.000000000E+00  8.187536463E+00  8.187536463E+00  0.000000000E+00  0.00000E+00  9.000E+00
      -4    -1     0     0     0   513  0.000000000E+00  0.000000000E+00 -7.001221140E+01  7.001221140E+01  0.000000000E+00  0.00000E+00  9.000E+00
      -4     1     1     2     0   515  3.023335791E+00 -1.890616116E+01 -2.675658980E+01  3.293552166E+01  1.500000000E+00  0.00000E+00  9.000E+00
      21     1     1     2   512   513 -1.978122810E+00  1.204086050E+01 -3.153939541E+00  1.260327839E+01  4.298152060E-07  0.00000E+00  9.000E+00
      21     1     1     2   514   512 -1.045212981E+00  6.865300655E+00 -3.191414560E+01  3.266094782E+01  0.000000000E+00  0.00000E+00  9.000E+00
</event>
<event>
      5  10001  3.52971E+09  4.03505E+00 -1.00000E+00  2.62572E-01
      21    -1     0     0   511   512  0.000000000E+00  0.000000000E+00  3.600258828E+01  3.600258828E+01  0.000000000E+00  0.00000E+00  9.000E+00
      21    -1     0     0   515   516  0.000000000E+00  0.000000000E+00 -5.173289106E+00  5.173289106E+00  0.000000000E+00  0.00000E+00  9.000E+00
      21     1     1     2   511   516  1.106917793E+00 -1.106146766E+01  3.959290236E+00  1.180073358E+01  1.576990671E-07  0.00000E+00  9.000E+00
       4     1     1     2   515     0 -5.263768134E-01  2.527357052E+00  9.449715420E+00  9.910183033E+00  1.500000000E+00  0.00000E+00  9.000E+00
      -4     1     1     2     0   512 -5.805409793E-01  8.534110609E+00  1.742029352E+01  1.946496077E+01  1.500000000E+00  0.00000E+00  9.000E+00
</event>
<event>
      5  10001  3.52971E+09  1.62323E+01 -1.00000E+00  1.74210E-01
      21    -1     0     0   513   515  0.000000000E+00  0.000000000E+00  1.486245144E+01  1.486245144E+01  0.000000000E+00  0.00000E+00  9.000E+00
      21    -1     0     0   514   512  0.000000000E+00  0.000000000E+00 -2.522003196E+01  2.522003196E+01  0.000000000E+00  0.00000E+00  9.000E+00
      21     1     1     2   513   512 -1.427042773E+01 -4.603935731E+00  1.286239215E+00  1.504977552E+01  2.303663616E-07  0.00000E+00  9.000E+00
      21     1     1     2   514   511  7.471913129E+00 -4.188628119E+00 -1.094216217E+01  1.389622266E+01  2.064765462E-07  0.00000E+00  9.000E+00
      21     1     1     2   511   515  6.798514600E+00  8.792563850E+00 -7.016575684E-01  1.113648522E+01  1.703887675E-07  0.00000E+00  9.000E+00
</event>
<event>
      5  10001  3.52971E+09  6.90664E+00 -1.00000E+00  2.16375E-01
      21    -1     0     0   513   512  0.000000000E+00  0.000000000E+00  1.323923949E+02  1.323923949E+02  0.000000000E+00  0.00000E+00  9.000E+00
      21    -1     0     0   517   515  0.000000000E+00  0.000000000E+00 -3.283626700E+00  3.283626700E+00  0.000000000E+00  0.00000E+00  9.000E+00
      21     1     1     2   516   515  1.185336749E+01 -4.819709085E+00  1.674811227E+01  2.107679248E+01  5.331201500E-07  0.00000E+00  9.000E+00
      21     1     1     2   517   512 -9.455475349E+00 -1.657314053E+00  2.235499568E+01  2.432896495E+01  4.768371582E-07  0.00000E+00  9.000E+00
      21     1     1     2   513   516 -2.397892144E+00  6.477023138E+00  9.000566030E+01  9.027026422E+01  1.348699152E-06  0.00000E+00  9.000E+00
</event>
<event>
      5  10001  3.52971E+09  1.33603E+01 -1.00000E+00  1.82251E-01
      21    -1     0     0   511   512  0.000000000E+00  0.000000000E+00  1.857602701E+02  1.857602701E+02  0.000000000E+00  0.00000E+00  9.000E+00
       3    -1     0     0   513     0  0.000000000E+00  0.000000000E+00 -6.721774604E+00  6.721774604E+00  0.000000000E+00  0.00000E+00  9.000E+00
      21     1     1     2   513   512 -8.552989354E+00 -1.657608303E+01  1.499720747E+02  1.511275731E+02  0.000000000E+00  0.00000E+00  9.000E+00
       3     1     1     2   514     0  1.541900195E+00  9.641645108E+00 -8.893819262E-01  9.817320246E+00  5.000000000E-01  0.00000E+00  9.000E+00
      21     1     1     2   511   514  7.011089159E+00  6.934437917E+00  2.995580276E+01  3.153715142E+01  4.768371582E-07  0.00000E+00  9.000E+00
</event>
<event>
      5  10001  3.52971E+09  4.90230E+00 -1.00000E+00  2.44247E-01
      21    -1     0     0   515   514  0.000000000E+00  0.000000000E+00  1.619369089E+00  1.619369089E+00  0.000000000E+00  0.00000E+00  9.000E+00
      21    -1     0     0   514   512  0.000000000E+00  0.000000000E+00 -7.689401642E+02  7.689401642E+02  0.000000000E+00  0.00000E+00  9.000E+00
      -2     1     1     2     0   511  1.417797382E+01  5.297442908E-01 -2.907967249E+02  2.911428167E+02  3.300000131E-01  0.00000E+00  9.000E+00
       2     1     1     2   515     0 -1.077265580E+01  2.996307967E+00 -2.039578624E+01  2.326209300E+01  3.300000131E-01  0.00000E+00  9.000E+00
      21     1     1     2   511   512 -3.405318024E+00 -3.526052258E+00 -4.561282840E+02  4.561546236E+02  5.394796609E-06  0.00000E+00  9.000E+00
</event>
<event>
      5  10001  3.52971E+09  3.34163E+01 -1.00000E+00  1.49854E-01
      21    -1     0     0   513   512  0.000000000E+00  0.000000000E+00  2.915363208E+01  2.915363208E+01  0.000000000E+00  0.00000E+00  9.000E+00
      21    -1     0     0   511   516  0.000000000E+00  0.000000000E+00 -1.687572215E+01  1.687572215E+01  0.000000000E+00  0.00000E+00  9.000E+00
      21     1     1     2   513   516  7.478489339E+00 -3.168318685E+00 -4.530049348E-01  8.134571872E+00  3.624460503E-07  0.00000E+00  9.000E+00
      21     1     1     2   511   514 -2.019732951E+00 -1.099140823E+00  2.430050880E+01  2.440905896E+01  4.768371582E-07  0.00000E+00  9.000E+00
      21     1     1     2   514   512 -5.458756388E+00  4.267459508E+00 -1.156959393E+01  1.348572340E+01  4.768371582E-07  0.00000E+00  9.000E+00
</event>
<event>
      5  10001  3.52971E+09  4.06892E+00 -1.00000E+00  2.61726E-01
      -1    -1     0     0     0   511  0.000000000E+00  0.000000000E+00  3.046211523E+01  3.046211523E+01  0.000000000E+00  0.00000E+00  9.000E+00
      21    -1     0     0   513   514  0.000000000E+00  0.000000000E+00 -7.777657923E+01  7.777657923E+01  0.000000000E+00  0.00000E+00  9.000E+00
      -1     1     1     2     0   514  7.637554868E+00 -8.834237642E+00  2.695508896E+01  2.937791211E+01  3.300000131E-01  0.00000E+00  9.000E+00
      21     1     1     2   513   512 -1.119013537E+01  1.081788373E+01 -7.293715379E+01  7.457931443E+01  1.651812370E-06  0.00000E+00  9.000E+00
      21     1     1     2   512   511  3.552580497E+00 -1.983646091E+00 -1.332399175E+00  4.281467922E+00  7.146345859E-08  0.00000E+00  9.000E+00
</event>
<event>
      5  10001  3.52971E+09  4.22529E+00 -1.00000E+00  2.57978E-01
      21    -1     0     0   513   514  0.000000000E+00  0.000000000E+00  2.331106482E+01  2.331106482E+01  0.000000000E+00  0.00000E+00  9.000E+00
       2    -1     0     0   511     0  0.000000000E+00  0.000000000E+00 -6.369932384E+01  6.369932384E+01  0.000000000E+00  0.00000E+00  9.000E+00
      21     1     1     2   513   512 -5.477228239E+00  1.053990256E+01  1.337921044E+01  1.789113879E+01  2.384185791E-07  0.00000E+00  9.000E+00
       2     1     1     2   512     0  9.494316446E+00 -9.230178708E+00 -6.008021137E+01  6.152299523E+01  3.300000131E-01  0.00000E+00  9.000E+00
      21     1     1     2   511   514 -4.017088207E+00 -1.309723856E+00  6.312741915E+00  7.596254651E+00  1.685873940E-07  0.00000E+00  9.000E+00
</event>
<event>
      5  10001  3.52971E+09  8.09224E+00 -1.00000E+00  2.07016E-01
      -1    -1     0     0     0   511  0.000000000E+00  0.000000000E+00  2.536515721E+02  2.536515721E+02  0.000000000E+00  0.00000E+00  9.000E+00
       2    -1     0     0   511     0  0.000000000E+00  0.000000000E+00 -8.456520269E+00  8.456520269E+00  0.000000000E+00  0.00000E+00  9.000E+00
      21     1     1     2   512   513  1.793856828E+00  7.112204433E-01  7.578437476E+01  7.580893888E+01  9.536743164E-07  0.00000E+00  9.000E+00
       2     1     1     2   513     0 -1.378018609E+01 -1.414402570E+00 -2.405390754E+00  1.406374302E+01  3.300000131E-01  0.00000E+00  9.000E+00
      -1     1     1     2     0   512  1.198632926E+01  7.031821271E-01  1.718160678E+02  1.722354105E+02  3.300000131E-01  0.00000E+00  9.000E+00
</event>
<event>
      5  10001  3.52971E+09  9.48688E+00 -1.00000E+00  1.98435E-01
      21    -1     0     0   514   513  0.000000000E+00  0.000000000E+00  1.090820121E+01  1.090820121E+01  0.000000000E+00  0.00000E+00  9.000E+00
      21    -1     0     0   511   514  0.000000000E+00  0.000000000E+00 -3.558560954E+01  3.558560954E+01  0.000000000E+00  0.00000E+00  9.000E+00
      21     1     1     2   511   512 -8.437871905E+00 -1.216108476E+01 -2.590649069E+01  2.983682163E+01  6.743495762E-07  0.00000E+00  9.000E+00
       2     1     1     2   512     0  6.114167163E+00  2.429863505E+00  1.564887167E-01  6.589435900E+00  3.300000131E-01  0.00000E+00  9.000E+00
      -2     1     1     2     0   513  2.323704742E+00  9.731221256E+00  1.072593640E+00  1.006755323E+01  3.300000131E-01  0.00000E+00  9.000E+00
</event>
<event>
      5  10001  3.52971E+09  3.78211E+01 -1.00000E+00  1.46363E-01
      21    -1     0     0   515   511  0.000000000E+00  0.000000000E+00  4.079175716E+01  4.079175716E+01  0.000000000E+00  0.00000E+00  9.000E+00
      21    -1     0     0   513   515  0.000000000E+00  0.000000000E+00 -2.002348540E+03  2.002348540E+03  0.000000000E+00  0.00000E+00  9.000E+00
      21     1     1     2   516   511  5.446462674E+00 -1.517748817E+01  3.814915821E+01  4.141712659E+01  4.598451024E-06  0.00000E+00  9.000E+00
      21     1     1     2   513   512 -2.337533231E+01  3.744418165E+01 -1.718714640E+03  1.719281387E+03  0.000000000E+00  0.00000E+00  9.000E+00
      21     1     1     2   512   516  1.792886964E+01 -2.226669349E+01 -2.809913010E+02  2.824417838E+02  3.814697266E-06  0.00000E+00  9.000E+00
</event>
<event>
      5  10001  3.52971E+09  4.15788E+00 -1.00000E+00  2.59563E-01
       2    -1     0     0   512     0  0.000000000E+00  0.000000000E+00  6.462538216E+02  6.462538216E+02  0.000000000E+00  0.00000E+00  9.000E+00
       2    -1     0     0   511     0  0.000000000E+00  0.000000000E+00 -6.650872533E-01  6.650872533E-01  0.000000000E+00  0.00000E+00  9.000E+00
       2     1     1     2   512     0  4.209547541E+00  8.580786070E+00  3.899310030E+01  4.014873536E+01  3.300000131E-01  0.00000E+00  9.000E+00
       2     1     1     2   513     0 -4.826826796E+00 -1.088742507E+01  5.408166995E+02  5.409479139E+02  3.300000131E-01  0.00000E+00  9.000E+00
      21     1     1     2   511   513  6.172792550E-01  2.306638998E+00  6.577893454E+01  6.582225950E+01  1.348699152E-06  0.00000E+00  9.000E+00
</event>
<event>
      5  10001  3.52971E+09  7.36381E+00 -1.00000E+00  2.12484E-01
      21    -1     0     0   514   513  0.000000000E+00  0.000000000E+00  4.447988881E+01  4.447988881E+01  0.000000000E+00  0.00000E+00  9.000E+00
      21    -1     0     0   512   515  0.000000000E+00  0.000000000E+00 -1.026560470E+01  1.026560470E+01  0.000000000E+00  0.00000E+00  9.000E+00
      21     1     1     2   514   515 -7.471385660E-01  1.633057113E+01  4.849298863E+00  1.705172921E+01  3.318646170E-07  0.00000E+00  9.000E+00
      21     1     1     2   511   513 -3.544596782E+00 -1.034670535E+01  2.818935618E+01  3.023670418E+01  3.371747881E-07  0.00000E+00  9.000E+00
      21     1     1     2   512   511  4.291735348E+00 -5.983865780E+00  1.175629068E+00  7.457060123E+00  6.143906155E-08  0.00000E+00  9.000E+00
</event>
<event>
      5  10001  3.52971E+09  5.63818E+00 -1.00000E+00  2.29744E-01
      21    -1     0     0   516   511  0.000000000E+00  0.000000000E+00  6.231811400E+01  6.231811400E+01  0.000000000E+00  0.00000E+00  9.000E+00
      21    -1     0     0   513   516  0.000000000E+00  0.000000000E+00 -9.906741158E+00  9.906741158E+00  0.000000000E+00  0.00000E+00  9.000E+00
      21     1     1     2   512   517 -1.334099967E+01 -1.720210383E+00  3.886560833E+00  1.400166958E+01  4.616955931E-07  0.00000E+00  9.000E+00
      21     1     1     2   517   511  7.722263526E+00  2.188033915E+00  5.131044124E+01  5.193440311E+01  1.168007728E-06  0.00000E+00  9.000E+00
      21     1     1     2   513   512  5.618736140E+00 -4.678235318E-01 -2.785629234E+00  6.288782466E+00  1.632340424E-07  0.00000E+00  9.000E+00
</event>
<event>
      5  10001  3.52971E+09  1.56186E+01 -1.00000E+00  1.75742E-01
      21    -1     0     0   514   515  0.000000000E+00  0.000000000E+00  4.182362042E+01  4.182362042E+01  0.000000000E+00  0.00000E+00  9.000E+00
      21    -1     0     0   513   514  0.000000000E+00  0.000000000E+00 -9.363551779E+00  9.363551779E+00  0.000000000E+00  0.00000E+00  9.000E+00
      21     1     1     2   513   512  1.000060229E+01 -4.896625763E+00 -3.506816651E+00  1.167419175E+01  8.429369702E-08  0.00000E+00  9.000E+00
      21     1     1     2   512   511 -4.772469865E+00  6.220564998E+00  8.673865558E+00  1.169221285E+01  2.064765462E-07  0.00000E+00  9.000E+00
      21     1     1     2   511   515 -5.228132425E+00 -1.323939235E+00  2.729301974E+01  2.782076760E+01  3.371747881E-07  0.00000E+00  9.000E+00
</event>
<event>
      5  10001  3.52971E+09  5.49668E+00 -1.00000E+00  2.31542E-01
      21    -1     0     0   516   511  0.000000000E+00  0.000000000E+00  1.998430293E+02  1.998430293E+02  0.000000000E+00  0.00000E+00  9.000E+00
      21    -1     0     0   515   512  0.000000000E+00  0.000000000E+00 -3.257131293E+01  3.257131293E+01  0.000000000E+00  0.00000E+00  9.000E+00
      21     1     1     2   517   511 -9.934229620E+00 -3.308819004E+00  1.833404635E+02  1.836392190E+02  3.814697266E-06  0.00000E+00  9.000E+00
      21     1     1     2   515   517  1.156857751E+01 -1.939266905E+00  1.396775473E+01  1.823981672E+01  8.760057960E-07  0.00000E+00  9.000E+00
      21     1     1     2   516   512 -1.634347890E+00  5.248085909E+00 -3.003650186E+01  3.053530650E+01  8.259061849E-07  0.00000E+00  9.000E+00
</event>
<event>
      5  10001  3.52971E+09  3.20623E+00 -1.00000E+00  2.88363E-01
      21    -1     0     0   512   511  0.000000000E+00  0.000000000E+00  1.996323842E+00  1.996323842E+00  0.000000000E+00  0.00000E+00  9.000E+00
      -1    -1     0     0     0   512  0.000000000E+00  0.000000000E+00 -1.630482107E+02  1.630482107E+02  0.000000000E+00  0.00000E+00  9.000E+00
      -1     1     1     2     0   514  2.192533105E+00 -1.115039429E+01 -1.318165261E+02  1.323058727E+02  3.300000131E-01  0.00000E+00  9.000E+00
      21     1     1     2   514   513  1.002173008E+00  1.141856155E+01 -2.405717343E+01  2.664836753E+01  3.371747881E-07  0.00000E+00  9.000E+00
      21     1     1     2   513   511 -3.194706113E+00 -2.681672588E-01 -5.178187249E+00  6.090294247E+00  1.788139343E-07  0.00000E+00  9.000E+00
</event>
<event>
      5  10001  3.52971E+09  5.77498E+00 -1.00000E+00  2.28075E-01
      21    -1     0     0   512   514  0.000000000E+00  0.000000000E+00  7.820496692E+01  7.820496692E+01  0.000000000E+00  0.00000E+00  9.000E+00
      21    -1     0     0   511   515  0.000000000E+00  0.000000000E+00 -6.320942218E+02  6.320942218E+02  0.000000000E+00  0.00000E+00  9.000E+00
      21     1     1     2   511   516 -2.839968780E-01 -1.308705310E+01 -6.216191368E+02  6.217569483E+02  1.078959322E-05  0.00000E+00  9.000E+00
      21     1     1     2   516   514 -1.499517097E+00  7.594378828E+00 -8.842643074E+00  1.175225416E+01  9.610960183E-07  0.00000E+00  9.000E+00
      21     1     1     2   512   515  1.783513975E+00  5.492674275E+00  7.657252500E+01  7.678998618E+01  0.000000000E+00  0.00000E+00  9.000E+00
</event>
<event>
      5  10001  3.52971E+09  2.01081E+01 -1.00000E+00  1.66173E-01
      21    -1     0     0   513   514  0.000000000E+00  0.000000000E+00  1.044206638E+02  1.044206638E+02  0.000000000E+00  0.00000E+00  9.000E+00
      21    -1     0     0   517   513  0.000000000E+00  0.000000000E+00 -7.471864059E+01  7.471864059E+01  0.000000000E+00  0.00000E+00  9.000E+00
      21     1     1     2   515   511  9.757424435E+00  4.090623720E+00 -7.485497618E+00  1.296044786E+01  2.795705652E-07  0.00000E+00  9.000E+00
      21     1     1     2   517   515 -1.470221299E+01  1.540005090E+01 -6.169862584E+01  6.526895943E+01  6.743495762E-07  0.00000E+00  9.000E+00
      21     1     1     2   511   514  4.944788552E+00 -1.949067462E+01  9.888614670E+01  1.009098971E+02  0.000000000E+00  0.00000E+00  9.000E+00
</event>
<event>
      5  10001  3.52971E+09  3.06744E+00 -1.00000E+00  2.93959E-01
      21    -1     0     0   512   516  0.000000000E+00  0.000000000E+00  1.912395694E+00  1.912395694E+00  0.000000000E+00  0.00000E+00  9.000E+00
      21    -1     0     0   513   514  0.000000000E+00  0.000000000E+00 -1.293874798E+03  1.293874798E+03  0.000000000E+00  0.00000E+00  9.000E+00
      21     1     1     2   512   514 -1.189854538E+01 -8.682787294E+00 -3.795206679E+01  4.071026346E+01  1.066240300E-06  0.00000E+00  9.000E+00
      21     1     1     2   511   516  9.748938395E+00  6.494557107E+00 -6.403472018E+01  6.509736139E+01  9.536743164E-07  0.00000E+00  9.000E+00
      21     1     1     2   513   511  2.149606985E+00  2.188230186E+00 -1.189975615E+03  1.189979569E+03  2.157918644E-05  0.00000E+00  9.000E+00
</event>
<event>
      5  10001  3.52971E+09  1.48916E+01 -1.00000E+00  1.77677E-01
      21    -1     0     0   515   511  0.000000000E+00  0.000000000E+00  1.732732493E+02  1.732732493E+02  0.000000000E+00  0.00000E+00  9.000E+00
      21    -1     0     0   513   517  0.000000000E+00  0.000000000E+00 -1.510682008E+00  1.510682008E+00  0.000000000E+00  0.00000E+00  9.000E+00
      21     1     1     2   515   517  9.867786656E+00  1.848647393E+00  7.928939036E+01  7.992245075E+01  9.536743164E-07  0.00000E+00  9.000E+00
      21     1     1     2   512   511 -5.970610830E+00 -7.193613455E+00  1.988943394E+01  2.197693906E+01  6.743495762E-07  0.00000E+00  9.000E+00
      21     1     1     2   513   512 -3.897175825E+00  5.344966061E+00  7.258374304E+01  7.288454154E+01  9.536743164E-07  0.00000E+00  9.000E+00
</event>
<event>
      5  10001  3.52971E+09  6.89224E+00 -1.00000E+00  2.16505E-01
      21    -1     0     0   514   512  0.000000000E+00  0.000000000E+00  2.129978315E+02  2.129978315E+02  0.000000000E+00  0.00000E+00  9.000E+00
      21    -1     0     0   513   516  0.000000000E+00  0.000000000E+00 -2.028624584E+00  2.028624584E+00  0.000000000E+00  0.00000E+00  9.000E+00
      21     1     1     2   514   516  3.574579235E+00 -1.042577060E+01  1.912287056E+02  1.915460576E+02  2.697398305E-06  0.00000E+00  9.000E+00
      21     1     1     2   511   512 -4.695301639E+00  4.852148800E+00  1.310777147E+01  1.474458810E+01  1.685873940E-07  0.00000E+00  9.000E+00
      21     1     1     2   513   511  1.120722404E+00  5.573621805E+00  6.632729778E+00  8.735810383E+00  2.230201594E-07  0.00000E+00  9.000E+00
</event>
<event>
      5  10001  3.52971E+09  5.52401E+00 -1.00000E+00  2.31189E-01
       2    -1     0     0   514     0  0.000000000E+00  0.000000000E+00  6.488236543E+02  6.488236543E+02  0.000000000E+00  0.00000E+00  9.000E+00
      -5    -1     0     0     0   514  0.000000000E+00  0.000000000E+00 -4.206059005E+00  4.206059005E+00  0.000000000E+00  0.00000E+00  9.000E+00
      21     1     1     2   511   515  7.182079154E+00  5.632704551E+00  7.012590511E+01  7.071741079E+01  0.000000000E+00  0.00000E+00  9.000E+00
       2     1     1     2   515     0 -1.037407753E+01 -1.012535704E+01  5.748139377E+02  5.749967967E+02  3.300000131E-01  0.00000E+00  9.000E+00
      -5     1     1     2     0   511  3.191998374E+00  4.492652493E+00 -3.222475150E-01  7.315505815E+00  4.800000191E+00  0.00000E+00  9.000E+00
</event>
<event>
      5  10001  3.52971E+09  9.90820E+00 -1.00000E+00  1.96217E-01
      21    -1     0     0   512   515  0.000000000E+00  0.000000000E+00  1.820558680E+02  1.820558680E+02  0.000000000E+00  0.00000E+00  9.000E+00
      21    -1     0     0   513   511  0.000000000E+00  0.000000000E+00 -7.077724026E+00  7.077724026E+00  0.000000000E+00  0.00000E+00  9.000E+00
      21     1     1     2   512   511 -3.319129058E+00 -2.073524179E+01  1.337994559E+01  2.489959465E+01  5.591411304E-07  0.00000E+00  9.000E+00
      21     1     1     2   513   514  1.490195934E+00  1.407813707E+01  1.504956366E+02  1.511600187E+02  1.907348633E-06  0.00000E+00  9.000E+00
      21     1     1     2   514   515  1.828933124E+00  6.657104723E+00  1.110256184E+01  1.307397870E+01  1.192092896E-07  0.00000E+00  9.000E+00
</event>
<event>
      5  10001  3.52971E+09  3.06141E+00 -1.00000E+00  2.94213E-01
      21    -1     0     0   511   515  0.000000000E+00  0.000000000E+00  3.835021596E+01  3.835021596E+01  0.000000000E+00  0.00000E+00  9.000E+00
      21    -1     0     0   512   514  0.000000000E+00  0.000000000E+00 -1.482465982E+01  1.482465982E+01  0.000000000E+00  0.00000E+00  9.000E+00
      -1     1     1     2     0   514  1.057487721E+01  4.614203164E+00  5.614708401E+00  1.283560475E+01  3.300000131E-01  0.00000E+00  9.000E+00
      21     1     1     2   512   515 -1.040860870E+01 -7.670566802E+00 -7.362605167E+00  1.487900148E+01  3.576278687E-07  0.00000E+00  9.000E+00
       1     1     1     2   511     0 -1.662685075E-01  3.056363638E+00  2.527345291E+01  2.546026955E+01  3.300000131E-01  0.00000E+00  9.000E+00
</event>
<event>
      5  10001  3.52971E+09  7.13472E+00 -1.00000E+00  2.14385E-01
       2    -1     0     0   512     0  0.000000000E+00  0.000000000E+00  1.189505244E+02  1.189505244E+02  0.000000000E+00  0.00000E+00  9.000E+00
      21    -1     0     0   511   513  0.000000000E+00  0.000000000E+00 -2.412574879E+00  2.412574879E+00  0.000000000E+00  0.00000E+00  9.000E+00
      21     1     1     2   512   514 -3.295336388E+00 -4.324764868E-01  1.332676481E+00  3.580824545E+00  1.125012999E-07  0.00000E+00  9.000E+00
       2     1     1     2   511     0  1.140960435E+01  3.470124522E+00  9.568087031E+01  9.642177492E+01  3.300000131E-01  0.00000E+00  9.000E+00
      21     1     1     2   514   513 -8.114267965E+00 -3.037648035E+00  1.952440271E+01  2.136049979E+01  0.000000000E+00  0.00000E+00  9.000E+00
</event>
<event>
      5  10001  3.52971E+09  9.62996E+00 -1.00000E+00  1.97665E-01
      21    -1     0     0   515   511  0.000000000E+00  0.000000000E+00  3.600862820E+01  3.600862820E+01  0.000000000E+00  0.00000E+00  9.000E+00
      21    -1     0     0   514   516  0.000000000E+00  0.000000000E+00 -2.503017257E+01  2.503017257E+01  0.000000000E+00  0.00000E+00  9.000E+00
      21     1     1     2   515   516  3.477895879E+00  1.056263522E+01 -2.086167476E+01  2.364052656E+01  4.129530925E-07  0.00000E+00  9.000E+00
      21     1     1     2   514   512 -7.315637762E+00 -3.785660590E+00  2.700022123E+01  2.822873940E+01  3.371747881E-07  0.00000E+00  9.000E+00
      21     1     1     2   512   511  3.837741883E+00 -6.776974630E+00  4.839909160E+00  9.169534807E+00  1.032382731E-07  0.00000E+00  9.000E+00
</event>
<event>
      5  10001  3.52971E+09  9.05401E+00 -1.00000E+00  2.00877E-01
      21    -1     0     0   513   514  0.000000000E+00  0.000000000E+00  4.569828991E+01  4.569828991E+01  0.000000000E+00  0.00000E+00  9.000E+00
      21    -1     0     0   517   511  0.000000000E+00  0.000000000E+00 -5.240253869E+00  5.240253869E+00  0.000000000E+00  0.00000E+00  9.000E+00
      21     1     1     2   513   511  1.349569766E+01 -1.827297341E+00  9.246550000E+00  1.646121374E+01  1.685873940E-07  0.00000E+00  9.000E+00
      21     1     1     2   515   514 -4.087337749E+00  5.252695808E-01  4.377757654E+00  6.012237527E+00  5.960464478E-08  0.00000E+00  9.000E+00
      21     1     1     2   517   515 -9.408359911E+00  1.302027761E+00  2.683372839E+01  2.846509251E+01  4.768371582E-07  0.00000E+00  9.000E+00
</event>
<event>
      5  10001  3.52971E+09  9.26904E+00 -1.00000E+00  1.99642E-01
      21    -1     0     0   512   511  0.000000000E+00  0.000000000E+00  3.490315742E+01  3.490315742E+01  0.000000000E+00  0.00000E+00  9.000E+00
      21    -1     0     0   517   516  0.000000000E+00  0.000000000E+00 -3.317650344E+01  3.317650344E+01  0.000000000E+00  0.00000E+00  9.000E+00
      21     1     1     2   512   516  3.366493782E+00 -9.609803409E+00  3.236193629E+01  3.392604490E+01  0.000000000E+00  0.00000E+00  9.000E+00
      21     1     1     2   513   511  2.889136715E+00  8.173234192E+00 -1.823396617E+01  2.018975955E+01  2.384185791E-07  0.00000E+00  9.000E+00
      21     1     1     2   517   513 -6.255630497E+00  1.436569217E+00 -1.240131613E+01  1.396385641E+01  0.000000000E+00  0.00000E+00  9.000E+00
</event>
<event>
      5  10001  3.52971E+09  8.29447E+00 -1.00000E+00  2.05634E-01
      21    -1     0     0   514   513  0.000000000E+00  0.000000000E+00  1.684106627E+02  1.684106627E+02  0.000000000E+00  0.00000E+00  9.000E+00
      21    -1     0     0   517   515  0.000000000E+00  0.000000000E+00 -4.800592960E+00  4.800592960E+00  0.000000000E+00  0.00000E+00  9.000E+00
      21     1     1     2   514   515 -1.301957425E+01 -8.522893837E+00  1.535802137E+02  1.543665477E+02  1.907348633E-06  0.00000E+00  9.000E+00
      21     1     1     2   517   511  1.375805355E+00  2.382078249E+00  2.249505353E+00  3.553506928E+00  1.032382731E-07  0.00000E+00  9.000E+00
      21     1     1     2   511   513  1.164376889E+01  6.140815589E+00  7.780350713E+00  1.529120098E+01  2.384185791E-07  0.00000E+00  9.000E+00
</event>
<event>
      5  10001 -3.52971E+09  2.93958E+00 -1.00000E+00  2.99565E-01
      21    -1     0     0   512   515  0.000000000E+00  0.000000000E+00  4.188564589E+01  4.188564589E+01  0.000000000E+00  0.00000E+00  9.000E+00
      21    -1     0     0   513   512  0.000000000E+00  0.000000000E+00 -6.169777384E+01  6.169777384E+01  0.000000000E+00  0.00000E+00  9.000E+00
      21     1     1     2   513   516  4.068317278E+00  9.575742616E+00 -6.043727742E+01  6.132626316E+01  9.536743164E-07  0.00000E+00  9.000E+00
      21     1     1     2   514   515 -2.075072089E+00 -9.235338342E+00  3.061857567E+01  3.204831625E+01  4.768371582E-07  0.00000E+00  9.000E+00
      21     1     1     2   516   514 -1.993245189E+00 -3.404042743E-01  1.000657380E+01  1.020884032E+01  0.000000000E+00  0.00000E+00  9.000E+00
</event>
<event>
      5  10001  3.52971E+09  7.53822E+00 -1.00000E+00  2.11099E-01
      21    -1     0     0   512   514  0.000000000E+00  0.000000000E+00  1.591664751E+02  1.591664751E+02  0.000000000E+00  0.00000E+00  9.000E+00
      21    -1     0     0   513   517  0.000000000E+00  0.000000000E+00 -2.111700453E+01  2.111700453E+01  0.000000000E+00  0.00000E+00  9.000E+00
      21     1     1     2   511   517  1.160611217E+01  9.292627091E+00  1.807168560E+01  2.340172170E+01  2.384185791E-07  0.00000E+00  9.000E+00
      21     1     1     2   513   514 -1.009106829E+01 -1.908220862E+00 -1.691121767E+01  1.978535441E+01  2.384185791E-07  0.00000E+00  9.000E+00
      21     1     1     2   512   511 -1.515043885E+00 -7.384406229E+00  1.368890027E+02  1.370964035E+02  0.000000000E+00  0.00000E+00  9.000E+00
</event>
<event>
      5  10001  3.52971E+09  3.09873E+00 -1.00000E+00  2.92655E-01
      21    -1     0     0   515   513  0.000000000E+00  0.000000000E+00  2.541143260E+01  2.541143260E+01  0.000000000E+00  0.00000E+00  9.000E+00
      21    -1     0     0   511   515  0.000000000E+00  0.000000000E+00 -5.372767965E+00  5.372767965E+00  0.000000000E+00  0.00000E+00  9.000E+00
      -3     1     1     2     0   513  1.291723321E+00 -1.078493212E+01  1.399055845E+01  1.771917142E+01  5.000000000E-01  0.00000E+00  9.000E+00
       3     1     1     2   514     0 -7.302105499E-01  7.423536376E+00  6.111883084E+00  9.656459735E+00  5.000000000E-01  0.00000E+00  9.000E+00
      21     1     1     2   511   514 -5.615127716E-01  3.361395745E+00 -6.377689777E-02  3.408569413E+00  8.769775670E-08  0.00000E+00  9.000E+00
</event>
<event>
      5  10001  3.52971E+09  1.23382E+01 -1.00000E+00  1.85764E-01
      21    -1     0     0   512   516  0.000000000E+00  0.000000000E+00  3.684598782E+01  3.684598782E+01  0.000000000E+00  0.00000E+00  9.000E+00
      21    -1     0     0   511   512  0.000000000E+00  0.000000000E+00 -1.714683861E+02  1.714683861E+02  0.000000000E+00  0.00000E+00  9.000E+00
      21     1     1     2   514   516 -9.636692499E+00  1.032845776E+01  3.485949084E+01  3.761285663E+01  1.261592536E-06  0.00000E+00  9.000E+00
      21     1     1     2   513   514  3.813051229E+00  8.038223171E-01 -1.011005379E+02  1.011756110E+02  1.907348633E-06  0.00000E+00  9.000E+00
      21     1     1     2   511   513  5.823641270E+00 -1.113228008E+01 -6.838135119E+01  6.952590631E+01  9.536743164E-07  0.00000E+00  9.000E+00
</event>
<event>
      5  10001  3.52971E+09  1.01891E+01 -1.00000E+00  1.94817E-01
      21    -1     0     0   515   514  0.000000000E+00  0.000000000E+00  1.229996163E+01  1.229996163E+01  0.000000000E+00  0.00000E+00  9.000E+00
      21    -1     0     0   511   515  0.000000000E+00  0.000000000E+00 -6.342456068E+01  6.342456068E+01  0.000000000E+00  0.00000E+00  9.000E+00
      21     1     1     2   513   514  1.053000663E+01 -1.103396359E+01  5.751162717E+00  1.630046824E+01  3.953724850E-07  0.00000E+00  9.000E+00
      21     1     1     2   512   513 -1.408825048E+00  2.047436268E+00 -2.422774750E+01  2.435488724E+01  4.768371582E-07  0.00000E+00  9.000E+00
      21     1     1     2   511   512 -9.121181581E+00  8.986527326E+00 -3.264801427E+01  3.506916683E+01  0.000000000E+00  0.00000E+00  9.000E+00
</event>
<event>
      5  10001  3.52971E+09  5.85309E+00 -1.00000E+00  2.27151E-01
      21    -1     0     0   511   513  0.000000000E+00  0.000000000E+00  1.054975961E+01  1.054975961E+01  0.000000000E+00  0.00000E+00  9.000E+00
       2    -1     0     0   514     0  0.000000000E+00  0.000000000E+00 -1.279293587E+03  1.279293587E+03  0.000000000E+00  0.00000E+00  9.000E+00
      21     1     1     2   514   512 -1.790830670E+00 -7.345583373E+00 -1.017310408E+01  1.267504305E+01  1.174075341E-06  0.00000E+00  9.000E+00
       2     1     1     2   511     0  3.474094964E+00  1.295139989E+01 -1.266909433E+03  1.266980437E+03  3.300000131E-01  0.00000E+00  9.000E+00
      21     1     1     2   512   513 -1.683264294E+00 -5.605816514E+00  8.338709228E+00  1.018786676E+01  6.848052319E-07  0.00000E+00  9.000E+00
</event>
<event>
      5  10001  3.52971E+09  5.87065E+00 -1.00000E+00  2.26946E-01
      21    -1     0     0   515   514  0.000000000E+00  0.000000000E+00  9.765029825E+01  9.765029825E+01  0.000000000E+00  0.00000E+00  9.000E+00
      21    -1     0     0   511   513  0.000000000E+00  0.000000000E+00 -5.338184860E+01  5.338184860E+01  0.000000000E+00  0.00000E+00  9.000E+00
      21     1     1     2   515   513 -1.462007587E+01  9.837716491E-01  1.054231136E+01  1.805144742E+01  5.331201500E-07  0.00000E+00  9.000E+00
      21     1     1     2   512   514  9.268732403E+00 -3.397822869E+00  8.288586419E+01  8.347167833E+01  1.651812370E-06  0.00000E+00  9.000E+00
      21     1     1     2   511   512  5.351343464E+00  2.414051220E+00 -4.915972590E+01  4.950902110E+01  1.348699152E-06  0.00000E+00  9.000E+00
</event>
<event>
      5  10001  3.52971E+09  6.21085E+00 -1.00000E+00  2.23161E-01
      -4    -1     0     0     0   516  0.000000000E+00  0.000000000E+00  4.903269237E+01  4.903269237E+01  0.000000000E+00  0.00000E+00  9.000E+00
      21    -1     0     0   514   512  0.000000000E+00  0.000000000E+00 -5.029764421E+00  5.029764421E+00  0.000000000E+00  0.00000E+00  9.000E+00
      -4     1     1     2     0   512  1.439890118E+01 -1.021957454E+00  1.202788165E+01  1.884920925E+01  1.500000000E+00  0.00000E+00  9.000E+00
      21     1     1     2   513   516 -2.801529300E+00  1.157571131E+00  4.947464948E+00  5.802236358E+00  5.960464478E-08  0.00000E+00  9.000E+00
      21     1     1     2   514   513 -1.159737188E+01 -1.356136762E-01  2.702758135E+01  2.941101119E+01  3.371747881E-07  0.00000E+00  9.000E+00
</event>
<event>
      5  10001  3.52971E+09  3.42172E+00 -1.00000E+00  2.80536E-01
       1    -1     0     0   512     0  0.000000000E+00  0.000000000E+00  5.008963647E+02  5.008963647E+02  0.000000000E+00  0.00000E+00  9.000E+00
      21    -1     0     0   515   511  0.000000000E+00  0.000000000E+00 -7.540366303E+00  7.540366303E+00  0.000000000E+00  0.00000E+00  9.000E+00
      -4     1     1     2     0   511 -1.929167006E+00  1.036010891E+01  4.113826959E+02  4.115203835E+02  1.500000000E+00  0.00000E+00  9.000E+00
       4     1     1     2   512     0  5.295842398E+00 -1.095534389E+01  8.860432257E+01  8.944854099E+01  1.500000000E+00  0.00000E+00  9.000E+00
       1     1     1     2   515     0 -3.366675392E+00  5.952349819E-01 -6.631020046E+00  7.467806554E+00  3.300000131E-01  0.00000E+00  9.000E+00
</event>
<event>
      5  10001  3.52971E+09  2.62240E+01 -1.00000E+00  1.57209E-01
      21    -1     0     0   513   511  0.000000000E+00  0.000000000E+00  1.198844152E+02  1.198844152E+02  0.000000000E+00  0.00000E+00  9.000E+00
      21    -1     0     0   515   514  0.000000000E+00  0.000000000E+00 -9.665346919E+01  9.665346919E+01  0.000000000E+00  0.00000E+00  9.000E+00
      21     1     1     2   513   514 -4.051389268E+00  1.326618754E+01  1.163081097E+02  1.171323264E+02  1.907348633E-06  0.00000E+00  9.000E+00
      21     1     1     2   512   511  6.508237616E+00 -2.305920098E+01 -5.460181946E+01  5.962753219E+01  6.743495762E-07  0.00000E+00  9.000E+00
      21     1     1     2   515   512 -2.456848348E+00  9.793013440E+00 -3.847534432E+01  3.977802580E+01  4.768371582E-07  0.00000E+00  9.000E+00
</event>
<event>
      5  10001  3.52971E+09  8.63643E+00 -1.00000E+00  2.03412E-01
      21    -1     0     0   516   512  0.000000000E+00  0.000000000E+00  1.316468973E+02  1.316468973E+02  0.000000000E+00  0.00000E+00  9.000E+00
      21    -1     0     0   515   517  0.000000000E+00  0.000000000E+00 -7.799787501E+00  7.799787501E+00  0.000000000E+00  0.00000E+00  9.000E+00
      21     1     1     2   516   517  2.505921097E+00 -1.437826079E+01 -6.506881048E-03  1.459500141E+01  4.686071721E-07  0.00000E+00  9.000E+00
      21     1     1     2   511   512 -2.484334516E+00  2.521124096E+00  4.122299611E+01  4.137467091E+01  4.768371582E-07  0.00000E+00  9.000E+00
      21     1     1     2   515   511 -2.158658171E-02  1.185713669E+01  8.263062059E+01  8.347701250E+01  1.348699152E-06  0.00000E+00  9.000E+00
</event>
<event>
      5  10001  3.52971E+09  2.22691E+00 -1.00000E+00  3.42594E-01
      21    -1     0     0   514   511  0.000000000E+00  0.000000000E+00  5.084899487E+00  5.084899487E+00  0.000000000E+00  0.00000E+00  9.000E+00
      -3    -1     0     0     0   513  0.000000000E+00  0.000000000E+00 -6.043357051E+01  6.043357051E+01  0.000000000E+00  0.00000E+00  9.000E+00
      -3     1     1     2     0   511  1.541821927E+01  6.812639965E+00 -2.336275735E+01  2.881322577E+01  5.000000000E-01  0.00000E+00  9.000E+00
      21     1     1     2   514   512 -1.393157231E+01 -7.518360549E+00 -3.094146852E+01  3.475613509E+01  6.743495762E-07  0.00000E+00  9.000E+00
      21     1     1     2   512   513 -1.486646961E+00  7.057205846E-01 -1.044445155E+00  1.949109133E+00  2.580956828E-08  0.00000E+00  9.000E+00
</event>
<event>
      5  10001  3.52971E+09  7.24056E+00 -1.00000E+00  2.13495E-01
      21    -1     0     0   515   513  0.000000000E+00  0.000000000E+00  3.130448987E+02  3.130448987E+02  0.000000000E+00  0.00000E+00  9.000E+00
      21    -1     0     0   511   516  0.000000000E+00  0.000000000E+00 -3.942060238E-01  3.942060238E-01  0.000000000E+00  0.00000E+00  9.000E+00
      21     1     1     2   515   516  6.577372141E-01 -9.437153804E+00  1.812364098E+02  1.814831362E+02  0.000000000E+00  0.00000E+00  9.000E+00
      21     1     1     2   511   514 -1.452574577E+00  5.736739721E+00  1.130988198E+02  1.132535350E+02  0.000000000E+00  0.00000E+00  9.000E+00
      21     1     1     2   514   513  7.948373633E-01  3.700414083E+00  1.831546305E+01  1.870243347E+01  5.840038640E-07  0.00000E+00  9.000E+00
</event>
<event>
      5  10001  3.52971E+09  8.01988E+00 -1.00000E+00  2.07525E-01
      -3    -1     0     0     0   513  0.000000000E+00  0.000000000E+00  2.050922347E+01  2.050922347E+01  0.000000000E+00  0.00000E+00  9.000E+00
      -1    -1     0     0     0   512  0.000000000E+00  0.000000000E+00 -2.014799503E+01  2.014799503E+01  0.000000000E+00  0.00000E+00  9.000E+00
      -1     1     1     2     0   514 -4.548952618E+00 -6.617177266E+00 -7.009943129E+00  1.066434281E+01  3.300000131E-01  0.00000E+00  9.000E+00
      21     1     1     2   514   513  2.275605228E+00  1.430529329E+01 -4.930094556E+00  1.530116426E+01  3.209808354E-07  0.00000E+00  9.000E+00
      -3     1     1     2     0   512  2.273347390E+00 -7.688116024E+00  1.230126612E+01  1.469171143E+01  5.000000000E-01  0.00000E+00  9.000E+00
</event>
<event>
      5  10001  3.52971E+09  7.00696E+00 -1.00000E+00  2.15487E-01
      21    -1     0     0   513   512  0.000000000E+00  0.000000000E+00  2.622931511E+02  2.622931511E+02  0.000000000E+00  0.00000E+00  9.000E+00
      21    -1     0     0   516   515  0.000000000E+00  0.000000000E+00 -1.103766484E+01  1.103766484E+01  0.000000000E+00  0.00000E+00  9.000E+00
      21     1     1     2   511   515  1.144811195E+01  6.283715255E+00 -6.624239532E+00  1.464325422E+01  2.230201594E-07  0.00000E+00  9.000E+00
      21     1     1     2   516   512 -6.806734275E+00 -1.153301343E+01  1.626237957E+02  1.631742656E+02  3.814697266E-06  0.00000E+00  9.000E+00
      21     1     1     2   513   511 -4.641377678E+00  5.249298174E+00  9.525593005E+01  9.551329608E+01  1.907348633E-06  0.00000E+00  9.000E+00
</event>
<event>
      5  10001  3.52971E+09  2.99802E+00 -1.00000E+00  2.96944E-01
      21    -1     0     0   514   515  0.000000000E+00  0.000000000E+00  2.332029826E+02  2.332029826E+02  0.000000000E+00  0.00000E+00  9.000E+00
      21    -1     0     0   517   511  0.000000000E+00  0.000000000E+00 -5.981354250E-01  5.981354250E-01  0.000000000E+00  0.00000E+00  9.000E+00
      21     1     1     2   514   511  8.274644201E+00  4.905469550E+00  5.834792353E+01  5.913555232E+01  6.743495762E-07  0.00000E+00  9.000E+00
      21     1     1     2   517   512 -9.271210292E+00 -4.835174467E+00  1.382797588E+02  1.386745324E+02  0.000000000E+00  0.00000E+00  9.000E+00
      21     1     1     2   512   515  9.965660908E-01 -7.029508367E-02  3.597716486E+01  3.599103328E+01  0.000000000E+00  0.00000E+00  9.000E+00
</event>
<event>
      5  10001  3.52971E+09  6.89986E+00 -1.00000E+00  2.16436E-01
       3    -1     0     0   512     0  0.000000000E+00  0.000000000E+00  7.794721996E-01  7.794721996E-01  0.000000000E+00  0.00000E+00  9.000E+00
       2    -1     0     0   513     0  0.000000000E+00  0.000000000E+00 -6.137443227E+02  6.137443227E+02  0.000000000E+00  0.00000E+00  9.000E+00
       2     1     1     2   512     0  6.526953020E+00  8.662359916E+00 -5.277523412E+02  5.278638841E+02  3.300000131E-01  0.00000E+00  9.000E+00
       3     1     1     2   511     0 -8.366974725E+00 -3.342611618E+00 -3.546779532E+01  3.659772976E+01  5.000000000E-01  0.00000E+00  9.000E+00
      21     1     1     2   513   511  1.840021705E+00 -5.319748298E+00 -4.974471404E+01  5.006218111E+01  6.743495762E-07  0.00000E+00  9.000E+00
</event>
<event>
      5  10001  3.52971E+09  9.87087E+00 -1.00000E+00  1.96407E-01
      -2    -1     0     0     0   513  0.000000000E+00  0.000000000E+00  4.482391701E+01  4.482391701E+01  0.000000000E+00  0.00000E+00  9.000E+00
      -1    -1     0     0     0   514  0.000000000E+00  0.000000000E+00 -9.846967112E+00  9.846967112E+00  0.000000000E+00  0.00000E+00  9.000E+00
      -1     1     1     2     0   512 -8.178853575E+00 -6.381899933E+00 -7.920486165E-01  1.040954051E+01  3.300000131E-01  0.00000E+00  9.000E+00
      21     1     1     2   512   513  1.393870617E+01 -1.631972559E+00  1.179114637E+01  1.832981170E+01  1.685873940E-07  0.00000E+00  9.000E+00
      -2     1     1     2     0   514 -5.759852592E+00  8.013872492E+00  2.397785214E+01  2.593153192E+01  3.300000131E-01  0.00000E+00  9.000E+00
</event>
<event>
      5  10001  3.52971E+09  1.17154E+01 -1.00000E+00  1.88127E-01
      21    -1     0     0   511   513  0.000000000E+00  0.000000000E+00  8.464752994E+01  8.464752994E+01  0.000000000E+00  0.00000E+00  9.000E+00
      21    -1     0     0   512   511  0.000000000E+00  0.000000000E+00 -7.588308446E+00  7.588308446E+00  0.000000000E+00  0.00000E+00  9.000E+00
      21     1     1     2   514   513  5.489439449E+00  7.626802500E+00  4.635800900E+01  4.730081459E+01  9.536743164E-07  0.00000E+00  9.000E+00
      21     1     1     2   515   514 -5.884930847E+00 -1.933549148E+01  1.421227874E+01  2.470794425E+01  0.000000000E+00  0.00000E+00  9.000E+00
      21     1     1     2   512   515  3.954913983E-01  1.170868898E+01  1.648893374E+01  2.022707955E+01  3.371747881E-07  0.00000E+00  9.000E+00
</event>
<event>
      5  10001  3.52971E+09  1.04969E+01 -1.00000E+00  1.93349E-01
       4    -1     0     0   511     0  0.000000000E+00  0.000000000E+00  5.883921913E+00  5.883921913E+00  0.000000000E+00  0.00000E+00  9.000E+00
      21    -1     0     0   515   511  0.000000000E+00  0.000000000E+00 -2.895780328E+02  2.895780328E+02  0.000000000E+00  0.00000E+00  9.000E+00
      21     1     1     2   515   516 -5.359567273E+00 -1.080908987E+01 -2.808235447E+02  2.810825940E+02  0.000000000E+00  0.00000E+00  9.000E+00
       4     1     1     2   513     0 -7.242843486E-01  1.215873822E+00  1.110502035E+00  2.342253560E+00  1.500000000E+00  0.00000E+00  9.000E+00
      21     1     1     2   516   513  6.083851621E+00  9.593216050E+00 -3.981068224E+00  1.203710717E+01  2.308477966E-07  0.00000E+00  9.000E+00
</event>
<event>
      5  10001  3.52971E+09  5.44818E+00 -1.00000E+00  2.32176E-01
      21    -1     0     0   512   513  0.000000000E+00  0.000000000E+00  1.260755970E+00  1.260755970E+00  0.000000000E+00  0.00000E+00  9.000E+00
      21    -1     0     0   515   514  0.000000000E+00  0.000000000E+00 -1.587343762E+02  1.587343762E+02  0.000000000E+00  0.00000E+00  9.000E+00
      21     1     1     2   512   514 -9.522399526E+00  9.501088344E+00 -6.912564763E+01  7.042231133E+01  1.348699152E-06  0.00000E+00  9.000E+00
      21     1     1     2   515   511  6.775014032E+00 -3.749251393E+00 -6.112660775E+01  6.161509454E+01  1.168007728E-06  0.00000E+00  9.000E+00
      21     1     1     2   511   513  2.747385494E+00 -5.751836951E+00 -2.722136490E+01  2.795772635E+01  0.000000000E+00  0.00000E+00  9.000E+00
</event>
<event>
      5  10001  3.52971E+09  1.81356E+01 -1.00000E+00  1.69950E-01
       2    -1     0     0   514     0  0.000000000E+00  0.000000000E+00  7.658952003E+00  7.658952003E+00  0.000000000E+00  0.00000E+00  9.000E+00
      21    -1     0     0   511   516  0.000000000E+00  0.000000000E+00 -8.284119807E+01  8.284119807E+01  0.000000000E+00  0.00000E+00  9.000E+00
      21     1     1     2   512   516 -1.022370823E+01  4.411324302E+00 -3.514652185E+01  3.686817042E+01  8.259061849E-07  0.00000E+00  9.000E+00
       2     1     1     2   511     0  2.062464307E+01  5.422765258E+00 -2.263577057E+01  3.110095327E+01  3.300000131E-01  0.00000E+00  9.000E+00
      21     1     1     2   514   512 -1.040093484E+01 -9.834089560E+00 -1.739995365E+01  2.253102638E+01  0.000000000E+00  0.00000E+00  9.000E+00
</event>
<event>
      5  10001  3.52971E+09  3.95862E+00 -1.00000E+00  2.64530E-01
       2    -1     0     0   512     0  0.000000000E+00  0.000000000E+00  5.919937478E+01  5.919937478E+01  0.000000000E+00  0.00000E+00  9.000E+00
      -4    -1     0     0     0   511  0.000000000E+00  0.000000000E+00 -4.363422520E+00  4.363422520E+00  0.000000000E+00  0.00000E+00  9.000E+00
      -4     1     1     2     0   513  5.795573448E+00 -1.087000241E+01  1.193595243E+01  1.721808887E+01  1.500000000E+00  0.00000E+00  9.000E+00
       2     1     1     2   513     0 -1.920213481E+00  1.011629233E+01  4.035091996E+01  4.164531465E+01  3.300000131E-01  0.00000E+00  9.000E+00
      21     1     1     2   512   511 -3.875359966E+00  7.537100781E-01  2.549079868E+00  4.699393783E+00  1.154238983E-07  0.00000E+00  9.000E+00
</event>
<event>
      5  10001  3.52971E+09  1.18064E+01 -1.00000E+00  1.87770E-01
      21    -1     0     0   513   515  0.000000000E+00  0.000000000E+00  9.699498006E-01  9.699498006E-01  0.000000000E+00  0.00000E+00  9.000E+00
       1    -1     0     0   515     0  0.000000000E+00  0.000000000E+00 -2.763028308E+02  2.763028308E+02  0.000000000E+00  0.00000E+00  9.000E+00
      21     1     1     2   516   514 -9.337348627E+00  3.659123908E+00 -7.092272802E+01  7.162826689E+01  1.348699152E-06  0.00000E+00  9.000E+00
       1     1     1     2   514     0  1.008926594E+01  1.014853818E-01 -1.973664046E+02  1.976244169E+02  3.300000131E-01  0.00000E+00  9.000E+00
      21     1     1     2   513   516 -7.519173116E-01 -3.760609289E+00 -7.043748387E+00  8.020096833E+00  2.795705652E-07  0.00000E+00  9.000E+00
</event>
<event>
      5  10001  3.52971E+09  2.88368E+01 -1.00000E+00  1.54240E-01
       3    -1     0     0   513     0  0.000000000E+00  0.000000000E+00  2.165334343E+00  2.165334343E+00  0.000000000E+00  0.00000E+00  9.000E+00
      21    -1     0     0   511   512  0.000000000E+00  0.000000000E+00 -1.661054562E+02  1.661054562E+02  0.000000000E+00  0.00000E+00  9.000E+00
      21     1     1     2   513   512 -1.010325673E+01  9.679027527E-01 -3.340921177E+01  3.491687362E+01  4.768371582E-07  0.00000E+00  9.000E+00
       3     1     1     2   514     0  2.730952355E+00 -6.088686645E+00 -7.724880318E+00  1.022027308E+01  5.000000000E-01  0.00000E+00  9.000E+00
      21     1     1     2   511   514  7.372304374E+00  5.120783892E+00 -1.228060298E+02  1.231336439E+02  0.000000000E+00  0.00000E+00  9.000E+00
</event>
<event>
      5  10001  3.52971E+09  5.17989E+01 -1.00000E+00  1.38203E-01
       2    -1     0     0   511     0  0.000000000E+00  0.000000000E+00  1.772901605E+03  1.772901605E+03  0.000000000E+00  0.00000E+00  9.000E+00
      21    -1     0     0   515   514  0.000000000E+00  0.000000000E+00 -3.081191646E+01  3.081191646E+01  0.000000000E+00  0.00000E+00  9.000E+00
      21     1     1     2   511   512  1.410504050E+01 -1.173165671E+01 -8.910906961E+00  2.039578877E+01  1.815741803E-06  0.00000E+00  9.000E+00
       2     1     1     2   515     0  1.722259909E+01  3.171089327E+00  1.750752965E+03  1.750840577E+03  3.300000131E-01  0.00000E+00  9.000E+00
      21     1     1     2   512   514 -3.132763959E+01  8.560567380E+00  2.476307318E-01  3.247715562E+01  2.689290653E-06  0.00000E+00  9.000E+00
</event>
<event>
      5  10001  3.52971E+09  9.58642E+00 -1.00000E+00  1.97897E-01
      21    -1     0     0   513   515  0.000000000E+00  0.000000000E+00  1.147882220E+00  1.147882220E+00  0.000000000E+00  0.00000E+00  9.000E+00
       1    -1     0     0   512     0  0.000000000E+00  0.000000000E+00 -2.501119830E+02  2.501119830E+02  0.000000000E+00  0.00000E+00  9.000E+00
      21     1     1     2   511   515  7.159676139E+00 -1.108807059E+01 -5.359927939E+01  5.520044405E+01  9.536743164E-07  0.00000E+00  9.000E+00
       1     1     1     2   513     0 -5.994090543E+00  6.129169386E+00 -1.683532131E+02  1.685716734E+02  3.300000131E-01  0.00000E+00  9.000E+00
      21     1     1     2   512   511 -1.165585596E+00  4.958901201E+00 -2.701160832E+01  2.748774772E+01  3.371747881E-07  0.00000E+00  9.000E+00
</event>
<event>
      5  10001  3.52971E+09  2.58251E+01 -1.00000E+00  1.57699E-01
      21    -1     0     0   513   512  0.000000000E+00  0.000000000E+00  2.432376143E+01  2.432376143E+01  0.000000000E+00  0.00000E+00  9.000E+00
      21    -1     0     0   511   514  0.000000000E+00  0.000000000E+00 -1.717198000E+02  1.717198000E+02  0.000000000E+00  0.00000E+00  9.000E+00
      -1     1     1     2     0   512 -6.839278515E+00 -1.727333521E+01 -1.105045234E+01  2.161863171E+01  3.300000131E-01  0.00000E+00  9.000E+00
       1     1     1     2   511     0 -1.856104128E+01  2.193393010E+01 -1.445111270E+02  1.473403687E+02  3.300000131E-01  0.00000E+00  9.000E+00
      21     1     1     2   513   514  2.540031980E+01 -4.660594886E+00  8.165540708E+00  2.708456102E+01  3.371747881E-07  0.00000E+00  9.000E+00
</event>
<event>
      5  10001  3.52971E+09  5.82472E+00 -1.00000E+00  2.27484E-01
      -1    -1     0     0     0   515  0.000000000E+00  0.000000000E+00  3.696350642E+01  3.696350642E+01  0.000000000E+00  0.00000E+00  9.000E+00
      21    -1     0     0   511   514  0.000000000E+00  0.000000000E+00 -2.470704397E+01  2.470704397E+01  0.000000000E+00  0.00000E+00  9.000E+00
      -1     1     1     2     0   514  4.721517344E+00 -1.504117584E+01  1.196643472E+01  1.979480125E+01  3.300000131E-01  0.00000E+00  9.000E+00
      21     1     1     2   513   515 -1.523613447E-01  1.142914537E+01  1.905905177E+01  2.222377178E+01  0.000000000E+00  0.00000E+00  9.000E+00
      21     1     1     2   511   513 -4.569155999E+00  3.612030469E+00 -1.876902404E+01  1.965197736E+01  5.331201500E-07  0.00000E+00  9.000E+00
</event>
<event>
      5  10001  3.52971E+09  5.51744E+00 -1.00000E+00  2.31273E-01
      21    -1     0     0   512   513  0.000000000E+00  0.000000000E+00  9.098210686E+01  9.098210686E+01  0.000000000E+00  0.00000E+00  9.000E+00
      21    -1     0     0   511   516  0.000000000E+00  0.000000000E+00 -3.437635908E+00  3.437635908E+00  0.000000000E+00  0.00000E+00  9.000E+00
      21     1     1     2   512   516  1.149491881E+01 -1.487322641E+00  7.534464004E+01  7.623096529E+01  9.536743164E-07  0.00000E+00  9.000E+00
      21     1     1     2   511   514 -4.776405025E+00  1.674722670E+00  1.049084281E+00  5.169073303E+00  8.429369702E-08  0.00000E+00  9.000E+00
      21     1     1     2   514   513 -6.718513785E+00 -1.874000287E-01  1.115074663E+01  1.301970417E+01  1.192092896E-07  0.00000E+00  9.000E+00
</event>
<event>
      5  10001  3.52971E+09  1.05148E+01 -1.00000E+00  1.93266E-01
      -3    -1     0     0     0   513  0.000000000E+00  0.000000000E+00  6.088685867E+00  6.088685867E+00  0.000000000E+00  0.00000E+00  9.000E+00
      21    -1     0     0   512   514  0.000000000E+00  0.000000000E+00 -6.033546349E+01  6.033546349E+01  0.000000000E+00  0.00000E+00  9.000E+00
      -3     1     1     2     0   514  3.028273677E+00  1.021987991E+01  1.613439196E-03  1.067081953E+01  5.000000000E-01  0.00000E+00  9.000E+00
      21     1     1     2   511   513 -4.007378146E+00 -1.860216133E+00 -1.686005844E+01  1.742931594E+01  0.000000000E+00  0.00000E+00  9.000E+00
      21     1     1     2   512   511  9.791044691E-01 -8.359663776E+00 -3.738833262E+01  3.832401388E+01  6.743495762E-07  0.00000E+00  9.000E+00
</event>
<event>
      5  10001  3.52971E+09  3.93044E+00 -1.00000E+00  2.65270E-01
      21    -1     0     0   515   513  0.000000000E+00  0.000000000E+00  5.691101708E+02  5.691101708E+02  0.000000000E+00  0.00000E+00  9.000E+00
      21    -1     0     0   512   515  0.000000000E+00  0.000000000E+00 -9.794975642E-01  9.794975642E-01  0.000000000E+00  0.00000E+00  9.000E+00
      21     1     1     2   512   516  1.016278882E+01 -7.064665157E+00  5.508110355E+01  5.645458120E+01  6.743495762E-07  0.00000E+00  9.000E+00
      21     1     1     2   516   511 -6.240709099E+00  6.808402750E+00  7.481906887E+01  7.538696084E+01  1.348699152E-06  0.00000E+00  9.000E+00
      21     1     1     2   511   513 -3.922079723E+00  2.562624065E-01  4.382305008E+02  4.382481263E+02  9.344061824E-06  0.00000E+00  9.000E+00
</event>
<event>
      5  10001  3.52971E+09  1.05564E+01 -1.00000E+00  1.93073E-01
      21    -1     0     0   514   512  0.000000000E+00  0.000000000E+00  2.745941192E+01  2.745941192E+01  0.000000000E+00  0.00000E+00  9.000E+00
      21    -1     0     0   513   514  0.000000000E+00  0.000000000E+00 -2.065450100E+02  2.065450100E+02  0.000000000E+00  0.00000E+00  9.000E+00
      21     1     1     2   517   511  1.876414856E+01  8.847695543E+00 -4.585917169E+01  5.033327543E+01  1.651812370E-06  0.00000E+00  9.000E+00
      21     1     1     2   513   517 -1.054178782E+01 -2.227291548E+00 -1.571516415E+02  1.575205655E+02  3.814697266E-06  0.00000E+00  9.000E+00
      21     1     1     2   511   512 -8.222360736E+00 -6.620403994E+00  2.392521516E+01  2.615058098E+01  8.920806376E-07  0.00000E+00  9.000E+00
</event>
<event>
      5  10001  3.52971E+09  3.39553E+00 -1.00000E+00  2.81437E-01
      21    -1     0     0   515   514  0.000000000E+00  0.000000000E+00  3.836034335E+02  3.836034335E+02  0.000000000E+00  0.00000E+00  9.000E+00
      21    -1     0     0   511   512  0.000000000E+00  0.000000000E+00 -3.129202815E+00  3.129202815E+00  0.000000000E+00  0.00000E+00  9.000E+00
      21     1     1     2   515   512 -7.993823895E+00 -3.790481266E+00  3.775196015E+00  9.618787536E+00  1.115100797E-07  0.00000E+00  9.000E+00
      21     1     1     2   511   513  1.121287744E+01  4.870892273E+00  1.948602844E+02  1.952433985E+02  2.697398305E-06  0.00000E+00  9.000E+00
      21     1     1     2   513   514 -3.219053549E+00 -1.080411007E+00  1.818387503E+02  1.818704503E+02  0.000000000E+00  0.00000E+00  9.000E+00
</event>
<event>
      5  10001  3.52971E+09  2.22209E+00 -1.00000E+00  3.42983E-01
      21    -1     0     0   516   513  0.000000000E+00  0.000000000E+00  3.015787691E+01  3.015787691E+01  0.000000000E+00  0.00000E+00  9.000E+00
      21    -1     0     0   514   516  0.000000000E+00  0.000000000E+00 -5.315683936E+00  5.315683936E+00  0.000000000E+00  0.00000E+00  9.000E+00
      21     1     1     2   511   513 -3.129309286E+00  1.060621897E+01  2.081783353E+01  2.357258260E+01  4.129530925E-07  0.00000E+00  9.000E+00
      21     1     1     2   512   511  5.977216075E-01 -3.956387333E+00  7.614419362E-01  4.073090432E+00  9.245927368E-08  0.00000E+00  9.000E+00
      21     1     1     2   514   512  2.531587678E+00 -6.649831639E+00  3.262917507E+00  7.827887815E+00  7.300048300E-08  0.00000E+00  9.000E+00
</event>
<event>
      5  10001  3.52971E+09  4.89905E+00 -1.00000E+00  2.44305E-01
       2    -1     0     0   511     0  0.000000000E+00  0.000000000E+00  1.756227263E+02  1.756227263E+02  0.000000000E+00  0.00000E+00  9.000E+00
      21    -1     0     0   512   513  0.000000000E+00  0.000000000E+00 -4.118870598E+01  4.118870598E+01  0.000000000E+00  0.00000E+00  9.000E+00
      21     1     1     2   512   515 -1.537464007E+01  4.191891950E+00 -9.668556797E+00  1.863954146E+01  8.513246093E-07  0.00000E+00  9.000E+00
       2     1     1     2   515     0  1.862101904E+01 -7.860894211E+00  1.703125256E+02  1.715080211E+02  3.300000131E-01  0.00000E+00  9.000E+00
      21     1     1     2   511   513 -3.246378973E+00  3.669002261E+00 -2.620994846E+01  2.666386979E+01  5.840038640E-07  0.00000E+00  9.000E+00
</event>
<event>
      5  10001  3.52971E+09  8.22994E+00 -1.00000E+00  2.06069E-01
      21    -1     0     0   514   512  0.000000000E+00  0.000000000E+00  9.957769429E+02  9.957769429E+02  0.000000000E+00  0.00000E+00  9.000E+00
      21    -1     0     0   516   514  0.000000000E+00  0.000000000E+00 -7.388716204E+00  7.388716204E+00  0.000000000E+00  0.00000E+00  9.000E+00
      21     1     1     2   513   512  8.700597362E+00  1.294750891E+01  9.847081741E+02  9.848317250E+02  0.000000000E+00  0.00000E+00  9.000E+00
      21     1     1     2   515   513 -1.365082366E+00 -4.159258984E+00 -2.783743301E+00  5.187688496E+00  9.680021864E-07  0.00000E+00  9.000E+00
      21     1     1     2   516   515 -7.335514996E+00 -8.788249929E+00  6.463795918E+00  1.314624565E+01  5.591411304E-07  0.00000E+00  9.000E+00
</event>
<event>
      5  10001  3.52971E+09  1.19626E+01 -1.00000E+00  1.87166E-01
      21    -1     0     0   511   515  0.000000000E+00  0.000000000E+00  1.223810852E+02  1.223810852E+02  0.000000000E+00  0.00000E+00  9.000E+00
      21    -1     0     0   512   517  0.000000000E+00  0.000000000E+00 -3.982394829E+01  3.982394829E+01  0.000000000E+00  0.00000E+00  9.000E+00
      21     1     1     2   511   517 -9.848603055E+00 -1.627922053E+01  1.154152550E+02  1.169730272E+02  1.348699152E-06  0.00000E+00  9.000E+00
      21     1     1     2   513   515 -1.581269471E-01  1.080493884E+01 -3.202085812E+01  3.379507453E+01  0.000000000E+00  0.00000E+00  9.000E+00
      21     1     1     2   512   513  1.000673000E+01  5.474281690E+00 -8.372599289E-01  1.143693182E+01  7.742870484E-08  0.00000E+00  9.000E+00
</event>
<event>
      5  10001  3.52971E+09  5.42804E+00 -1.00000E+00  2.32442E-01
       2    -1     0     0   512     0  0.000000000E+00  0.000000000E+00  4.435119944E+01  4.435119944E+01  0.000000000E+00  0.00000E+00  9.000E+00
       2    -1     0     0   514     0  0.000000000E+00  0.000000000E+00 -6.335487517E+02  6.335487517E+02  0.000000000E+00  0.00000E+00  9.000E+00
      21     1     1     2   512   513 -6.214419973E+00  6.905984308E+00  4.797206581E-01  9.302782744E+00  2.309679985E-07  0.00000E+00  9.000E+00
       2     1     1     2   514     0  1.082884892E+01 -4.047570790E+00  3.860051362E+01  4.029584781E+01  3.300000131E-01  0.00000E+00  9.000E+00
       2     1     1     2   513     0 -4.614428950E+00 -2.858413518E+00 -6.282777865E+02  6.283013205E+02  3.300000131E-01  0.00000E+00  9.000E+00
</event>
<event>
      5  10001  3.52971E+09  2.75962E+00 -1.00000E+00  3.08315E-01
      21    -1     0     0   513   512  0.000000000E+00  0.000000000E+00  1.694385863E+02  1.694385863E+02  0.000000000E+00  0.00000E+00  9.000E+00
       2    -1     0     0   514     0  0.000000000E+00  0.000000000E+00 -4.047652272E+02  4.047652272E+02  0.000000000E+00  0.00000E+00  9.000E+00
      21     1     1     2   513   511 -3.736061569E+00 -1.011091288E+01 -2.415495498E+01  2.645090860E+01  7.539457465E-07  0.00000E+00  9.000E+00
       2     1     1     2   511     0  1.083107475E+00  1.087075047E+01 -3.793722743E+02  3.795296797E+02  3.300000131E-01  0.00000E+00  9.000E+00
      21     1     1     2   514   512  2.652954094E+00 -7.598375845E-01  1.682005885E+02  1.682232252E+02  1.907348633E-06  0.00000E+00  9.000E+00
</event>
<event>
      5  10001  3.52971E+09  1.20463E+01 -1.00000E+00  1.86848E-01
      -1    -1     0     0     0   512  0.000000000E+00  0.000000000E+00  1.225002741E+01  1.225002741E+01  0.000000000E+00  0.00000E+00  9.000E+00
      21    -1     0     0   513   515  0.000000000E+00  0.000000000E+00 -2.556512772E+01  2.556512772E+01  0.000000000E+00  0.00000E+00  9.000E+00
      -1     1     1     2     0   511  6.524152199E+00 -2.778519248E+00  3.640116133E+00  7.977723773E+00  3.300000131E-01  0.00000E+00  9.000E+00
      21     1     1     2   513   512 -1.488951055E+01 -1.823292034E+00 -1.060771284E+01  1.837241111E+01  0.000000000E+00  0.00000E+00  9.000E+00
      21     1     1     2   511   515  8.365358350E+00  4.601811283E+00 -6.347503597E+00  1.146502025E+01  2.064765462E-07  0.00000E+00  9.000E+00
</event>
<event>
      5  10001  3.52971E+09  1.23908E+01 -1.00000E+00  1.85572E-01
       2    -1     0     0   514     0  0.000000000E+00  0.000000000E+00  5.906605199E+02  5.906605199E+02  0.000000000E+00  0.00000E+00  9.000E+00
      21    -1     0     0   511   516  0.000000000E+00  0.000000000E+00 -6.963646956E+00  6.963646956E+00  0.000000000E+00  0.00000E+00  9.000E+00
      21     1     1     2   514   516  1.165764227E+01 -5.761251166E+00  5.285422672E-01  1.301429964E+01  6.989264130E-08  0.00000E+00  9.000E+00
      21     1     1     2   511   513 -2.052034649E+00  1.358822399E+01  7.248809584E+01  7.377922957E+01  1.348699152E-06  0.00000E+00  9.000E+00
       2     1     1     2   513     0 -9.605607621E+00 -7.826972819E+00  5.106802348E+02  5.108306376E+02  3.300000131E-01  0.00000E+00  9.000E+00
</event>
<event>
      5  10001  3.52971E+09  5.90036E+00 -1.00000E+00  2.26601E-01
       2    -1     0     0   514     0  0.000000000E+00  0.000000000E+00  4.379731204E+02  4.379731204E+02  0.000000000E+00  0.00000E+00  9.000E+00
      21    -1     0     0   513   511  0.000000000E+00  0.000000000E+00 -4.857895206E+01  4.857895206E+01  0.000000000E+00  0.00000E+00  9.000E+00
      21     1     1     2   513   512 -6.620376600E+00 -6.747079514E+00  4.230791075E+01  4.335102975E+01  1.581489940E-06  0.00000E+00  9.000E+00
       2     1     1     2   512     0  1.110788230E+01  2.916088041E+00  3.948786766E+02  3.950457781E+02  3.300000131E-01  0.00000E+00  9.000E+00
      21     1     1     2   514   511 -4.487505697E+00  3.830991473E+00 -4.779241899E+01  4.815526468E+01  1.784161275E-06  0.00000E+00  9.000E+00
</event>
<event>
      5  10001  3.52971E+09  4.36064E+00 -1.00000E+00  2.54931E-01
      21    -1     0     0   515   512  0.000000000E+00  0.000000000E+00  1.557090716E+02  1.557090716E+02  0.000000000E+00  0.00000E+00  9.000E+00
      21    -1     0     0   516   515  0.000000000E+00  0.000000000E+00 -5.394242064E+00  5.394242064E+00  0.000000000E+00  0.00000E+00  9.000E+00
      21     1     1     2   511   513  8.104271148E+00 -3.750101338E+00  1.365258381E+02  1.368175681E+02  2.697398305E-06  0.00000E+00  9.000E+00
      21     1     1     2   516   511 -8.660093203E+00  8.075169523E+00  2.387947903E+00  1.207923310E+01  3.397987560E-07  0.00000E+00  9.000E+00
      21     1     1     2   513   512  5.558220547E-01 -4.325068185E+00  1.140104352E+01  1.220651246E+01  1.685873940E-07  0.00000E+00  9.000E+00
</event>
<event>
      5  10001  3.52971E+09  5.61848E+00 -1.00000E+00  2.29990E-01
      -3    -1     0     0     0   512  0.000000000E+00  0.000000000E+00  1.099817775E+02  1.099817775E+02  0.000000000E+00  0.00000E+00  9.000E+00
      21    -1     0     0   511   514  0.000000000E+00  0.000000000E+00 -5.372997875E+00  5.372997875E+00  0.000000000E+00  0.00000E+00  9.000E+00
      -3     1     1     2     0   514 -6.938816376E+00  1.768012991E+01  8.558903083E+01  8.767249491E+01  5.000000000E-01  0.00000E+00  9.000E+00
      21     1     1     2   511   515  1.659585351E+00 -1.226326046E+01  1.353214160E+01  1.833741086E+01  3.769728732E-07  0.00000E+00  9.000E+00
      21     1     1     2   515   512  5.279231025E+00 -5.416869448E+00  5.487607157E+00  9.344869562E+00  1.460009660E-07  0.00000E+00  9.000E+00
</event>
<event>
      5  10001  3.52971E+09  1.17740E+01 -1.00000E+00  1.87896E-01
      21    -1     0     0   514   511  0.000000000E+00  0.000000000E+00  1.374368631E+01  1.374368631E+01  0.000000000E+00  0.00000E+00  9.000E+00
      21    -1     0     0   516   512  0.000000000E+00  0.000000000E+00 -2.504592732E+02  2.504592732E+02  0.000000000E+00  0.00000E+00  9.000E+00
      21     1     1     2   513   512 -1.243715786E+00 -7.879074100E+00 -1.926271533E+01  2.084895296E+01  1.066240300E-06  0.00000E+00  9.000E+00
      21     1     1     2   516   511 -9.249511821E+00  1.321943427E+01 -2.273811133E+02  2.279527969E+02  2.697398305E-06  0.00000E+00  9.000E+00
      21     1     1     2   514   513  1.049322761E+01 -5.340360174E+00  9.928241813E+00  1.540120962E+01  8.840797528E-07  0.00000E+00  9.000E+00
</event>
<event>
      5  10001  3.52971E+09  5.06836E+00 -1.00000E+00  2.37484E-01
      21    -1     0     0   515   512  0.000000000E+00  0.000000000E+00  4.035746901E+01  4.035746901E+01  0.000000000E+00  0.00000E+00  9.000E+00
      21    -1     0     0   517   515  0.000000000E+00  0.000000000E+00 -6.430138236E+00  6.430138236E+00  0.000000000E+00  0.00000E+00  9.000E+00
      21     1     1     2   517   513  1.208430644E-01  9.616559001E+00 -9.491462101E-01  9.664041007E+00  2.210199382E-07  0.00000E+00  9.000E+00
      21     1     1     2   511   512 -2.543865341E+00 -5.710868443E+00  2.898351278E+01  2.965011437E+01  3.371747881E-07  0.00000E+00  9.000E+00
      21     1     1     2   513   511  2.423022277E+00 -3.905690557E+00  5.892964206E+00  7.473451868E+00  8.429369702E-08  0.00000E+00  9.000E+00
</event>
<event>
      5  10001  3.52971E+09  4.98772E+00 -1.00000E+00  2.42750E-01
      21    -1     0     0   514   511  0.000000000E+00  0.000000000E+00  6.184854570E+01  6.184854570E+01  0.000000000E+00  0.00000E+00  9.000E+00
      21    -1     0     0   516   514  0.000000000E+00  0.000000000E+00 -2.059306923E+01  2.059306923E+01  0.000000000E+00  0.00000E+00  9.000E+00
      21     1     1     2   516   517  1.039562328E+01 -1.645111140E+00 -1.729853133E+01  2.024881627E+01  7.539457465E-07  0.00000E+00  9.000E+00
      21     1     1     2   517   512 -1.268922103E+01  1.087831567E+00  5.845936896E+01  5.983057352E+01  9.536743164E-07  0.00000E+00  9.000E+00
      21     1     1     2   512   511  2.293597744E+00  5.572795736E-01  9.463882922E-02  2.362225147E+00  5.658886407E-08  0.00000E+00  9.000E+00
</event>
<event>
      5  10001  3.52971E+09  5.89345E+00 -1.00000E+00  2.26681E-01
      21    -1     0     0   513   514  0.000000000E+00  0.000000000E+00  2.283324902E+01  2.283324902E+01  0.000000000E+00  0.00000E+00  9.000E+00
       1    -1     0     0   511     0  0.000000000E+00  0.000000000E+00 -8.325639454E+01  8.325639454E+01  0.000000000E+00  0.00000E+00  9.000E+00
      21     1     1     2   513   512  2.488659720E+01  2.881714465E+01 -9.885548272E+00  3.933820802E+01  0.000000000E+00  0.00000E+00  9.000E+00
       1     1     1     2   512     0 -2.561039060E+01 -2.296840657E+01 -5.018865718E+01  6.084776099E+01  3.300000131E-01  0.00000E+00  9.000E+00
      21     1     1     2   511   514  7.237934037E-01 -5.848738076E+00 -3.489400676E-01  5.903674546E+00  6.420049049E-08  0.00000E+00  9.000E+00
</event>
<event>
      5  10001  3.52971E+09  1.74676E+01 -1.00000E+00  1.71368E-01
       2    -1     0     0   513     0  0.000000000E+00  0.000000000E+00  1.060490326E+03  1.060490326E+03  0.000000000E+00  0.00000E+00  9.000E+00
      -4    -1     0     0     0   512  0.000000000E+00  0.000000000E+00 -2.456955865E+00  2.456955865E+00  0.000000000E+00  0.00000E+00  9.000E+00
      -4     1     1     2     0   511  7.762767586E+00 -1.343467478E+01  3.263022553E+01  3.616258653E+01  1.500000000E+00  0.00000E+00  9.000E+00
       2     1     1     2   511     0  8.974503721E+00  8.454978053E+00  9.085739296E+02  9.086576488E+02  3.300000131E-01  0.00000E+00  9.000E+00
      21     1     1     2   513   512 -1.673727131E+01  4.979696722E+00  1.168292151E+02  1.181270466E+02  1.348699152E-06  0.00000E+00  9.000E+00
</event>
<event>
      5  10001  3.52971E+09  7.76194E+00 -1.00000E+00  2.09396E-01
      21    -1     0     0   514   511  0.000000000E+00  0.000000000E+00  4.301182178E+01  4.301182178E+01  0.000000000E+00  0.00000E+00  9.000E+00
      21    -1     0     0   516   515  0.000000000E+00  0.000000000E+00 -3.768070878E+00  3.768070878E+00  0.000000000E+00  0.00000E+00  9.000E+00
      21     1     1     2   514   515  6.552374261E+00 -8.256223253E+00  8.029158187E+00  1.325014008E+01  3.153981341E-07  0.00000E+00  9.000E+00
      21     1     1     2   517   511 -2.947507759E+00  4.347968070E+00  7.076571958E+00  8.813086803E+00  1.192092896E-07  0.00000E+00  9.000E+00
      21     1     1     2   516   517 -3.604866502E+00  3.908255182E+00  2.413802076E+01  2.471666578E+01  4.768371582E-07  0.00000E+00  9.000E+00
</event>
<event>
      5  10001  3.52971E+09  4.56206E+00 -1.00000E+00  2.50695E-01
      21    -1     0     0   512   515  0.000000000E+00  0.000000000E+00  2.139121661E+01  2.139121661E+01  0.000000000E+00  0.00000E+00  9.000E+00
      21    -1     0     0   513   512  0.000000000E+00  0.000000000E+00 -2.461738931E+01  2.461738931E+01  0.000000000E+00  0.00000E+00  9.000E+00
      21     1     1     2   513   516 -6.772294731E+00  1.359503868E+01 -1.688009916E+01  2.270741730E+01  2.384185791E-07  0.00000E+00  9.000E+00
      21     1     1     2   511   515  3.922272020E+00 -1.208423051E+01  1.512749133E+01  1.975484343E+01  4.768371582E-07  0.00000E+00  9.000E+00
      21     1     1     2   516   511  2.850022711E+00 -1.510808173E+00 -1.473564869E+00  3.546345191E+00  1.032382731E-07  0.00000E+00  9.000E+00
</event>
<event>
      5  10001  3.52971E+09  7.67183E+00 -1.00000E+00  2.10072E-01
      -1    -1     0     0     0   511  0.000000000E+00  0.000000000E+00  5.751792930E+00  5.751792930E+00  0.000000000E+00  0.00000E+00  9.000E+00
      21    -1     0     0   513   517  0.000000000E+00  0.000000000E+00 -2.275772679E+02  2.275772679E+02  0.000000000E+00  0.00000E+00  9.000E+00
      21     1     1     2   514   517  1.071651509E+01  7.893943833E+00 -7.147220603E+01  7.270099229E+01  9.536743164E-07  0.00000E+00  9.000E+00
      21     1     1     2   513   511 -7.971771996E+00 -7.301013420E-01 -1.524564755E+02  1.526664964E+02  2.697398305E-06  0.00000E+00  9.000E+00
      -1     1     1     2     0   514 -2.744743092E+00 -7.163842491E+00  2.103206534E+00  7.961572182E+00  3.300000131E-01  0.00000E+00  9.000E+00
</event>
<event>
      5  10001  3.52971E+09  5.18758E+00 -1.00000E+00  2.35748E-01
      21    -1     0     0   512   511  0.000000000E+00  0.000000000E+00  2.926967213E+01  2.926967213E+01  0.000000000E+00  0.00000E+00  9.000E+00
       2    -1     0     0   513     0  0.000000000E+00  0.000000000E+00 -7.414821353E+00  7.414821353E+00  0.000000000E+00  0.00000E+00  9.000E+00
      21     1     1     2   513   511  1.052467574E+01  6.397000600E+00  1.796963726E+01  2.178527666E+01  0.000000000E+00  0.00000E+00  9.000E+00
       2     1     1     2   515     0 -7.283722267E+00 -2.518644202E+00 -1.109580495E+00  7.793346365E+00  3.300000131E-01  0.00000E+00  9.000E+00
      21     1     1     2   512   515 -3.240953468E+00 -3.878356399E+00  4.994794019E+00  7.105870462E+00  0.000000000E+00  0.00000E+00  9.000E+00
</event>
<event>
      5  10001  3.52971E+09  6.36607E+01 -1.00000E+00  1.33341E-01
      21    -1     0     0   514   513  0.000000000E+00  0.000000000E+00  3.041639325E+02  3.041639325E+02  0.000000000E+00  0.00000E+00  9.000E+00
      21    -1     0     0   511   516  0.000000000E+00  0.000000000E+00 -9.542275994E+01  9.542275994E+01  0.000000000E+00  0.00000E+00  9.000E+00
      21     1     1     2   514   516  4.097171289E+00  5.075340899E+01  2.686459668E+02  2.734288771E+02  3.814697266E-06  0.00000E+00  9.000E+00
      21     1     1     2   511   517 -1.867867911E+01 -7.789889469E+01 -4.075610179E+01  8.987875544E+01  1.784161275E-06  0.00000E+00  9.000E+00
      21     1     1     2   517   513  1.458150782E+01  2.714548570E+01 -1.914869247E+01  3.627905990E+01  6.743495762E-07  0.00000E+00  9.000E+00
</event>
<event>
      5  10001  3.52971E+09  1.93964E+01 -1.00000E+00  1.67471E-01
      21    -1     0     0   512   511  0.000000000E+00  0.000000000E+00  3.372531352E+00  3.372531352E+00  0.000000000E+00  0.00000E+00  9.000E+00
      21    -1     0     0   513   512  0.000000000E+00  0.000000000E+00 -2.806689623E+02  2.806689623E+02  0.000000000E+00  0.00000E+00  9.000E+00
      21     1     1     2   513   515  1.309317751E+01 -1.421523157E+01 -3.481928719E+01  3.982319508E+01  4.768371582E-07  0.00000E+00  9.000E+00
      21     1     1     2   515   514 -1.700293501E+01  3.627059453E+00 -1.256239411E+02  1.268212519E+02  1.348699152E-06  0.00000E+00  9.000E+00
      21     1     1     2   514   511  3.909757500E+00  1.058817212E+01 -1.168532027E+02  1.173970467E+02  2.697398305E-06  0.00000E+00  9.000E+00
</event>
<event>
      5  10001  3.52971E+09  3.09802E+00 -1.00000E+00  2.92684E-01
      21    -1     0     0   516   515  0.000000000E+00  0.000000000E+00  6.547046512E+00  6.547046512E+00  0.000000000E+00  0.00000E+00  9.000E+00
      21    -1     0     0   513   511  0.000000000E+00  0.000000000E+00 -1.860593622E+01  1.860593622E+01  0.000000000E+00  0.00000E+00  9.000E+00
      21     1     1     2   516   511 -2.428091879E+00 -9.516253439E+00 -2.112022947E+00  1.004566327E+01  1.712013080E-07  0.00000E+00  9.000E+00
      21     1     1     2   513   512  1.066866217E+00  7.799283339E+00 -1.021896306E+01  1.289938875E+01  1.685873940E-07  0.00000E+00  9.000E+00
      21     1     1     2   512   515  1.361225662E+00  1.716970100E+00  2.720962950E-01  2.207930710E+00  5.359759394E-08  0.00000E+00  9.000E+00
</event>
<event>
      5  10001  3.52971E+09  4.26972E+00 -1.00000E+00  2.56959E-01
       2    -1     0     0   511     0  0.000000000E+00  0.000000000E+00  5.613626155E+01  5.613626155E+01  0.000000000E+00  0.00000E+00  9.000E+00
      -2    -1     0     0     0   511  0.000000000E+00  0.000000000E+00 -3.295471496E+01  3.295471496E+01  0.000000000E+00  0.00000E+00  9.000E+00
      21     1     1     2   514   512  8.525897074E+00  4.156069064E+00 -2.892257930E+00  9.916097363E+00  1.685873940E-07  0.00000E+00  9.000E+00
       2     1     1     2   512     0 -7.212917143E+00 -8.218744785E+00  5.187739342E+01  5.301836274E+01  3.300000131E-01  0.00000E+00  9.000E+00
      -2     1     1     2     0   514 -1.312979932E+00  4.062675721E+00 -2.580358890E+01  2.615651640E+01  3.300000131E-01  0.00000E+00  9.000E+00
</event>
<event>
      5  10001  3.52971E+09  2.29732E+01 -1.00000E+00  1.61548E-01
      21    -1     0     0   513   514  0.000000000E+00  0.000000000E+00  9.614070708E+00  9.614070708E+00  0.000000000E+00  0.00000E+00  9.000E+00
      21    -1     0     0   515   513  0.000000000E+00  0.000000000E+00 -2.890788027E+01  2.890788027E+01  0.000000000E+00  0.00000E+00  9.000E+00
      21     1     1     2   516   514  4.949129843E-01  7.180625549E+00  2.896977976E+00  7.758788793E+00  1.115100797E-07  0.00000E+00  9.000E+00
      21     1     1     2   515   511 -3.207634692E+00 -7.980280140E+00 -2.122560671E-01  8.603420487E+00  7.876148266E-08  0.00000E+00  9.000E+00
      21     1     1     2   511   516  2.712721708E+00  7.996545908E-01 -2.197853147E+01  2.215974170E+01  4.129530925E-07  0.00000E+00  9.000E+00
</event>
<event>
      5  10001  3.52971E+09  4.81838E+00 -1.00000E+00  2.45763E-01
      21    -1     0     0   511   512  0.000000000E+00  0.000000000E+00  2.114044289E+01  2.114044289E+01  0.000000000E+00  0.00000E+00  9.000E+00
       1    -1     0     0   514     0  0.000000000E+00  0.000000000E+00 -6.451790885E+00  6.451790885E+00  0.000000000E+00  0.00000E+00  9.000E+00
      21     1     1     2   513   512 -8.112764480E+00 -2.733957490E-01  3.406460952E+00  8.803162441E+00  1.576990671E-07  0.00000E+00  9.000E+00
       1     1     1     2   511     0  1.050848911E+01 -1.279227955E+00  4.647079025E+00  1.156585540E+01  3.300000131E-01  0.00000E+00  9.000E+00
      21     1     1     2   514   513 -2.395724630E+00  1.552623704E+00  6.635112029E+00  7.223215939E+00  1.192092896E-07  0.00000E+00  9.000E+00
</event>
<event>
      5  10001  3.52971E+09  3.16250E+00 -1.00000E+00  2.90075E-01
      21    -1     0     0   515   513  0.000000000E+00  0.000000000E+00  1.412973394E+02  1.412973394E+02  0.000000000E+00  0.00000E+00  9.000E+00
      21    -1     0     0   514   515  0.000000000E+00  0.000000000E+00 -6.163954037E+00  6.163954037E+00  0.000000000E+00  0.00000E+00  9.000E+00
      21     1     1     2   516   513 -7.845573080E+00  6.393805731E+00  1.349706339E+02  1.353495688E+02  1.907348633E-06  0.00000E+00  9.000E+00
      21     1     1     2   514   511  4.824564111E+00 -3.660748650E+00 -3.181525859E+00  6.841023778E+00  1.115100797E-07  0.00000E+00  9.000E+00
      21     1     1     2   511   516  3.021008970E+00 -2.733057081E+00  3.344277281E+00  5.270700782E+00  7.300048300E-08  0.00000E+00  9.000E+00
</event>
<event>
      5  10001  3.52971E+09  5.81362E+00 -1.00000E+00  2.27615E-01
      21    -1     0     0   512   514  0.000000000E+00  0.000000000E+00  2.731421038E+01  2.731421038E+01  0.000000000E+00  0.00000E+00  9.000E+00
      21    -1     0     0   513   516  0.000000000E+00  0.000000000E+00 -4.006162319E+02  4.006162319E+02  0.000000000E+00  0.00000E+00  9.000E+00
      21     1     1     2   512   516 -1.203305093E+01  7.347227267E-01  2.543448745E+01  2.814688764E+01  1.507891493E-06  0.00000E+00  9.000E+00
      21     1     1     2   513   515  1.004551139E+01 -4.995369812E+00 -3.866813763E+02  3.868440937E+02  5.394796609E-06  0.00000E+00  9.000E+00
      21     1     1     2   515   514  1.987539540E+00  4.260647086E+00 -1.205513265E+01  1.293946097E+01  1.685873940E-07  0.00000E+00  9.000E+00
</event>
<event>
      5  10001  3.52971E+09  8.99243E+00 -1.00000E+00  2.01240E-01
      21    -1     0     0   511   513  0.000000000E+00  0.000000000E+00  1.026743067E+02  1.026743067E+02  0.000000000E+00  0.00000E+00  9.000E+00
      21    -1     0     0   514   512  0.000000000E+00  0.000000000E+00 -1.424315936E+02  1.424315936E+02  0.000000000E+00  0.00000E+00  9.000E+00
      21     1     1     2   514   517 -5.769383573E+00  9.116781259E+00 -1.347431694E+02  1.351744177E+02  2.697398305E-06  0.00000E+00  9.000E+00
      21     1     1     2   517   513  7.155119701E+00 -1.800179737E+01  9.841800141E+01  1.003063480E+02  1.907348633E-06  0.00000E+00  9.000E+00
      21     1     1     2   511   512 -1.385736128E+00  8.885016107E+00 -3.432118877E+00  9.625134587E+00  2.269677253E-07  0.00000E+00  9.000E+00
</event>
<event>
      5  10001  3.52971E+09  4.83462E+00 -1.00000E+00  2.45466E-01
      21    -1     0     0   515   513  0.000000000E+00  0.000000000E+00  4.512015121E+01  4.512015121E+01  0.000000000E+00  0.00000E+00  9.000E+00
      -1    -1     0     0     0   512  0.000000000E+00  0.000000000E+00 -2.046064864E+01  2.046064864E+01  0.000000000E+00  0.00000E+00  9.000E+00
      -1     1     1     2     0   513  2.212412436E+01  8.938623846E-01  9.429916499E+00  2.406881995E+01  3.300000131E-01  0.00000E+00  9.000E+00
      21     1     1     2   514   512 -2.404572479E+01  3.542249998E+00 -1.250555639E+00  2.433738493E+01  3.737192215E-07  0.00000E+00  9.000E+00
      21     1     1     2   515   514  1.921600432E+00 -4.436112382E+00  1.648014171E+01  1.717459496E+01  2.384185791E-07  0.00000E+00  9.000E+00
</event>
<event>
      5  10001  3.52971E+09  4.03071E+00 -1.00000E+00  2.62681E-01
      21    -1     0     0   511   514  0.000000000E+00  0.000000000E+00  2.340419038E+02  2.340419038E+02  0.000000000E+00  0.00000E+00  9.000E+00
      21    -1     0     0   513   512  0.000000000E+00  0.000000000E+00 -7.299587538E+01  7.299587538E+01  0.000000000E+00  0.00000E+00  9.000E+00
      21     1     1     2   511   516 -1.212429248E+01  7.758126055E+00  2.250780731E+02  2.255378593E+02  2.697398305E-06  0.00000E+00  9.000E+00
      21     1     1     2   513   514  1.059061262E+01 -4.030594804E+00  4.974700326E+00  1.237555709E+01  1.460009660E-07  0.00000E+00  9.000E+00
      21     1     1     2   516   512  1.533679866E+00 -3.727531251E+00 -6.900674505E+01  6.912436275E+01  9.536743164E-07  0.00000E+00  9.000E+00
</event>
<event>
      5  10001  3.52971E+09  3.51463E+00 -1.00000E+00  2.77442E-01
      21    -1     0     0   511   513  0.000000000E+00  0.000000000E+00  1.552598878E+01  1.552598878E+01  0.000000000E+00  0.00000E+00  9.000E+00
      21    -1     0     0   517   515  0.000000000E+00  0.000000000E+00 -1.283504511E+02  1.283504511E+02  0.000000000E+00  0.00000E+00  9.000E+00
      21     1     1     2   512   513 -8.420272868E+00  8.942849700E+00 -1.049295183E+00  1.232787801E+01  3.625608999E-07  0.00000E+00  9.000E+00
      21     1     1     2   517   512  5.162635702E+00 -7.623595744E+00 -1.211692401E+02  1.215185450E+02  2.336015456E-06  0.00000E+00  9.000E+00
      21     1     1     2   511   515  3.257637167E+00 -1.319253956E+00  9.394073008E+00  1.003001688E+01  3.769728732E-07  0.00000E+00  9.000E+00
</event>
<event>
      5  10001  3.52971E+09  8.57898E+00 -1.00000E+00  2.03775E-01
      21    -1     0     0   516   512  0.000000000E+00  0.000000000E+00  2.023430854E+02  2.023430854E+02  0.000000000E+00  0.00000E+00  9.000E+00
       1    -1     0     0   513     0  0.000000000E+00  0.000000000E+00 -3.340711007E+01  3.340711007E+01  0.000000000E+00  0.00000E+00  9.000E+00
      21     1     1     2   516   514  6.275234064E-01 -1.399505856E+01  1.958800113E+02  1.963803306E+02  3.814697266E-06  0.00000E+00  9.000E+00
       1     1     1     2   514     0  7.923666483E+00  1.468452483E+01 -2.578252015E+01  3.071265221E+01  3.300000131E-01  0.00000E+00  9.000E+00
      21     1     1     2   513   512 -8.551189890E+00 -6.894662713E-01 -1.161515738E+00  8.657212662E+00  1.884864366E-07  0.00000E+00  9.000E+00
</event>
<event>
      5  10001  3.52971E+09  4.53206E+00 -1.00000E+00  2.51305E-01
      21    -1     0     0   511   515  0.000000000E+00  0.000000000E+00  1.168421369E+02  1.168421369E+02  0.000000000E+00  0.00000E+00  9.000E+00
      21    -1     0     0   512   514  0.000000000E+00  0.000000000E+00 -1.860003706E+01  1.860003706E+01  0.000000000E+00  0.00000E+00  9.000E+00
      21     1     1     2   513   515 -1.388860488E+00  1.463985009E+01  1.102242604E+02  1.112009071E+02  1.348699152E-06  0.00000E+00  9.000E+00
      21     1     1     2   512   513 -2.880865649E+00 -1.615937761E+01 -8.252974787E+00  1.837216548E+01  7.907449699E-07  0.00000E+00  9.000E+00
      21     1     1     2   511   514  4.269726137E+00  1.519527529E+00 -3.729185777E+00  5.869101443E+00  1.332800375E-07  0.00000E+00  9.000E+00
</event>
<event>
      5  10001  3.52971E+09  6.91470E+00 -1.00000E+00  2.16303E-01
      21    -1     0     0   516   513  0.000000000E+00  0.000000000E+00  1.319834120E+02  1.319834120E+02  0.000000000E+00  0.00000E+00  9.000E+00
      21    -1     0     0   517   516  0.000000000E+00  0.000000000E+00 -1.318193213E+01  1.318193213E+01  0.000000000E+00  0.00000E+00  9.000E+00
      21     1     1     2   512   513  1.153352396E+01  1.012586599E+00  1.270606342E+02  1.275870381E+02  1.348699152E-06  0.00000E+00  9.000E+00
      21     1     1     2   517   515 -5.927139137E+00 -4.899426170E+00 -7.452809144E+00  1.070886172E+01  4.380028980E-07  0.00000E+00  9.000E+00
      21     1     1     2   515   512 -5.606384820E+00  3.886839571E+00 -8.063452544E-01  6.869444321E+00  3.293460027E-07  0.00000E+00  9.000E+00
</event>
<event>
      5  10001  3.52971E+09  7.13061E+00 -1.00000E+00  2.14420E-01
      21    -1     0     0   511   514  0.000000000E+00  0.000000000E+00  3.553400324E+00  3.553400324E+00  0.000000000E+00  0.00000E+00  9.000E+00
      21    -1     0     0   513   512  0.000000000E+00  0.000000000E+00 -6.374477645E+01  6.374477645E+01  0.000000000E+00  0.00000E+00  9.000E+00
      21     1     1     2   511   512 -3.663266031E+00  1.215036662E+01 -4.346646054E+01  4.528116738E+01  0.000000000E+00  0.00000E+00  9.000E+00
      21     1     1     2   516   514  1.553170845E+00 -7.150545814E+00 -1.431991067E+01  1.608112206E+01  1.685873940E-07  0.00000E+00  9.000E+00
      21     1     1     2   513   516  2.110095187E+00 -4.999820810E+00 -2.405004917E+00  5.935887338E+00  7.300048300E-08  0.00000E+00  9.000E+00
</event>
<event>
      5  10001  3.52971E+09  1.07792E+01 -1.00000E+00  1.92059E-01
      21    -1     0     0   515   512  0.000000000E+00  0.000000000E+00  2.572792736E+01  2.572792736E+01  0.000000000E+00  0.00000E+00  9.000E+00
      21    -1     0     0   513   515  0.000000000E+00  0.000000000E+00 -5.801955730E+01  5.801955730E+01  0.000000000E+00  0.00000E+00  9.000E+00
      21     1     1     2   513   517  9.297524975E+00  3.214567196E+00 -5.196627684E+01  5.288923654E+01  6.743495762E-07  0.00000E+00  9.000E+00
      21     1     1     2   511   512 -1.343704415E+01 -8.489549108E+00  1.786709640E+01  2.391358888E+01  2.384185791E-07  0.00000E+00  9.000E+00
      21     1     1     2   517   511  4.139519173E+00  5.274981912E+00  1.807550510E+00  6.944659243E+00  1.604904177E-07  0.00000E+00  9.000E+00
</event>
<event>
      5  10001  3.52971E+09  1.06233E+01 -1.00000E+00  1.92765E-01
      21    -1     0     0   514   511  0.000000000E+00  0.000000000E+00  8.498521411E+00  8.498521411E+00  0.000000000E+00  0.00000E+00  9.000E+00
      21    -1     0     0   513   516  0.000000000E+00  0.000000000E+00 -1.350845239E+01  1.350845239E+01  0.000000000E+00  0.00000E+00  9.000E+00
      21     1     1     2   514   516 -7.607071945E+00 -1.087947180E+00  2.813909587E-01  7.689626357E+00  1.585766424E-07  0.00000E+00  9.000E+00
      21     1     1     2   512   511  5.194482659E+00 -4.491506475E+00 -1.151737637E+00  6.962957711E+00  7.884953353E-08  0.00000E+00  9.000E+00
      21     1     1     2   513   512  2.412589286E+00  5.579453654E+00 -4.139584299E+00  7.354389730E+00  1.685873940E-07  0.00000E+00  9.000E+00
</event>
<event>
      5  10001  3.52971E+09  6.30111E+00 -1.00000E+00  2.22213E-01
      21    -1     0     0   515   511  0.000000000E+00  0.000000000E+00  5.598976929E-01  5.598976929E-01  0.000000000E+00  0.00000E+00  9.000E+00
      21    -1     0     0   513   515  0.000000000E+00  0.000000000E+00 -1.991066125E+02  1.991066125E+02  0.000000000E+00  0.00000E+00  9.000E+00
      21     1     1     2   512   511  7.332221613E+00  6.259219663E+00 -6.950529886E+01  7.017069099E+01  0.000000000E+00  0.00000E+00  9.000E+00
      21     1     1     2   513   514 -9.861055520E-01 -3.952813731E+00 -5.162426616E+01  5.178476607E+01  9.536743164E-07  0.00000E+00  9.000E+00
      21     1     1     2   514   512 -6.346116061E+00 -2.306405933E+00 -7.741714975E+01  7.771105309E+01  9.536743164E-07  0.00000E+00  9.000E+00
</event>
<event>
      5  10001  3.52971E+09  8.68398E+00 -1.00000E+00  2.03114E-01
      21    -1     0     0   513   511  0.000000000E+00  0.000000000E+00  3.311810131E+01  3.311810131E+01  0.000000000E+00  0.00000E+00  9.000E+00
       2    -1     0     0   511     0  0.000000000E+00  0.000000000E+00 -8.219805007E+01  8.219805007E+01  0.000000000E+00  0.00000E+00  9.000E+00
      21     1     1     2   513   515 -1.611887070E+00 -5.195949494E+00  2.962980621E+01  3.012509729E+01  5.840038640E-07  0.00000E+00  9.000E+00
       2     1     1     2   514     0  7.753411566E-03  1.216420327E+01 -7.684347613E+01  7.780100658E+01  3.300000131E-01  0.00000E+00  9.000E+00
      21     1     1     2   515   514  1.604133658E+00 -6.968253779E+00 -1.866278835E+00  7.390047510E+00  2.107342426E-08  0.00000E+00  9.000E+00
</event>
<event>
      5  10001  3.52971E+09  1.61340E+01 -1.00000E+00  1.74449E-01
      -3    -1     0     0     0   512  0.000000000E+00  0.000000000E+00  5.762407127E+01  5.762407127E+01  0.000000000E+00  0.00000E+00  9.000E+00
      21    -1     0     0   513   514  0.000000000E+00  0.000000000E+00 -3.144019877E+00  3.144019877E+00  0.000000000E+00  0.00000E+00  9.000E+00
      -3     1     1     2     0   514  5.975902218E+00  2.388367883E+00  2.054822202E+01  2.153822501E+01  5.000000000E-01  0.00000E+00  9.000E+00
      21     1     1     2   513   511 -6.208953277E+00  3.704789571E+00  3.213538274E+00  7.912230710E+00  1.332800375E-07  0.00000E+00  9.000E+00
      21     1     1     2   511   512  2.330510595E-01 -6.093157455E+00  3.071829110E+01  3.131763543E+01  3.371747881E-07  0.00000E+00  9.000E+00
</event>
<event>
      5  10001  3.52971E+09  6.19252E+00 -1.00000E+00  2.23356E-01
      21    -1     0     0   515   513  0.000000000E+00  0.000000000E+00  8.344657781E+01  8.344657781E+01  0.000000000E+00  0.00000E+00  9.000E+00
      21    -1     0     0   516   512  0.000000000E+00  0.000000000E+00 -7.289844739E+00  7.289844739E+00  0.000000000E+00  0.00000E+00  9.000E+00
      21     1     1     2   515   512 -5.269659290E+00 -8.532289760E+00  7.367554329E+01  7.435492557E+01  9.536743164E-07  0.00000E+00  9.000E+00
      21     1     1     2   514   513  4.767761822E-01  9.032830480E+00 -2.566896084E+00  9.402568666E+00  4.086288572E-07  0.00000E+00  9.000E+00
      21     1     1     2   516   514  4.792883108E+00 -5.005407205E-01  5.048085871E+00  6.978928317E+00  5.960464478E-08  0.00000E+00  9.000E+00
</event>
<event>
      5  10001  3.52971E+09  6.87803E+00 -1.00000E+00  2.16633E-01
      21    -1     0     0   511   513  0.000000000E+00  0.000000000E+00  1.453995328E+03  1.453995328E+03  0.000000000E+00  0.00000E+00  9.000E+00
      21    -1     0     0   516   512  0.000000000E+00  0.000000000E+00 -1.834971174E+00  1.834971174E+00  0.000000000E+00  0.00000E+00  9.000E+00
      21     1     1     2   514   513  7.785408380E+00  6.047537039E-01  1.288723902E+03  1.288747560E+03  2.642899792E-05  0.00000E+00  9.000E+00
      21     1     1     2   516   514 -1.301737859E+01  3.859971258E+00  1.572400231E+02  1.578251450E+02  1.907348633E-06  0.00000E+00  9.000E+00
      21     1     1     2   511   512  5.231970213E+00 -4.464724962E+00  6.196431843E+00  9.257594120E+00  5.397430145E-07  0.00000E+00  9.000E+00
</event>
<event>
      5  10001  3.52971E+09  2.24893E+01 -1.00000E+00  1.62269E-01
       2    -1     0     0   512     0  0.000000000E+00  0.000000000E+00  1.811028111E+03  1.811028111E+03  0.000000000E+00  0.00000E+00  9.000E+00
      21    -1     0     0   515   512  0.000000000E+00  0.000000000E+00 -2.105480023E-01  2.105480023E-01  0.000000000E+00  0.00000E+00  9.000E+00
      21     1     1     2   515   511  7.552742577E+00 -4.995940291E+00  1.592919654E+02  1.595491573E+02  4.672030912E-06  0.00000E+00  9.000E+00
      21     1     1     2   511   513 -6.559195773E+00  9.933737685E+00  4.624247587E+02  4.625779498E+02  5.394796609E-06  0.00000E+00  9.000E+00
       2     1     1     2   513     0 -9.935468036E-01 -4.937797395E+00  1.189100838E+03  1.189111552E+03  3.300000131E-01  0.00000E+00  9.000E+00
</event>
<event>
      5  10001  3.52971E+09  6.55879E+00 -1.00000E+00  2.19623E-01
      21    -1     0     0   514   511  0.000000000E+00  0.000000000E+00  1.781709565E+01  1.781709565E+01  0.000000000E+00  0.00000E+00  9.000E+00
       1    -1     0     0   516     0  0.000000000E+00  0.000000000E+00 -9.713301502E+01  9.713301502E+01  0.000000000E+00  0.00000E+00  9.000E+00
      21     1     1     2   516   515 -2.104170278E+00  1.189001152E+01 -3.012282307E+01  3.245280229E+01  4.768371582E-07  0.00000E+00  9.000E+00
      21     1     1     2   515   511 -4.441856481E+00 -1.148358660E+01  1.418298743E+01  1.878190573E+01  1.685873940E-07  0.00000E+00  9.000E+00
       1     1     1     2   514     0  6.546026759E+00 -4.064249211E-01 -6.337608372E+01  6.371540266E+01  3.300000131E-01  0.00000E+00  9.000E+00
</event>
<event>
      5  10001  3.52971E+09  1.42525E+01 -1.00000E+00  1.79497E-01
      21    -1     0     0   512   511  0.000000000E+00  0.000000000E+00  5.604563533E+01  5.604563533E+01  0.000000000E+00  0.00000E+00  9.000E+00
      21    -1     0     0   515   512  0.000000000E+00  0.000000000E+00 -1.639317867E+02  1.639317867E+02  0.000000000E+00  0.00000E+00  9.000E+00
      21     1     1     2   517   511  8.460572256E+00  1.776657097E+01  5.329370457E+01  5.681066162E+01  0.000000000E+00  0.00000E+00  9.000E+00
      21     1     1     2   513   517 -1.240145994E+00 -5.478421935E+00 -1.068826085E+02  1.070301035E+02  1.907348633E-06  0.00000E+00  9.000E+00
      21     1     1     2   515   513 -7.220426263E+00 -1.228814903E+01 -5.429724748E+01  5.613665688E+01  0.000000000E+00  0.00000E+00  9.000E+00
</event>
<event>
      5  10001  3.52971E+09  1.62566E+01 -1.00000E+00  1.74151E-01
       2    -1     0     0   513     0  0.000000000E+00  0.000000000E+00  9.980636259E+00  9.980636259E+00  0.000000000E+00  0.00000E+00  9.000E+00
      21    -1     0     0   514   512  0.000000000E+00  0.000000000E+00 -4.500851595E+01  4.500851595E+01  0.000000000E+00  0.00000E+00  9.000E+00
      21     1     1     2   513   512 -1.019558032E+01 -8.769074725E+00 -3.363994253E+01  3.622833509E+01  6.743495762E-07  0.00000E+00  9.000E+00
      21     1     1     2   514   511  8.261947657E+00 -9.038467511E-01 -2.843599755E+00  8.784234605E+00  2.563692709E-07  0.00000E+00  9.000E+00
       2     1     1     2   511     0  1.933632661E+00  9.672921476E+00  1.455662595E+00  9.976582519E+00  3.300000131E-01  0.00000E+00  9.000E+00
</event>
<event>
      5  10001  3.52971E+09  1.12458E+01 -1.00000E+00  1.90037E-01
       1    -1     0     0   512     0  0.000000000E+00  0.000000000E+00  1.669702080E+03  1.669702080E+03  0.000000000E+00  0.00000E+00  9.000E+00
       3    -1     0     0   511     0  0.000000000E+00  0.000000000E+00 -2.778363301E-01  2.778363301E-01  0.000000000E+00  0.00000E+00  9.000E+00
       1     1     1     2   511     0  1.036846771E+01  1.087560946E+01  1.174270820E+03  1.174367000E+03  3.300000131E-01  0.00000E+00  9.000E+00
       3     1     1     2   513     0 -3.338667095E+00 -6.508169657E+00  7.076131936E+01  7.114012431E+01  5.000000000E-01  0.00000E+00  9.000E+00
      21     1     1     2   512   513 -7.029800615E+00 -4.367439804E+00  4.243921051E+02  4.244727924E+02  7.629394531E-06  0.00000E+00  9.000E+00
</event>
<event>
      5  10001  3.52971E+09  3.84356E+01 -1.00000E+00  1.45920E-01
      21    -1     0     0   514   513  0.000000000E+00  0.000000000E+00  6.192008850E+01  6.192008850E+01  0.000000000E+00  0.00000E+00  9.000E+00
      -1    -1     0     0     0   515  0.000000000E+00  0.000000000E+00 -9.173192772E+02  9.173192772E+02  0.000000000E+00  0.00000E+00  9.000E+00
      21     1     1     2   514   515 -7.462777197E+00 -4.329726438E+01  4.976608805E+01  6.638531213E+01  1.784161275E-06  0.00000E+00  9.000E+00
      21     1     1     2   511   513 -2.740890109E+01  2.713373700E+01 -1.065689718E+02  1.133332842E+02  2.336015456E-06  0.00000E+00  9.000E+00
      -1     1     1     2     0   511  3.487167829E+01  1.616352738E+01 -7.985963050E+02  7.995207694E+02  3.300000131E-01  0.00000E+00  9.000E+00
</event>
<event>
      5  10001  3.52971E+09  3.41280E+01 -1.00000E+00  1.49247E-01
      21    -1     0     0   512   511  0.000000000E+00  0.000000000E+00  1.883974744E+00  1.883974744E+00  0.000000000E+00  0.00000E+00  9.000E+00
      21    -1     0     0   517   516  0.000000000E+00  0.000000000E+00 -1.666180136E+02  1.666180136E+02  0.000000000E+00  0.00000E+00  9.000E+00
      21     1     1     2   512   516  1.259614266E+00  2.157004980E-03 -6.092952663E+00  6.221792741E+00  1.884864366E-07  0.00000E+00  9.000E+00
      21     1     1     2   517   513 -2.787056557E-01  7.246574944E-01  1.734302293E+00  1.900160459E+00  2.528810911E-07  0.00000E+00  9.000E+00
      21     1     1     2   513   511 -9.809086105E-01 -7.268144994E-01 -1.603753884E+02  1.603800351E+02  3.814697266E-06  0.00000E+00  9.000E+00
</event>
<event>
      5  10001  3.52971E+09  9.20893E+00 -1.00000E+00  1.99983E-01
      21    -1     0     0   514   516  0.000000000E+00  0.000000000E+00  2.667805868E+01  2.667805868E+01  0.000000000E+00  0.00000E+00  9.000E+00
      21    -1     0     0   515   511  0.000000000E+00  0.000000000E+00 -4.050056769E+00  4.050056769E+00  0.000000000E+00  0.00000E+00  9.000E+00
      21     1     1     2   514   511 -4.598361681E+00  8.115983671E+00  1.262798988E+01  1.569968947E+01  2.920019320E-07  0.00000E+00  9.000E+00
      21     1     1     2   512   516 -1.414878191E-01 -3.019526817E+00  6.648888415E+00  7.303785194E+00  8.429369702E-08  0.00000E+00  9.000E+00
      21     1     1     2   515   512  4.739849500E+00 -5.096456854E+00  3.351123619E+00  7.724640785E+00  2.421152116E-07  0.00000E+00  9.000E+00
</event>
<event>
      5  10001  3.52971E+09  1.57536E+01 -1.00000E+00  1.75398E-01
      21    -1     0     0   513   511  0.000000000E+00  0.000000000E+00  2.984891847E+01  2.984891847E+01  0.000000000E+00  0.00000E+00  9.000E+00
      21    -1     0     0   515   517  0.000000000E+00  0.000000000E+00 -7.139764120E+01  7.139764120E+01  0.000000000E+00  0.00000E+00  9.000E+00
      21     1     1     2   513   517 -2.890497651E+00  1.179282091E+01 -6.078690558E+01  6.198768823E+01  1.168007728E-06  0.00000E+00  9.000E+00
      21     1     1     2   514   511  1.143048628E+01 -1.661975084E+01  2.119140467E+01  2.925658501E+01  0.000000000E+00  0.00000E+00  9.000E+00
      21     1     1     2   515   514 -8.539988630E+00  4.826929931E+00 -1.953221820E+00  1.000228643E+01  2.179851955E-07  0.00000E+00  9.000E+00
</event>
<event>
      5  10001  3.52971E+09  6.75004E+00 -1.00000E+00  2.17804E-01
      -3    -1     0     0     0   514  0.000000000E+00  0.000000000E+00  5.990062501E+00  5.990062501E+00  0.000000000E+00  0.00000E+00  9.000E+00
      21    -1     0     0   515   516  0.000000000E+00  0.000000000E+00 -9.539341930E+02  9.539341930E+02  0.000000000E+00  0.00000E+00  9.000E+00
      21     1     1     2   512   516 -4.861872393E+00  1.606902351E+01 -9.274582740E+02  9.276102098E+02  1.525878906E-05  0.00000E+00  9.000E+00
      21     1     1     2   515   514 -6.199657245E-01 -1.213061016E+01 -2.222336903E+01  2.532615627E+01  1.066240300E-06  0.00000E+00  9.000E+00
      -3     1     1     2     0   512  5.481838118E+00 -3.938413350E+00  1.737512531E+00  6.987889428E+00  5.000000000E-01  0.00000E+00  9.000E+00
</event>
<event>
      5  10001  3.52971E+09  3.36691E+00 -1.00000E+00  2.82437E-01
      -2    -1     0     0     0   511  0.000000000E+00  0.000000000E+00  3.946743164E+00  3.946743164E+00  0.000000000E+00  0.00000E+00  9.000E+00
       2    -1     0     0   511     0  0.000000000E+00  0.000000000E+00 -2.912814587E+02  2.912814587E+02  0.000000000E+00  0.00000E+00  9.000E+00
      -2     1     1     2     0   513  6.158272860E+00  9.591986209E+00 -5.180817625E+00  1.252518644E+01  3.300000131E-01  0.00000E+00  9.000E+00
       2     1     1     2   512     0 -3.902028717E+00 -1.047597666E+01 -2.731460702E+02  2.733749376E+02  3.300000131E-01  0.00000E+00  9.000E+00
      21     1     1     2   513   512 -2.256244143E+00  8.839904496E-01 -9.007827682E+00  9.328077845E+00  2.064765462E-07  0.00000E+00  9.000E+00
</event>
<event>
      5  10001  3.52971E+09  5.40845E+00 -1.00000E+00  2.32702E-01
      21    -1     0     0   516   512  0.000000000E+00  0.000000000E+00  4.896682184E+02  4.896682184E+02  0.000000000E+00  0.00000E+00  9.000E+00
      21    -1     0     0   511   514  0.000000000E+00  0.000000000E+00 -1.723549903E+01  1.723549903E+01  0.000000000E+00  0.00000E+00  9.000E+00
      21     1     1     2   511   515 -8.043057146E+00 -4.875978909E+00 -1.511739968E+01  1.780454188E+01  3.769728732E-07  0.00000E+00  9.000E+00
      21     1     1     2   515   512  6.393945876E+00  1.002688133E+01  4.588656475E+01  4.740250751E+01  0.000000000E+00  0.00000E+00  9.000E+00
      21     1     1     2   516   514  1.649111271E+00 -5.150902423E+00  4.416635543E+02  4.416966680E+02  0.000000000E+00  0.00000E+00  9.000E+00
</event>
<event>
      5  10001  3.52971E+09  1.12253E+01 -1.00000E+00  1.90123E-01
      21    -1     0     0   513   511  0.000000000E+00  0.000000000E+00  1.238927149E+02  1.238927149E+02  0.000000000E+00  0.00000E+00  9.000E+00
      21    -1     0     0   517   512  0.000000000E+00  0.000000000E+00 -8.811586635E+01  8.811586635E+01  0.000000000E+00  0.00000E+00  9.000E+00
      21     1     1     2   514   511 -8.155680623E-01 -1.154771088E+01  1.173963916E+02  1.179657897E+02  0.000000000E+00  0.00000E+00  9.000E+00
      21     1     1     2   517   514 -3.193909281E+00  2.203254579E+01 -7.957782081E+01  8.263330863E+01  2.697398305E-06  0.00000E+00  9.000E+00
      21     1     1     2   513   512  4.009477343E+00 -1.048483491E+01 -2.041722208E+00  1.140948295E+01  3.424026159E-07  0.00000E+00  9.000E+00
</event>
<event>
      5  10001  3.52971E+09  2.03783E+01 -1.00000E+00  1.65697E-01
       1    -1     0     0   515     0  0.000000000E+00  0.000000000E+00  4.567291340E+02  4.567291340E+02  0.000000000E+00  0.00000E+00  9.000E+00
      21    -1     0     0   513   512  0.000000000E+00  0.000000000E+00 -6.619306521E-01  6.619306521E-01  0.000000000E+00  0.00000E+00  9.000E+00
      21     1     1     2   515   512 -1.689192872E+00 -8.802393541E+00  4.973494029E+01  5.053612362E+01  1.507891493E-06  0.00000E+00  9.000E+00
       1     1     1     2   511     0  7.629068379E+00 -1.643507677E+00  2.178647943E+02  2.180047736E+02  3.300000131E-01  0.00000E+00  9.000E+00
      21     1     1     2   513   511 -5.939875507E+00  1.044590122E+01  1.884674688E+02  1.888501675E+02  2.697398305E-06  0.00000E+00  9.000E+00
</event>
<event>
      5  10001  3.52971E+09  6.60961E+00 -1.00000E+00  2.19132E-01
      21    -1     0     0   514   511  0.000000000E+00  0.000000000E+00  6.629119123E-01  6.629119123E-01  0.000000000E+00  0.00000E+00  9.000E+00
      21    -1     0     0   513   512  0.000000000E+00  0.000000000E+00 -5.164356835E+02  5.164356835E+02  0.000000000E+00  0.00000E+00  9.000E+00
      21     1     1     2   513   516  1.250950914E+01 -6.908749848E+00 -1.952569102E+02  1.957791604E+02  3.814697266E-06  0.00000E+00  9.000E+00
      21     1     1     2   516   511 -1.018365156E+01  7.218837432E-01 -7.247536296E+01  7.319088817E+01  1.907348633E-06  0.00000E+00  9.000E+00
      21     1     1     2   514   512 -2.325857589E+00  6.186866105E+00 -2.480404983E+02  2.481285468E+02  5.394796609E-06  0.00000E+00  9.000E+00
</event>
<event>
      5  10001  3.52971E+09  6.81309E+00 -1.00000E+00  2.17223E-01
       2    -1     0     0   515     0  0.000000000E+00  0.000000000E+00  9.687286085E+01  9.687286085E+01  0.000000000E+00  0.00000E+00  9.000E+00
      21    -1     0     0   517   515  0.000000000E+00  0.000000000E+00 -4.112184118E+01  4.112184118E+01  0.000000000E+00  0.00000E+00  9.000E+00
      21     1     1     2   512   511 -9.409378639E-01  1.027151261E+01  3.950107134E+01  4.082553089E+01  6.743495762E-07  0.00000E+00  9.000E+00
      21     1     1     2   517   512  7.490580887E+00 -8.395551044E+00 -3.946535439E+01  4.103788831E+01  4.768371582E-07  0.00000E+00  9.000E+00
       2     1     1     2   511     0 -6.549643023E+00 -1.875961571E+00  5.571530271E+01  5.613128283E+01  3.300000131E-01  0.00000E+00  9.000E+00
</event>
<event>
      5  10001  3.52971E+09  6.18841E+00 -1.00000E+00  2.23400E-01
      21    -1     0     0   513   516  0.000000000E+00  0.000000000E+00  4.716168359E+00  4.716168359E+00  0.000000000E+00  0.00000E+00  9.000E+00
      21    -1     0     0   511   514  0.000000000E+00  0.000000000E+00 -3.544636907E+01  3.544636907E+01  0.000000000E+00  0.00000E+00  9.000E+00
      21     1     1     2   513   514  8.239988256E+00  7.915396136E+00 -2.306960510E+01  2.574407858E+01  3.371747881E-07  0.00000E+00  9.000E+00
      21     1     1     2   512   516 -1.698305621E+00 -2.107313684E+00  1.225981542E-01  2.709251419E+00  4.819538084E-08  0.00000E+00  9.000E+00
      21     1     1     2   511   512 -6.541682635E+00 -5.808082452E+00 -7.783193767E+00  1.170920743E+01  2.064765462E-07  0.00000E+00  9.000E+00
</event>
<event>
      5  10001  3.52971E+09  4.81122E+00 -1.00000E+00  2.45895E-01
      21    -1     0     0   511   512  0.000000000E+00  0.000000000E+00  2.658258912E+01  2.658258912E+01  0.000000000E+00  0.00000E+00  9.000E+00
       3    -1     0     0   515     0  0.000000000E+00  0.000000000E+00 -3.036216030E+01  3.036216030E+01  0.000000000E+00  0.00000E+00  9.000E+00
      21     1     1     2   515   512  2.392539480E+01  1.196264951E+00  1.137635753E+01  2.651937172E+01  3.371747881E-07  0.00000E+00  9.000E+00
       3     1     1     2   513     0 -2.031157830E+01  1.673749948E+00 -1.576430104E+01  2.577061969E+01  5.000000000E-01  0.00000E+00  9.000E+00
      21     1     1     2   511   513 -3.613816496E+00 -2.870014899E+00  6.083723347E-01  4.654758005E+00  1.107608434E-07  0.00000E+00  9.000E+00
</event>
<event>
      5  10001  3.52971E+09  5.69317E+00 -1.00000E+00  2.29065E-01
      21    -1     0     0   514   512  0.000000000E+00  0.000000000E+00  5.537440624E+02  5.537440624E+02  0.000000000E+00  0.00000E+00  9.000E+00
      21    -1     0     0   516   514  0.000000000E+00  0.000000000E+00 -1.667786440E+00  1.667786440E+00  0.000000000E+00  0.00000E+00  9.000E+00
      21     1     1     2   516   515 -1.704766462E+00  1.072540575E+01  1.679782046E+01  2.000268305E+01  1.410503336E-06  0.00000E+00  9.000E+00
      21     1     1     2   515   517  2.011624260E+00 -6.042801486E+00  2.091375716E+02  2.092345238E+02  2.697398305E-06  0.00000E+00  9.000E+00
      21     1     1     2   517   512 -3.068577982E-01 -4.682604262E+00  3.261408839E+02  3.261746420E+02  3.814697266E-06  0.00000E+00  9.000E+00
</event>
<event>
      5  10001  3.52971E+09  1.29989E+01 -1.00000E+00  1.83446E-01
      21    -1     0     0   511   515  0.000000000E+00  0.000000000E+00  7.013301732E-01  7.013301732E-01  0.000000000E+00  0.00000E+00  9.000E+00
      21    -1     0     0   513   512  0.000000000E+00  0.000000000E+00 -4.477040561E+02  4.477040561E+02  0.000000000E+00  0.00000E+00  9.000E+00
      21     1     1     2   511   512 -1.406510872E+01  2.364780233E+00 -2.496408129E+02  2.500479053E+02  2.697398305E-06  0.00000E+00  9.000E+00
      21     1     1     2   513   514  8.573518555E+00 -6.255251228E+00 -1.628523823E+02  1.631978302E+02  0.000000000E+00  0.00000E+00  9.000E+00
      21     1     1     2   514   515  5.491590170E+00  3.890470995E+00 -3.450953074E+01  3.515965072E+01  0.000000000E+00  0.00000E+00  9.000E+00
</event>
<event>
      5  10001  3.52971E+09  1.28693E+01 -1.00000E+00  1.83886E-01
       2    -1     0     0   512     0  0.000000000E+00  0.000000000E+00  5.408424294E+02  5.408424294E+02  0.000000000E+00  0.00000E+00  9.000E+00
       1    -1     0     0   511     0  0.000000000E+00  0.000000000E+00 -4.004568213E+00  4.004568213E+00  0.000000000E+00  0.00000E+00  9.000E+00
       1     1     1     2   514     0  1.172992957E+01 -3.539695426E+00  7.551479483E+00  1.439633404E+01  3.300000131E-01  0.00000E+00  9.000E+00
       2     1     1     2   511     0 -9.089856817E+00  1.613487326E+01  4.201681772E+02  4.205762305E+02  3.300000131E-01  0.00000E+00  9.000E+00
      21     1     1     2   512   514 -2.640072750E+00 -1.259517783E+01  1.091182045E+02  1.098744331E+02  1.907348633E-06  0.00000E+00  9.000E+00
</event>
<event>
      5  10001  3.52971E+09  6.09031E+00 -1.00000E+00  2.24463E-01
      21    -1     0     0   513   511  0.000000000E+00  0.000000000E+00  4.488720375E+00  4.488720375E+00  0.000000000E+00  0.00000E+00  9.000E+00
      21    -1     0     0   515   514  0.000000000E+00  0.000000000E+00 -4.427476933E+01  4.427476933E+01  0.000000000E+00  0.00000E+00  9.000E+00
      21     1     1     2   513   514 -6.342719989E+00 -6.768261982E+00 -2.868649650E+01  3.014887309E+01  6.743495762E-07  0.00000E+00  9.000E+00
       5     1     1     2   515     0  6.432998913E+00  4.012881907E+00 -8.957465561E+00  1.267923055E+01  4.800000191E+00  0.00000E+00  9.000E+00
      -5     1     1     2     0   511 -9.027892401E-02  2.755380075E+00 -2.142086892E+00  5.935386063E+00  4.800000191E+00  0.00000E+00  9.000E+00
</event>
<event>
      5  10001  3.52971E+09  6.53532E+00 -1.00000E+00  2.19852E-01
      21    -1     0     0   514   511  0.000000000E+00  0.000000000E+00  2.008706076E+01  2.008706076E+01  0.000000000E+00  0.00000E+00  9.000E+00
      -1    -1     0     0     0   512  0.000000000E+00  0.000000000E+00 -6.513805335E+01  6.513805335E+01  0.000000000E+00  0.00000E+00  9.000E+00
      -1     1     1     2     0   513 -1.192316910E+01  1.098923499E+01 -5.898821892E+01  6.117715357E+01  3.300000131E-01  0.00000E+00  9.000E+00
      21     1     1     2   513   511  8.201476071E+00 -5.617305915E+00  1.575135722E+00  1.006475971E+01  4.400260168E-07  0.00000E+00  9.000E+00
      21     1     1     2   514   512  3.721693026E+00 -5.371929073E+00  1.236209061E+01  1.398320082E+01  2.920019320E-07  0.00000E+00  9.000E+00
</event>
<event>
      5  10001  3.52971E+09  6.12730E+00 -1.00000E+00  2.24059E-01
      21    -1     0     0   515   511  0.000000000E+00  0.000000000E+00  2.674072036E+01  2.674072036E+01  0.000000000E+00  0.00000E+00  9.000E+00
      21    -1     0     0   516   515  0.000000000E+00  0.000000000E+00 -1.358728267E+01  1.358728267E+01  0.000000000E+00  0.00000E+00  9.000E+00
      21     1     1     2   512   511 -1.362697262E+01 -1.139606267E+01  1.254613679E+01  2.174787749E+01  3.371747881E-07  0.00000E+00  9.000E+00
      21     1     1     2   513   512  4.814984260E+00  6.945684568E+00  1.785684542E+00  8.638013477E+00  3.311948593E-07  0.00000E+00  9.000E+00
      21     1     1     2   516   513  8.811988362E+00  4.450378098E+00 -1.178383640E+00  9.942112055E+00  3.281640343E-07  0.00000E+00  9.000E+00
</event>
<event>
      5  10001  3.52971E+09  8.32920E+00 -1.00000E+00  2.05402E-01
      21    -1     0     0   514   512  0.000000000E+00  0.000000000E+00  2.244842227E+00  2.244842227E+00  0.000000000E+00  0.00000E+00  9.000E+00
      21    -1     0     0   516   514  0.000000000E+00  0.000000000E+00 -2.063144630E+02  2.063144630E+02  0.000000000E+00  0.00000E+00  9.000E+00
      21     1     1     2   513   512 -1.271120033E+01  1.335097308E+00 -1.848749102E+01  2.247541819E+01  2.384185791E-07  0.00000E+00  9.000E+00
      21     1     1     2   516   511  4.393881924E+00 -1.374817357E+00 -3.994475607E+01  4.020920117E+01  8.259061849E-07  0.00000E+00  9.000E+00
      21     1     1     2   511   513  8.317318409E+00  3.972004893E-02 -1.456373736E+02  1.458746858E+02  1.907348633E-06  0.00000E+00  9.000E+00
</event>
<event>
      5  10001  3.52971E+09  2.44378E+01 -1.00000E+00  1.59491E-01
      21    -1     0     0   515   516  0.000000000E+00  0.000000000E+00  7.809881269E+00  7.809881269E+00  0.000000000E+00  0.00000E+00  9.000E+00
      21    -1     0     0   512   513  0.000000000E+00  0.000000000E+00 -4.243224293E+01  4.243224293E+01  0.000000000E+00  0.00000E+00  9.000E+00
      21     1     1     2   515   513 -6.798114718E+00  2.866503806E+00 -1.877295519E+01  2.017064834E+01  0.000000000E+00  0.00000E+00  9.000E+00
      21     1     1     2   512   514 -3.305351115E+00  3.522499697E+00  4.414870912E+00  6.544038147E+00  1.576990671E-07  0.00000E+00  9.000E+00
      21     1     1     2   514   516  1.010346583E+01 -6.389003502E+00 -2.026427738E+01  2.352743772E+01  2.384185791E-07  0.00000E+00  9.000E+00
</event>
<event>
      5  10001  3.52971E+09  4.22294E+00 -1.00000E+00  2.58033E-01
      21    -1     0     0   513   512  0.000000000E+00  0.000000000E+00  1.045528865E+01  1.045528865E+01  0.000000000E+00  0.00000E+00  9.000E+00
      21    -1     0     0   517   516  0.000000000E+00  0.000000000E+00 -3.538036018E+01  3.538036018E+01  0.000000000E+00  0.00000E+00  9.000E+00
      21     1     1     2   511   516  1.498076549E-01  8.395939723E+00 -2.758667707E+01  2.883641791E+01  5.840038640E-07  0.00000E+00  9.000E+00
      21     1     1     2   517   512 -1.082183438E+00 -1.251466560E+01  2.176222003E+00  1.274848690E+01  9.884312124E-08  0.00000E+00  9.000E+00
      21     1     1     2   513   511  9.323757828E-01  4.118725880E+00  4.853835352E-01  4.250744011E+00  1.045738820E-07  0.00000E+00  9.000E+00
</event>
<event>
      5  10001  3.52971E+09  3.13564E+01 -1.00000E+00  1.51715E-01
       2    -1     0     0   515     0  0.000000000E+00  0.000000000E+00  1.488279172E+02  1.488279172E+02  0.000000000E+00  0.00000E+00  9.000E+00
      21    -1     0     0   513   514  0.000000000E+00  0.000000000E+00 -2.896488453E+00  2.896488453E+00  0.000000000E+00  0.00000E+00  9.000E+00
      21     1     1     2   515   512 -2.317689702E+00  2.110212453E+00  2.076800461E+01  2.100320685E+01  0.000000000E+00  0.00000E+00  9.000E+00
       2     1     1     2   513     0  1.147936983E+01  2.995216550E+00  1.165408793E+02  1.171436413E+02  3.300000131E-01  0.00000E+00  9.000E+00
      21     1     1     2   512   514 -9.161680132E+00 -5.105429004E+00  8.622544861E+00  1.357755751E+01  4.298152060E-07  0.00000E+00  9.000E+00
</event>
<event>
      5  10001  3.52971E+09  1.18133E+01 -1.00000E+00  1.87743E-01
       1    -1     0     0   512     0  0.000000000E+00  0.000000000E+00  3.375561508E+02  3.375561508E+02  0.000000000E+00  0.00000E+00  9.000E+00
      21    -1     0     0   511   514  0.000000000E+00  0.000000000E+00 -4.035571228E+00  4.035571228E+00  0.000000000E+00  0.00000E+00  9.000E+00
      21     1     1     2   513   514 -1.285551599E+01  1.110231179E+01  1.939194675E+01  2.577931763E+01  2.384185791E-07  0.00000E+00  9.000E+00
       1     1     1     2   511     0  6.130409922E+00 -8.763064129E+00  2.978804111E+02  2.980725104E+02  3.300000131E-01  0.00000E+00  9.000E+00
      21     1     1     2   512   513  6.725106070E+00 -2.339247664E+00  1.624822177E+01  1.773989408E+01  3.371747881E-07  0.00000E+00  9.000E+00
</event>
<event>
      5  10001  3.52971E+09  1.10184E+01 -1.00000E+00  1.91007E-01
      21    -1     0     0   515   511  0.000000000E+00  0.000000000E+00  4.208898022E+02  4.208898022E+02  0.000000000E+00  0.00000E+00  9.000E+00
       2    -1     0     0   512     0  0.000000000E+00  0.000000000E+00 -1.614069482E+00  1.614069482E+00  0.000000000E+00  0.00000E+00  9.000E+00
      21     1     1     2   512   511 -3.894481948E+00 -1.177242119E+01  3.486941691E+02  3.489145747E+02  7.629394531E-06  0.00000E+00  9.000E+00
       2     1     1     2   514     0  3.418815525E+00  3.091243854E+00  3.133454963E+00  5.583146798E+00  3.300000131E-01  0.00000E+00  9.000E+00
      21     1     1     2   515   514  4.756664225E-01  8.681177336E+00  6.744810867E+01  6.800615018E+01  1.348699152E-06  0.00000E+00  9.000E+00
</event>
<event>
      5  10001  3.52971E+09  5.08111E+00 -1.00000E+00  2.37295E-01
       1    -1     0     0   515     0  0.000000000E+00  0.000000000E+00  6.053804794E+00  6.053804794E+00  0.000000000E+00  0.00000E+00  9.000E+00
      21    -1     0     0   513   514  0.000000000E+00  0.000000000E+00 -1.650730248E+02  1.650730248E+02  0.000000000E+00  0.00000E+00  9.000E+00
      21     1     1     2   515   514 -4.069237264E+00  1.348501580E+01 -1.555742027E+02  1.562105531E+02  1.907348633E-06  0.00000E+00  9.000E+00
      21     1     1     2   513   511  2.730414804E+00 -3.549338179E+00 -9.010254883E-01  4.567801817E+00  1.079691704E-07  0.00000E+00  9.000E+00
       1     1     1     2   511     0  1.338822460E+00 -9.935677621E+00 -2.543991873E+00  1.034847477E+01  3.300000131E-01  0.00000E+00  9.000E+00
</event>
<event>
      5  10001  3.52971E+09  9.09083E+00 -1.00000E+00  2.00663E-01
      21    -1     0     0   511   514  0.000000000E+00  0.000000000E+00  9.414046800E+00  9.414046800E+00  0.000000000E+00  0.00000E+00  9.000E+00
      -1    -1     0     0     0   512  0.000000000E+00  0.000000000E+00 -4.194357353E+02  4.194357353E+02  0.000000000E+00  0.00000E+00  9.000E+00
      -1     1     1     2     0   513  8.277341342E+00 -8.304399140E+00 -2.560468184E+02  2.563153517E+02  3.300000131E-01  0.00000E+00  9.000E+00
      21     1     1     2   511   512 -1.138587664E+01 -2.383344114E-01 -1.607774582E+02  1.611802905E+02  1.907348633E-06  0.00000E+00  9.000E+00
      21     1     1     2   513   514  3.108535301E+00  8.542733552E+00  6.802588050E+00  1.135413988E+01  5.397430145E-07  0.00000E+00  9.000E+00
</event>
<event>
      5  10001  3.52971E+09  1.79614E+01 -1.00000E+00  1.70312E-01
      21    -1     0     0   515   516  0.000000000E+00  0.000000000E+00  2.956506568E+01  2.956506568E+01  0.000000000E+00  0.00000E+00  9.000E+00
      21    -1     0     0   513   514  0.000000000E+00  0.000000000E+00 -2.526961301E+01  2.526961301E+01  0.000000000E+00  0.00000E+00  9.000E+00
      21     1     1     2   515   514  6.885822962E+00  1.522123760E+01 -1.819495955E+01  2.470135998E+01  3.371747881E-07  0.00000E+00  9.000E+00
      21     1     1     2   513   511 -7.465024307E-01 -7.539640711E+00  2.715641078E+00  8.048487709E+00  1.115100797E-07  0.00000E+00  9.000E+00
      21     1     1     2   511   516 -6.139320531E+00 -7.681596887E+00  1.977477114E+01  2.208483101E+01  2.384185791E-07  0.00000E+00  9.000E+00
</event>
<event>
      5  10001  3.52971E+09  6.24708E+01 -1.00000E+00  1.33771E-01
      -1    -1     0     0     0   512  0.000000000E+00  0.000000000E+00  2.064936397E+02  2.064936397E+02  0.000000000E+00  0.00000E+00  9.000E+00
      21    -1     0     0   512   515  0.000000000E+00  0.000000000E+00 -1.148404294E+01  1.148404294E+01  0.000000000E+00  0.00000E+00  9.000E+00
      -1     1     1     2     0   511 -1.079459088E+01 -3.033644296E-01  8.006798861E+01  8.079360694E+01  3.300000131E-01  0.00000E+00  9.000E+00
      21     1     1     2   513   515 -5.771477990E+00 -4.044981792E+00 -9.355158129E+00  1.171284848E+01  1.086048314E-06  0.00000E+00  9.000E+00
      21     1     1     2   511   513  1.656606887E+01  4.348346222E+00  1.242967662E+02  1.254712272E+02  1.907348633E-06  0.00000E+00  9.000E+00
</event>
<event>
      5  10001  3.52971E+09  7.14326E+00 -1.00000E+00  2.14312E-01
      21    -1     0     0   514   512  0.000000000E+00  0.000000000E+00  3.570617128E+01  3.570617128E+01  0.000000000E+00  0.00000E+00  9.000E+00
      21    -1     0     0   511   516  0.000000000E+00  0.000000000E+00 -1.407619262E+01  1.407619262E+01  0.000000000E+00  0.00000E+00  9.000E+00
      21     1     1     2   514   516  1.170003471E+01  1.170604014E+01 -5.254159521E+00  1.736457256E+01  2.230201594E-07  0.00000E+00  9.000E+00
      21     1     1     2   515   512 -4.312524869E+00 -4.397736379E+00  1.697892694E+01  1.806161444E+01  2.384185791E-07  0.00000E+00  9.000E+00
      21     1     1     2   511   515 -7.387509838E+00 -7.308303760E+00  9.905211243E+00  1.435617690E+01  1.192092896E-07  0.00000E+00  9.000E+00
</event>
<event>
      5  10001  3.52971E+09  8.93437E+00 -1.00000E+00  2.01585E-01
      21    -1     0     0   513   515  0.000000000E+00  0.000000000E+00  2.301929910E+02  2.301929910E+02  0.000000000E+00  0.00000E+00  9.000E+00
      21    -1     0     0   511   513  0.000000000E+00  0.000000000E+00 -1.700125752E+00  1.700125752E+00  0.000000000E+00  0.00000E+00  9.000E+00
      21     1     1     2   511   517  9.911192688E+00  7.093998177E+00  2.712862970E+01  2.974086582E+01  0.000000000E+00  0.00000E+00  9.000E+00
      21     1     1     2   517   512 -6.176171761E+00 -1.196680511E+00  1.652413271E+02  1.653610394E+02  0.000000000E+00  0.00000E+00  9.000E+00
      21     1     1     2   512   515 -3.735020927E+00 -5.897317666E+00  3.612290844E+01  3.679121160E+01  0.000000000E+00  0.00000E+00  9.000E+00
</event>
<event>
      5  10001  3.52971E+09  2.47264E+01 -1.00000E+00  1.59107E-01
      21    -1     0     0   514   516  0.000000000E+00  0.000000000E+00  1.390293637E+02  1.390293637E+02  0.000000000E+00  0.00000E+00  9.000E+00
      21    -1     0     0   511   515  0.000000000E+00  0.000000000E+00 -1.820057946E+00  1.820057946E+00  0.000000000E+00  0.00000E+00  9.000E+00
      21     1     1     2   514   515  1.070615465E+00 -5.220697500E+00  9.178143304E+00  1.061320943E+01  2.665600750E-07  0.00000E+00  9.000E+00
      21     1     1     2   511   513  3.234792011E+00 -6.381908849E+00  8.906666534E+01  8.935358702E+01  9.536743164E-07  0.00000E+00  9.000E+00
      21     1     1     2   513   516 -4.305407476E+00  1.160260635E+01  3.896449715E+01  4.088262523E+01  6.743495762E-07  0.00000E+00  9.000E+00
</event>
<event>
      5  10001  3.52971E+09  6.68097E+00 -1.00000E+00  2.18451E-01
       1    -1     0     0   512     0  0.000000000E+00  0.000000000E+00  2.732035060E+02  2.732035060E+02  0.000000000E+00  0.00000E+00  9.000E+00
      21    -1     0     0   516   512  0.000000000E+00  0.000000000E+00 -1.280490861E+01  1.280490861E+01  0.000000000E+00  0.00000E+00  9.000E+00
      21     1     1     2   511   513 -1.427007604E+01  1.308028088E+00  6.854913214E+00  1.588508240E+01  3.264680848E-07  0.00000E+00  9.000E+00
      21     1     1     2   516   511  1.575981751E+01 -7.820733814E+00  1.139458706E+00  1.763048756E+01  1.032382731E-07  0.00000E+00  9.000E+00
       1     1     1     2   513     0 -1.489741475E+00  6.512705725E+00  2.524042255E+02  2.524928447E+02  3.300000131E-01  0.00000E+00  9.000E+00
</event>
<event>
      5  10001  3.52971E+09  8.30095E+00 -1.00000E+00  2.05590E-01
      21    -1     0     0   514   516  0.000000000E+00  0.000000000E+00  1.124372675E+01  1.124372675E+01  0.000000000E+00  0.00000E+00  9.000E+00
      21    -1     0     0   513   515  0.000000000E+00  0.000000000E+00 -2.574304588E+01  2.574304588E+01  0.000000000E+00  0.00000E+00  9.000E+00
      21     1     1     2   514   515 -7.656448662E+00 -1.402672871E+01 -2.046247063E+00  1.611078681E+01  3.953724850E-07  0.00000E+00  9.000E+00
      21     1     1     2   511   516  1.223792411E+00  3.157809108E+00 -5.499072461E+00  6.458267891E+00  1.332800375E-07  0.00000E+00  9.000E+00
      21     1     1     2   513   511  6.432656251E+00  1.086891961E+01 -6.953999604E+00  1.441771793E+01  1.884864366E-07  0.00000E+00  9.000E+00
</event>
<event>
      5  10001  3.52971E+09  3.36316E+00 -1.00000E+00  2.82569E-01
      21    -1     0     0   512   511  0.000000000E+00  0.000000000E+00  1.314939811E+00  1.314939811E+00  0.000000000E+00  0.00000E+00  9.000E+00
      21    -1     0     0   513   514  0.000000000E+00  0.000000000E+00 -3.966313234E+02  3.966313234E+02  0.000000000E+00  0.00000E+00  9.000E+00
      21     1     1     2   513   517 -1.057445587E+01 -1.316976860E+01 -2.469443216E+02  2.475212312E+02  2.697398305E-06  0.00000E+00  9.000E+00
      21     1     1     2   517   511  1.164659309E+01  9.982080943E+00 -5.811173280E+01  6.010206785E+01  1.907348633E-06  0.00000E+00  9.000E+00
      21     1     1     2   512   514 -1.072137220E+00  3.187687656E+00 -9.026032922E+01  9.032296420E+01  9.536743164E-07  0.00000E+00  9.000E+00
</event>
<event>
      5  10001  3.52971E+09  1.41008E+01 -1.00000E+00  1.79947E-01
      21    -1     0     0   515   511  0.000000000E+00  0.000000000E+00  3.908186149E+01  3.908186149E+01  0.000000000E+00  0.00000E+00  9.000E+00
      21    -1     0     0   511   512  0.000000000E+00  0.000000000E+00 -2.728661460E+00  2.728661460E+00  0.000000000E+00  0.00000E+00  9.000E+00
      21     1     1     2   513   512  5.999800480E+00  1.804212185E+00  2.736700194E+00  6.836835186E+00  1.460009660E-07  0.00000E+00  9.000E+00
       3     1     1     2   515     0 -2.140749178E+00 -3.706373648E+00  8.993256641E+00  9.972395784E+00  5.000000000E-01  0.00000E+00  9.000E+00
      -3     1     1     2     0   513 -3.859051302E+00  1.902161463E+00  2.462324319E+01  2.500129198E+01  5.000000000E-01  0.00000E+00  9.000E+00
</event>
<event>
      5  10001  3.52971E+09  2.69976E+01 -1.00000E+00  1.56287E-01
      21    -1     0     0   514   512  0.000000000E+00  0.000000000E+00  6.040747997E+01  6.040747997E+01  0.000000000E+00  0.00000E+00  9.000E+00
      21    -1     0     0   511   514  0.000000000E+00  0.000000000E+00 -1.627622620E+01  1.627622620E+01  0.000000000E+00  0.00000E+00  9.000E+00
      21     1     1     2   511   513 -1.610456350E+01 -3.345616374E+00 -5.571089347E+00  1.736626474E+01  3.097148194E-07  0.00000E+00  9.000E+00
      21     1     1     2   515   512  1.542022271E+01 -9.789842974E+00  2.158808602E+01  2.827843263E+01  2.384185791E-07  0.00000E+00  9.000E+00
      21     1     1     2   513   515  6.843407903E-01  1.313545935E+01  2.811425709E+01  3.103900879E+01  0.000000000E+00  0.00000E+00  9.000E+00
</event>
<event>
      5  10001  3.52971E+09  6.58440E+00 -1.00000E+00  2.19375E-01
      21    -1     0     0   516   512  0.000000000E+00  0.000000000E+00  7.849935709E+00  7.849935709E+00  0.000000000E+00  0.00000E+00  9.000E+00
      21    -1     0     0   517   516  0.000000000E+00  0.000000000E+00 -3.394063715E+02  3.394063715E+02  0.000000000E+00  0.00000E+00  9.000E+00
      21     1     1     2   515   511  1.194288685E+01  6.232357503E+00 -8.142480094E+00  1.574086428E+01  5.331201500E-07  0.00000E+00  9.000E+00
      21     1     1     2   517   515 -5.836854290E+00 -3.768476383E+00 -3.247270669E+02  3.248013827E+02  3.814697266E-06  0.00000E+00  9.000E+00
      21     1     1     2   511   512 -6.106032557E+00 -2.463881120E+00  1.313111127E+00  6.714060217E+00  1.988062868E-07  0.00000E+00  9.000E+00
</event>
<event>
      5  10001  3.52971E+09  6.02920E+00 -1.00000E+00  2.25139E-01
      21    -1     0     0   513   514  0.000000000E+00  0.000000000E+00  7.466350977E+01  7.466350977E+01  0.000000000E+00  0.00000E+00  9.000E+00
      21    -1     0     0   511   512  0.000000000E+00  0.000000000E+00 -1.118382442E+01  1.118382442E+01  0.000000000E+00  0.00000E+00  9.000E+00
      21     1     1     2   513   512  1.251240258E+00 -1.333767707E+01  6.870359552E+01  6.999745188E+01  0.000000000E+00  0.00000E+00  9.000E+00
      21     1     1     2   511   515  1.505333665E+00  9.614009586E+00 -1.377187455E+00  9.828115539E+00  7.450580597E-08  0.00000E+00  9.000E+00
      21     1     1     2   515   514 -2.756573923E+00  3.723667489E+00 -3.846722717E+00  6.021766769E+00  2.230201594E-07  0.00000E+00  9.000E+00
</event>
<event>
      5  10001  3.52971E+09  2.45648E+00 -1.00000E+00  3.25951E-01
      21    -1     0     0   515   511  0.000000000E+00  0.000000000E+00  2.458956534E+00  2.458956534E+00  0.000000000E+00  0.00000E+00  9.000E+00
       4    -1     0     0   514     0  0.000000000E+00  0.000000000E+00 -5.877521077E+01  5.877521077E+01  0.000000000E+00  0.00000E+00  9.000E+00
      21     1     1     2   514   511  2.709760533E+00  9.634666998E+00 -4.250593990E+01  4.366834709E+01  6.743495762E-07  0.00000E+00  9.000E+00
      21     1     1     2   515   512 -1.104396306E+00 -7.330638996E+00 -1.128507107E+01  1.350225123E+01  1.685873940E-07  0.00000E+00  9.000E+00
       4     1     1     2   512     0 -1.605364227E+00 -2.304028002E+00 -2.525243258E+00  4.063568980E+00  1.500000000E+00  0.00000E+00  9.000E+00
</event>
<event>
      5  10001  3.52971E+09  5.03244E+00 -1.00000E+00  2.38020E-01
      21    -1     0     0   513   511  0.000000000E+00  0.000000000E+00  7.912294429E+00  7.912294429E+00  0.000000000E+00  0.00000E+00  9.000E+00
      21    -1     0     0   516   515  0.000000000E+00  0.000000000E+00 -3.627981356E+01  3.627981356E+01  0.000000000E+00  0.00000E+00  9.000E+00
      21     1     1     2   516   514 -7.875449096E+00  8.998312250E+00 -2.136855845E+01  2.448688653E+01  3.371747881E-07  0.00000E+00  9.000E+00
      21     1     1     2   514   511  3.191185670E+00 -1.083763829E+01 -2.678717179E-01  1.130087718E+01  3.710920215E-07  0.00000E+00  9.000E+00
      21     1     1     2   513   515  4.684263426E+00  1.839326043E+00 -6.731088967E+00  8.404344283E+00  1.460009660E-07  0.00000E+00  9.000E+00
</event>
<event>
      5  10001  3.52971E+09  4.12039E+00 -1.00000E+00  2.60464E-01
      -2    -1     0     0     0   514  0.000000000E+00  0.000000000E+00  1.033114269E+01  1.033114269E+01  0.000000000E+00  0.00000E+00  9.000E+00
      21    -1     0     0   512   513  0.000000000E+00  0.000000000E+00 -5.041366048E+01  5.041366048E+01  0.000000000E+00  0.00000E+00  9.000E+00
      -2     1     1     2     0   511  1.036393913E+01  5.091118319E+00  2.416537335E+00  1.180166398E+01  3.300000131E-01  0.00000E+00  9.000E+00
      21     1     1     2   511   513 -9.927878954E+00 -9.941407675E-01 -4.356043504E+01  4.468850632E+01  4.768371582E-07  0.00000E+00  9.000E+00
      21     1     1     2   512   514 -4.360601740E-01 -4.096977551E+00  1.061379913E+00  4.254632869E+00  3.332000937E-08  0.00000E+00  9.000E+00
</event>
<event>
      5  10001  3.52971E+09  1.35550E+01 -1.00000E+00  1.81627E-01
      21    -1     0     0   515   513  0.000000000E+00  0.000000000E+00  1.886327471E+01  1.886327471E+01  0.000000000E+00  0.00000E+00  9.000E+00
      21    -1     0     0   512   515  0.000000000E+00  0.000000000E+00 -3.521869295E+01  3.521869295E+01  0.000000000E+00  0.00000E+00  9.000E+00
      21     1     1     2   514   513  9.737952924E+00 -1.272122876E+00  1.337119698E+01  1.659020592E+01  0.000000000E+00  0.00000E+00  9.000E+00
      21     1     1     2   512   511 -9.615950770E+00 -7.443228934E+00 -2.443894223E+01  2.729707061E+01  4.768371582E-07  0.00000E+00  9.000E+00
      21     1     1     2   511   514 -1.220021544E-01  8.715351810E+00 -5.287672987E+00  1.019469113E+01  2.457562462E-07  0.00000E+00  9.000E+00
</event>
<event>
      5  10001  3.52971E+09  6.02796E+00 -1.00000E+00  2.25152E-01
      21    -1     0     0   513   511  0.000000000E+00  0.000000000E+00  6.824729598E+01  6.824729598E+01  0.000000000E+00  0.00000E+00  9.000E+00
      21    -1     0     0   517   516  0.000000000E+00  0.000000000E+00 -5.527948222E+01  5.527948222E+01  0.000000000E+00  0.00000E+00  9.000E+00
      21     1     1     2   512   511  4.778616072E+00 -1.272803560E+01  1.545177964E+01  2.058143717E+01  6.078504936E-07  0.00000E+00  9.000E+00
      21     1     1     2   517   512 -7.995226284E+00  7.630024639E+00 -5.195041651E+01  5.311296164E+01  0.000000000E+00  0.00000E+00  9.000E+00
      21     1     1     2   513   516  3.216610212E+00  5.098010965E+00  4.946645064E+01  4.983237939E+01  6.743495762E-07  0.00000E+00  9.000E+00
</event>
<event>
      5  10001  3.52971E+09  9.52300E+00 -1.00000E+00  1.98239E-01
      21    -1     0     0   514   516  0.000000000E+00  0.000000000E+00  2.696625958E+01  2.696625958E+01  0.000000000E+00  0.00000E+00  9.000E+00
      21    -1     0     0   511   515  0.000000000E+00  0.000000000E+00 -2.273145751E+01  2.273145751E+01  0.000000000E+00  0.00000E+00  9.000E+00
      21     1     1     2   514   515  1.734979365E+00  1.200599920E+01  1.999956593E+01  2.339095568E+01  2.384185791E-07  0.00000E+00  9.000E+00
      21     1     1     2   512   516 -4.093435923E-01 -1.641783004E+01 -1.171534497E+01  2.017329951E+01  4.768371582E-07  0.00000E+00  9.000E+00
      21     1     1     2   511   512 -1.325635772E+00  4.411830843E+00 -4.049418888E+00  6.133461903E+00  1.460009660E-07  0.00000E+00  9.000E+00
</event>
<event>
      5  10001  3.52971E+09  1.57254E+01 -1.00000E+00  1.75469E-01
       2    -1     0     0   511     0  0.000000000E+00  0.000000000E+00  2.631880771E+02  2.631880771E+02  0.000000000E+00  0.00000E+00  9.000E+00
      21    -1     0     0   513   512  0.000000000E+00  0.000000000E+00 -6.714930479E+00  6.714930479E+00  0.000000000E+00  0.00000E+00  9.000E+00
      21     1     1     2   511   512  7.187138687E+00  6.812309548E+00 -2.224045774E+00  1.014933020E+01  2.528810911E-07  0.00000E+00  9.000E+00
      21     1     1     2   513   514  4.013488461E+00 -9.061295019E+00  1.749183509E+02  1.751988717E+02  1.907348633E-06  0.00000E+00  9.000E+00
       2     1     1     2   514     0 -1.120062715E+01  2.248985471E+00  8.377884148E+01  8.455480568E+01  3.300000131E-01  0.00000E+00  9.000E+00
</event>
<event>
      5  10001  3.52971E+09  1.23813E+01 -1.00000E+00  1.85607E-01
      21    -1     0     0   514   513  0.000000000E+00  0.000000000E+00  1.917374283E+01  1.917374283E+01  0.000000000E+00  0.00000E+00  9.000E+00
      -2    -1     0     0     0   515  0.000000000E+00  0.000000000E+00 -2.166565794E+02  2.166565794E+02  0.000000000E+00  0.00000E+00  9.000E+00
      -2     1     1     2     0   513  1.978946954E+01  1.028591591E+01 -2.061122679E+02  2.073156990E+02  3.300000131E-01  0.00000E+00  9.000E+00
      21     1     1     2   514   511 -1.644651115E+01 -1.215171747E+01  1.601228819E+00  2.051136027E+01  5.953009234E-07  0.00000E+00  9.000E+00
      21     1     1     2   511   515 -3.342958398E+00  1.865801559E+00  7.028202550E+00  8.003262921E+00  3.039252468E-07  0.00000E+00  9.000E+00
</event>
<event>
      5  10001  3.52971E+09  5.63413E+00 -1.00000E+00  2.29794E-01
      21    -1     0     0   512   513  0.000000000E+00  0.000000000E+00  7.263701683E+02  7.263701683E+02  0.000000000E+00  0.00000E+00  9.000E+00
      21    -1     0     0   516   512  0.000000000E+00  0.000000000E+00 -7.699170203E-01  7.699170203E-01  0.000000000E+00  0.00000E+00  9.000E+00
      21     1     1     2   516   515  1.068190198E+01 -3.817988253E-01  3.956857249E+01  4.098683605E+01  2.078484985E-06  0.00000E+00  9.000E+00
      21     1     1     2   514   513 -9.399656239E+00 -1.679325602E+00  4.111882384E+02  4.112990895E+02  0.000000000E+00  0.00000E+00  9.000E+00
      21     1     1     2   515   514 -1.282245741E+00  2.061124427E+00  2.748434405E+02  2.748541598E+02  3.814697266E-06  0.00000E+00  9.000E+00
</event>
<event>
      5  10001  3.52971E+09  1.56313E+01 -1.00000E+00  1.75710E-01
      21    -1     0     0   511   514  0.000000000E+00  0.000000000E+00  1.684857095E+02  1.684857095E+02  0.000000000E+00  0.00000E+00  9.000E+00
      21    -1     0     0   512   517  0.000000000E+00  0.000000000E+00 -1.861971581E+01  1.861971581E+01  0.000000000E+00  0.00000E+00  9.000E+00
      21     1     1     2   511   517  1.959217349E+01  4.926016812E+00  1.475819127E+02  1.489581816E+02  2.697398305E-06  0.00000E+00  9.000E+00
      21     1     1     2   515   514 -5.158352786E+00 -1.092626448E+01 -1.195883759E+01  1.700016634E+01  8.259061849E-07  0.00000E+00  9.000E+00
      21     1     1     2   512   515 -1.443382071E+01  6.000247671E+00  1.424291859E+01  2.114707739E+01  1.685873940E-07  0.00000E+00  9.000E+00
</event>
<event>
      5  10001  3.52971E+09  5.23841E+00 -1.00000E+00  2.35028E-01
      21    -1     0     0   512   513  0.000000000E+00  0.000000000E+00  2.941929579E+00  2.941929579E+00  0.000000000E+00  0.00000E+00  9.000E+00
       2    -1     0     0   514     0  0.000000000E+00  0.000000000E+00 -1.201642145E+03  1.201642145E+03  0.000000000E+00  0.00000E+00  9.000E+00
      21     1     1     2   514   511  2.575931674E+00  5.300440634E+00 -3.487608318E+00  6.847883373E+00  1.576990671E-07  0.00000E+00  9.000E+00
       2     1     1     2   512     0 -6.969174164E-01 -1.275778747E+01 -1.184392715E+03  1.184461675E+03  3.300000131E-01  0.00000E+00  9.000E+00
      21     1     1     2   511   513 -1.879014258E+00  7.457346833E+00 -1.081989124E+01  1.327451554E+01  9.973764736E-07  0.00000E+00  9.000E+00
</event>
<event>
      5  10001  3.52971E+09  6.30251E+00 -1.00000E+00  2.22198E-01
      21    -1     0     0   511   512  0.000000000E+00  0.000000000E+00  1.245365103E+01  1.245365103E+01  0.000000000E+00  0.00000E+00  9.000E+00
       1    -1     0     0   513     0  0.000000000E+00  0.000000000E+00 -3.862347835E+02  3.862347835E+02  0.000000000E+00  0.00000E+00  9.000E+00
       1     1     1     2   511     0 -8.377903776E-01 -1.432804481E+01 -2.117868433E+02  2.122728684E+02  3.300000131E-01  0.00000E+00  9.000E+00
       3     1     1     2   513     0  1.439685783E+00  8.054666699E+00 -1.732831910E+02  1.734769859E+02  5.000000000E-01  0.00000E+00  9.000E+00
      -3     1     1     2     0   512 -6.018954058E-01  6.273378109E+00  1.128890190E+01  1.293858018E+01  5.000000000E-01  0.00000E+00  9.000E+00
</event>
<event>
      5  10001  3.52971E+09  4.77567E+00 -1.00000E+00  2.46552E-01
      21    -1     0     0   514   513  0.000000000E+00  0.000000000E+00  3.062458988E+02  3.062458988E+02  0.000000000E+00  0.00000E+00  9.000E+00
      21    -1     0     0   515   511  0.000000000E+00  0.000000000E+00 -5.501066438E+00  5.501066438E+00  0.000000000E+00  0.00000E+00  9.000E+00
      21     1     1     2   514   512 -2.741370177E+00  1.130690240E+01  1.939990785E+02  1.943476360E+02  3.814697266E-06  0.00000E+00  9.000E+00
      21     1     1     2   515   513 -1.608991141E+00 -9.336788063E+00  1.107576606E+02  1.111621512E+02  1.907348633E-06  0.00000E+00  9.000E+00
      21     1     1     2   512   511  4.350361317E+00 -1.970114339E+00 -4.011906793E+00  6.237178065E+00  4.214684851E-07  0.00000E+00  9.000E+00
</event>
<event>
      5  10001  3.52971E+09  1.02704E+01 -1.00000E+00  1.94423E-01
       1    -1     0     0   512     0  0.000000000E+00  0.000000000E+00  1.101950225E+02  1.101950225E+02  0.000000000E+00  0.00000E+00  9.000E+00
      21    -1     0     0   516   511  0.000000000E+00  0.000000000E+00 -2.752923907E+01  2.752923907E+01  0.000000000E+00  0.00000E+00  9.000E+00
      21     1     1     2   512   511  9.264879777E+00  6.669808814E-01  1.006038801E+02  1.010317947E+02  1.907348633E-06  0.00000E+00  9.000E+00
      21     1     1     2   516   513 -4.431815324E+00  9.445186911E-01 -2.641285846E+01  2.679873495E+01  8.920806376E-07  0.00000E+00  9.000E+00
       1     1     1     2   513     0 -4.833064453E+00 -1.611499572E+00  8.474761833E+00  9.893731906E+00  3.300000131E-01  0.00000E+00  9.000E+00
</event>
<event>
      5  10001  3.52971E+09  5.36636E+00 -1.00000E+00  2.33266E-01
      21    -1     0     0   511   514  0.000000000E+00  0.000000000E+00  6.526322700E+02  6.526322700E+02  0.000000000E+00  0.00000E+00  9.000E+00
       2    -1     0     0   515     0  0.000000000E+00  0.000000000E+00 -1.706386436E+01  1.706386436E+01  0.000000000E+00  0.00000E+00  9.000E+00
      21     1     1     2   515   514 -1.845614108E+01  5.816747287E+00  1.821741461E+02  1.831990262E+02  3.814697266E-06  0.00000E+00  9.000E+00
       2     1     1     2   513     0  1.492575195E+01 -9.858279292E+00 -1.169690164E+01  2.137498888E+01  3.300000131E-01  0.00000E+00  9.000E+00
      21     1     1     2   511   513  3.530389130E+00  4.041532005E+00  4.650911612E+02  4.651221193E+02  5.394796609E-06  0.00000E+00  9.000E+00
</event>
<event>
      5  10001  3.52971E+09  3.23194E+00 -1.00000E+00  2.87377E-01
       4    -1     0     0   513     0  0.000000000E+00  0.000000000E+00  3.813617448E+01  3.813617448E+01  0.000000000E+00  0.00000E+00  9.000E+00
      21    -1     0     0   511   512  0.000000000E+00  0.000000000E+00 -9.998251148E+00  9.998251148E+00  0.000000000E+00  0.00000E+00  9.000E+00
      21     1     1     2   513   514 -6.475968893E+00 -3.177483178E+00 -2.013814243E+00  7.489327089E+00  1.332800375E-07  0.00000E+00  9.000E+00
       4     1     1     2   511     0  9.387190376E+00  4.807466941E+00  3.395437004E+01  3.558623788E+01  1.500000000E+00  0.00000E+00  9.000E+00
      21     1     1     2   514   512 -2.911221483E+00 -1.629983763E+00 -3.802632461E+00  5.058860664E+00  1.264405455E-07  0.00000E+00  9.000E+00
</event>
<event>
      5  10001  3.52971E+09  4.85266E+00 -1.00000E+00  2.45138E-01
      -2    -1     0     0     0   515  0.000000000E+00  0.000000000E+00  3.083118521E+01  3.083118521E+01  0.000000000E+00  0.00000E+00  9.000E+00
      21    -1     0     0   511   512  0.000000000E+00  0.000000000E+00 -2.630396143E+01  2.630396143E+01  0.000000000E+00  0.00000E+00  9.000E+00
      -2     1     1     2     0   513  5.278209153E+00  1.172423955E+01  2.544642378E+01  2.851221963E+01  3.300000131E-01  0.00000E+00  9.000E+00
      21     1     1     2   513   512 -4.396096598E+00 -6.952610029E+00 -1.196920553E+00  8.312464757E+00  1.999200562E-07  0.00000E+00  9.000E+00
      21     1     1     2   511   515 -8.821125547E-01 -4.771629520E+00 -1.972227945E+01  2.031046226E+01  2.384185791E-07  0.00000E+00  9.000E+00
</event>
<event>
      5  10001  3.52971E+09  1.14972E+01 -1.00000E+00  1.89000E-01
      21    -1     0     0   514   512  0.000000000E+00  0.000000000E+00  2.817712994E+02  2.817712994E+02  0.000000000E+00  0.00000E+00  9.000E+00
      21    -1     0     0   511   514  0.000000000E+00  0.000000000E+00 -6.191016807E-01  6.191016807E-01  0.000000000E+00  0.00000E+00  9.000E+00
      21     1     1     2   515   512  6.722355541E+00  9.312605087E+00  1.017332963E+02  1.023795793E+02  1.348699152E-06  0.00000E+00  9.000E+00
      21     1     1     2   511   513 -1.124193481E+00 -4.429673875E+00  2.506208681E+01  2.547536098E+01  4.768371582E-07  0.00000E+00  9.000E+00
      21     1     1     2   513   515 -5.598162060E+00 -4.882931212E+00  1.543568146E+02  1.545354609E+02  3.303624740E-06  0.00000E+00  9.000E+00
</event>
<event>
      5  10001  3.52971E+09  1.15666E+01 -1.00000E+00  1.88719E-01
      21    -1     0     0   514   511  0.000000000E+00  0.000000000E+00  4.323598957E+01  4.323598957E+01  0.000000000E+00  0.00000E+00  9.000E+00
      21    -1     0     0   512   515  0.000000000E+00  0.000000000E+00 -2.361944378E+02  2.361944378E+02  0.000000000E+00  0.00000E+00  9.000E+00
      21     1     1     2   516   515  9.654283352E-01  1.771612093E+01 -2.319822697E+02  2.326597654E+02  3.814697266E-06  0.00000E+00  9.000E+00
      21     1     1     2   512   511 -1.561802816E+00 -6.164857671E+00  3.323182275E+01  3.383487463E+01  6.743495762E-07  0.00000E+00  9.000E+00
      21     1     1     2   514   516  5.963744810E-01 -1.155126326E+01  5.791998691E+00  1.293578735E+01  1.884864366E-07  0.00000E+00  9.000E+00
</event>
<event>
      5  10001  3.52971E+09  1.68818E+01 -1.00000E+00  1.72677E-01
      21    -1     0     0   512   511  0.000000000E+00  0.000000000E+00  2.105500541E+01  2.105500541E+01  0.000000000E+00  0.00000E+00  9.000E+00
       2    -1     0     0   511     0  0.000000000E+00  0.000000000E+00 -4.897364491E+02  4.897364491E+02  0.000000000E+00  0.00000E+00  9.000E+00
      21     1     1     2   512   515  3.322161831E+00 -1.294125602E+01  1.488534076E+01  2.000215579E+01  1.936921693E-06  0.00000E+00  9.000E+00
       2     1     1     2   513     0  1.142293770E+01  1.405803906E+01 -4.710993564E+02  4.714475840E+02  3.300000131E-01  0.00000E+00  9.000E+00
      21     1     1     2   515   513 -1.474509953E+01 -1.116783034E+00 -1.246742798E+01  1.934171464E+01  4.768371582E-07  0.00000E+00  9.000E+00
</event>
<event>
      5  10001  3.52971E+09  4.09715E+00 -1.00000E+00  2.61030E-01
      21    -1     0     0   512   516  0.000000000E+00  0.000000000E+00  6.201921821E+01  6.201921821E+01  0.000000000E+00  0.00000E+00  9.000E+00
      21    -1     0     0   511   514  0.000000000E+00  0.000000000E+00 -4.655676922E+02  4.655676922E+02  0.000000000E+00  0.00000E+00  9.000E+00
      21     1     1     2   513   516 -1.149918826E+01  2.847445085E+00  5.334876499E+01  5.464823877E+01  3.090257978E-06  0.00000E+00  9.000E+00
      21     1     1     2   511   513  9.586434827E+00 -6.470707595E+00 -4.643179731E+02  4.644620005E+02  1.078959322E-05  0.00000E+00  9.000E+00
      21     1     1     2   512   514  1.912753438E+00  3.623262511E+00  7.420734165E+00  8.476671073E+00  2.384185791E-07  0.00000E+00  9.000E+00
</event>
<event>
      5  10001  3.52971E+09  1.30216E+01 -1.00000E+00  1.83369E-01
      21    -1     0     0   515   511  0.000000000E+00  0.000000000E+00  2.782242226E+01  2.782242226E+01  0.000000000E+00  0.00000E+00  9.000E+00
      21    -1     0     0   516   517  0.000000000E+00  0.000000000E+00 -2.212033351E+01  2.212033351E+01  0.000000000E+00  0.00000E+00  9.000E+00
      21     1     1     2   515   517  2.549116487E+00 -1.186699639E+01 -1.741093674E+01  2.122414466E+01  0.000000000E+00  0.00000E+00  9.000E+00
      21     1     1     2   516   513  3.442257848E+00  8.803924168E+00  8.855349182E+00  1.295281548E+01  2.384185791E-07  0.00000E+00  9.000E+00
      21     1     1     2   513   511 -5.991374335E+00  3.063072226E+00  1.425767631E+01  1.576579563E+01  1.685873940E-07  0.00000E+00  9.000E+00
</event>
<event>
      5  10001  3.52971E+09  4.24184E+00 -1.00000E+00  2.57596E-01
      21    -1     0     0   512   516  0.000000000E+00  0.000000000E+00  3.438742321E+02  3.438742321E+02  0.000000000E+00  0.00000E+00  9.000E+00
      21    -1     0     0   514   511  0.000000000E+00  0.000000000E+00 -1.613347197E+00  1.613347197E+00  0.000000000E+00  0.00000E+00  9.000E+00
      21     1     1     2   512   511 -1.297841333E+01 -5.768128334E+00  2.995910840E+02  2.999275381E+02  5.394796609E-06  0.00000E+00  9.000E+00
      21     1     1     2   514   515  8.229016316E+00  2.703404346E+00  1.502133338E+01  1.733971053E+01  2.920019320E-07  0.00000E+00  9.000E+00
      21     1     1     2   515   516  4.749397016E+00  3.064723988E+00  2.764846751E+01  2.822033063E+01  3.371747881E-07  0.00000E+00  9.000E+00
</event>
<event>
      5  10001  3.52971E+09  1.28040E+01 -1.00000E+00  1.84111E-01
      21    -1     0     0   513   514  0.000000000E+00  0.000000000E+00  1.933035886E+00  1.933035886E+00  0.000000000E+00  0.00000E+00  9.000E+00
       2    -1     0     0   515     0  0.000000000E+00  0.000000000E+00 -8.438721186E+02  8.438721186E+02  0.000000000E+00  0.00000E+00  9.000E+00
      21     1     1     2   515   514  2.829681852E+00 -9.744109521E+00 -1.180278350E+01  1.556471870E+01  5.840038640E-07  0.00000E+00  9.000E+00
      21     1     1     2   513   511 -8.652396635E-01  6.514555142E+00 -2.345453069E+02  2.346373565E+02  2.697398305E-06  0.00000E+00  9.000E+00
       2     1     1     2   511     0 -1.964442188E+00  3.229554379E+00 -5.955909924E+02  5.956030794E+02  3.300000131E-01  0.00000E+00  9.000E+00
</event>
<event>
      5  10001 -3.52971E+09  8.59689E+00 -1.00000E+00  2.03662E-01
       2    -1     0     0   513     0  0.000000000E+00  0.000000000E+00  4.289153435E+02  4.289153435E+02  0.000000000E+00  0.00000E+00  9.000E+00
      21    -1     0     0   511   512  0.000000000E+00  0.000000000E+00 -6.152401798E+01  6.152401798E+01  0.000000000E+00  0.00000E+00  9.000E+00
      21     1     1     2   513   514 -2.434756301E+00 -2.453341940E+00 -4.441061368E+01  4.454491590E+01  1.719260824E-06  0.00000E+00  9.000E+00
       2     1     1     2   511     0  6.129957466E+00  1.147493205E+01  4.273470847E+02  4.275451908E+02  3.300000131E-01  0.00000E+00  9.000E+00
      21     1     1     2   514   512 -3.695201165E+00 -9.021590111E+00 -1.554514555E+01  1.834925475E+01  6.078504936E-07  0.00000E+00  9.000E+00
</event>
<event>
      5  10001  3.52971E+09  8.95352E+00 -1.00000E+00  2.01470E-01
      21    -1     0     0   515   511  0.000000000E+00  0.000000000E+00  6.885703688E+00  6.885703688E+00  0.000000000E+00  0.00000E+00  9.000E+00
      21    -1     0     0   514   516  0.000000000E+00  0.000000000E+00 -2.004737701E+01  2.004737701E+01  0.000000000E+00  0.00000E+00  9.000E+00
      21     1     1     2   515   516  9.003994206E+00 -1.503556092E+00 -5.483607835E+00  1.064906322E+01  2.528810911E-07  0.00000E+00  9.000E+00
       5     1     1     2   514     0 -2.026093574E+00 -1.284889891E+00 -3.713019930E+00  6.525528028E+00  4.800000191E+00  0.00000E+00  9.000E+00
      -5     1     1     2     0   511 -6.977900631E+00  2.788445983E+00 -3.965045554E+00  9.758489447E+00  4.800000191E+00  0.00000E+00  9.000E+00
</event>
<event>
      5  10001  3.52971E+09  6.12121E+00 -1.00000E+00  2.24125E-01
      21    -1     0     0   512   514  0.000000000E+00  0.000000000E+00  7.148432789E+02  7.148432789E+02  0.000000000E+00  0.00000E+00  9.000E+00
      21    -1     0     0   513   511  0.000000000E+00  0.000000000E+00 -2.584148404E+00  2.584148404E+00  0.000000000E+00  0.00000E+00  9.000E+00
      21     1     1     2   512   511 -1.143483512E+01 -1.144823762E+01  6.798083401E+02  6.800008800E+02  7.629394531E-06  0.00000E+00  9.000E+00
      21     1     1     2   515   514  6.258853205E+00  4.566128897E+00  6.594527157E+00  1.017401420E+01  8.085167388E-07  0.00000E+00  9.000E+00
      21     1     1     2   513   515  5.175981911E+00  6.882108725E+00  2.585626327E+01  2.725253309E+01  3.371747881E-07  0.00000E+00  9.000E+00
</event>
<event>
      5  10001  3.52971E+09  6.31377E+00 -1.00000E+00  2.22082E-01
      21    -1     0     0   513   514  0.000000000E+00  0.000000000E+00  8.825499778E+01  8.825499778E+01  0.000000000E+00  0.00000E+00  9.000E+00
       2    -1     0     0   515     0  0.000000000E+00  0.000000000E+00 -1.359324865E+03  1.359324865E+03  0.000000000E+00  0.00000E+00  9.000E+00
      21     1     1     2   511   514 -1.871065388E+00 -4.822289439E+00  6.819142009E+01  6.838731706E+01  3.693564745E-06  0.00000E+00  9.000E+00
       2     1     1     2   513     0  7.147315051E+00  1.040126409E+01 -1.358458184E+03  1.358516844E+03  3.300000131E-01  0.00000E+00  9.000E+00
      21     1     1     2   515   511 -5.276249663E+00 -5.578974649E+00  1.919689678E+01  2.067570106E+01  2.360223517E-06  0.00000E+00  9.000E+00
</event>
<event>
      5  10001  3.52971E+09  1.09998E+01 -1.00000E+00  1.91087E-01
      21    -1     0     0   512   514  0.000000000E+00  0.000000000E+00  1.385953585E+01  1.385953585E+01  0.000000000E+00  0.00000E+00  9.000E+00
      21    -1     0     0   515   513  0.000000000E+00  0.000000000E+00 -4.628760110E+01  4.628760110E+01  0.000000000E+00  0.00000E+00  9.000E+00
      21     1     1     2   515   511 -9.685247846E-02  1.624753075E+01 -7.692411470E+00  1.797678586E+01  1.884864366E-07  0.00000E+00  9.000E+00
      21     1     1     2   511   514  9.346154531E+00 -1.029386098E+01  1.242699836E+00  1.395917194E+01  3.831076661E-07  0.00000E+00  9.000E+00
      21     1     1     2   512   513 -9.249302053E+00 -5.953669771E+00 -2.597835362E+01  2.821117915E+01  3.371747881E-07  0.00000E+00  9.000E+00
</event>
<event>
      5  10001  3.52971E+09  7.34902E+00 -1.00000E+00  2.12604E-01
      21    -1     0     0   516   511  0.000000000E+00  0.000000000E+00  1.417490337E+03  1.417490337E+03  0.000000000E+00  0.00000E+00  9.000E+00
      21    -1     0     0   515   517  0.000000000E+00  0.000000000E+00 -8.658076542E-01  8.658076542E-01  0.000000000E+00  0.00000E+00  9.000E+00
      21     1     1     2   516   517 -1.126583656E+01  8.473218307E+00  5.942465002E+01  6.107375485E+01  2.780414531E-06  0.00000E+00  9.000E+00
       1     1     1     2   515     0  3.987803639E+00 -4.760232826E+00  4.092609806E+02  4.093082232E+02  3.300000131E-01  0.00000E+00  9.000E+00
      -1     1     1     2     0   511  7.278032923E+00 -3.712985482E+00  9.479388985E+02  9.479741665E+02  3.300000131E-01  0.00000E+00  9.000E+00
</event>
<event>
      5  10001  3.52971E+09  7.50540E+00 -1.00000E+00  2.11356E-01
      21    -1     0     0   513   511  0.000000000E+00  0.000000000E+00  4.255415000E+01  4.255415000E+01  0.000000000E+00  0.00000E+00  9.000E+00
      -1    -1     0     0     0   512  0.000000000E+00  0.000000000E+00 -4.358978589E+01  4.358978589E+01  0.000000000E+00  0.00000E+00  9.000E+00
      -1     1     1     2     0   511  1.770543240E-01  1.703642234E+01 -3.899114469E+01  4.255219499E+01  3.300000131E-01  0.00000E+00  9.000E+00
      21     1     1     2   513   514 -1.600557787E+00 -8.302632297E+00  3.156114777E+01  3.267417232E+01  3.371747881E-07  0.00000E+00  9.000E+00
      21     1     1     2   514   512  1.423503463E+00 -8.733790039E+00  6.394361042E+00  1.091756858E+01  1.460009660E-07  0.00000E+00  9.000E+00
</event>
<event>
      5  10001  3.52971E+09  1.53789E+01 -1.00000E+00  1.76365E-01
      21    -1     0     0   514   515  0.000000000E+00  0.000000000E+00  1.691632356E+00  1.691632356E+00  0.000000000E+00  0.00000E+00  9.000E+00
       2    -1     0     0   511     0  0.000000000E+00  0.000000000E+00 -1.924409320E+03  1.924409320E+03  0.000000000E+00  0.00000E+00  9.000E+00
      21     1     1     2   511   515  5.261635368E+00 -1.210309489E+01 -2.696009415E+01  3.001693504E+01  2.158972058E-06  0.00000E+00  9.000E+00
       2     1     1     2   513     0 -7.013499596E+00  1.035864275E+00 -1.694423162E+03  1.694438025E+03  3.300000131E-01  0.00000E+00  9.000E+00
      21     1     1     2   514   513  1.751864228E+00  1.106723061E+01 -2.013344318E+02  2.016459919E+02  2.697398305E-06  0.00000E+00  9.000E+00
</event>
<event>
      5  10001  3.52971E+09  7.06172E+00 -1.00000E+00  2.15011E-01
      21    -1     0     0   513   511  0.000000000E+00  0.000000000E+00  3.042204047E+01  3.042204047E+01  0.000000000E+00  0.00000E+00  9.000E+00
       1    -1     0     0   511     0  0.000000000E+00  0.000000000E+00 -5.000168757E+01  5.000168757E+01  0.000000000E+00  0.00000E+00  9.000E+00
      21     1     1     2   513   512 -1.298458215E+00  9.192390222E+00  2.678311805E+01  2.834645382E+01  5.840038640E-07  0.00000E+00  9.000E+00
       1     1     1     2   515     0  3.244631908E+00 -6.854196361E+00 -4.801780523E+01  4.861405314E+01  3.300000131E-01  0.00000E+00  9.000E+00
      21     1     1     2   512   515 -1.946173694E+00 -2.338193861E+00  1.655040079E+00  3.463221079E+00  3.650024150E-08  0.00000E+00  9.000E+00
</event>
<event>
      5  10001  3.52971E+09  7.63957E+00 -1.00000E+00  2.10318E-01
      21    -1     0     0   514   511  0.000000000E+00  0.000000000E+00  1.807704594E+02  1.807704594E+02  0.000000000E+00  0.00000E+00  9.000E+00
      -1    -1     0     0     0   514  0.000000000E+00  0.000000000E+00 -7.028339961E-01  7.028339961E-01  0.000000000E+00  0.00000E+00  9.000E+00
      21     1     1     2   516   513 -2.603019253E+00  2.795611160E-01  5.484037307E+01  5.490282672E+01  6.743495762E-07  0.00000E+00  9.000E+00
      21     1     1     2   513   511  9.953216724E+00 -3.219999754E+00  6.962530035E+01  7.040679918E+01  9.536743164E-07  0.00000E+00  9.000E+00
      -1     1     1     2     0   516 -7.350197471E+00  2.940438638E+00  5.560195202E+01  5.616366753E+01  3.300000131E-01  0.00000E+00  9.000E+00
</event>
<event>
      5  10001  3.52971E+09  5.48127E+00 -1.00000E+00  2.31742E-01
      21    -1     0     0   512   511  0.000000000E+00  0.000000000E+00  2.737549605E+00  2.737549605E+00  0.000000000E+00  0.00000E+00  9.000E+00
      21    -1     0     0   515   512  0.000000000E+00  0.000000000E+00 -7.440346315E+01  7.440346315E+01  0.000000000E+00  0.00000E+00  9.000E+00
      21     1     1     2   517   511 -1.071534106E+01  3.299359024E+00 -1.393585627E+01  1.788609499E+01  0.000000000E+00  0.00000E+00  9.000E+00
      21     1     1     2   513   517  9.309645278E+00 -8.904121476E-01 -3.100602196E+01  3.238573338E+01  4.768371582E-07  0.00000E+00  9.000E+00
      21     1     1     2   515   513  1.405695784E+00 -2.408946877E+00 -2.672403532E+01  2.686918438E+01  0.000000000E+00  0.00000E+00  9.000E+00
</event>
<event>
      5  10001  3.52971E+09  7.59310E+00 -1.00000E+00  2.10674E-01
      21    -1     0     0   514   513  0.000000000E+00  0.000000000E+00  3.930728080E+02  3.930728080E+02  0.000000000E+00  0.00000E+00  9.000E+00
      21    -1     0     0   511   516  0.000000000E+00  0.000000000E+00 -6.770026182E-01  6.770026182E-01  0.000000000E+00  0.00000E+00  9.000E+00
      21     1     1     2   514   516  1.348171264E+01  4.286230436E+00  2.666889238E+02  2.670638696E+02  0.000000000E+00  0.00000E+00  9.000E+00
      21     1     1     2   511   512 -5.124480014E+00 -5.155180631E+00  6.329552618E+01  6.371153598E+01  1.784161275E-06  0.00000E+00  9.000E+00
      21     1     1     2   512   513 -8.357232622E+00  8.689501948E-01  6.241135534E+01  6.297440501E+01  9.536743164E-07  0.00000E+00  9.000E+00
</event>
<event>
      5  10001  3.52971E+09  2.62630E+00 -1.00000E+00  3.15565E-01
      -1    -1     0     0     0   513  0.000000000E+00  0.000000000E+00  5.008112264E+00  5.008112264E+00  0.000000000E+00  0.00000E+00  9.000E+00
      21    -1     0     0   512   514  0.000000000E+00  0.000000000E+00 -1.793345873E+02  1.793345873E+02  0.000000000E+00  0.00000E+00  9.000E+00
      -1     1     1     2     0   514  1.527792232E+01 -9.076933999E-01 -7.937048962E+00  1.724367896E+01  3.300000131E-01  0.00000E+00  9.000E+00
      21     1     1     2   511   513 -3.395835076E+00  4.971403015E-01 -4.389825137E+01  4.403220773E+01  4.768371582E-07  0.00000E+00  9.000E+00
      21     1     1     2   512   511 -1.188208724E+01  4.105530983E-01 -1.224911747E+02  1.230668129E+02  1.348699152E-06  0.00000E+00  9.000E+00
</event>
<event>
      5  10001  3.52971E+09  8.76713E+00 -1.00000E+00  2.02598E-01
      21    -1     0     0   515   511  0.000000000E+00  0.000000000E+00  5.275321428E+01  5.275321428E+01  0.000000000E+00  0.00000E+00  9.000E+00
      21    -1     0     0   513   516  0.000000000E+00  0.000000000E+00 -8.159562294E+01  8.159562294E+01  0.000000000E+00  0.00000E+00  9.000E+00
      21     1     1     2   515   516 -1.336592868E+01  6.907973453E+00  2.480909160E+01  2.901480955E+01  4.768371582E-07  0.00000E+00  9.000E+00
      21     1     1     2   512   511  1.228556436E+01  1.792331472E+00  2.408921997E+01  2.710051775E+01  3.371747881E-07  0.00000E+00  9.000E+00
      21     1     1     2   513   512  1.080364325E+00 -8.700304925E+00 -7.774072023E+01  7.823350992E+01  1.348699152E-06  0.00000E+00  9.000E+00
</event>
<event>
      5  10001  3.52971E+09  4.24567E+00 -1.00000E+00  2.57508E-01
       1    -1     0     0   514     0  0.000000000E+00  0.000000000E+00  4.512786431E+00  4.512786431E+00  0.000000000E+00  0.00000E+00  9.000E+00
      21    -1     0     0   513   517  0.000000000E+00  0.000000000E+00 -7.577570719E+01  7.577570719E+01  0.000000000E+00  0.00000E+00  9.000E+00
      21     1     1     2   514   517 -9.237228282E+00 -6.038238428E+00 -2.289907083E+01  2.541956244E+01  6.743495762E-07  0.00000E+00  9.000E+00
      21     1     1     2   513   512  5.682340974E+00  8.358574131E+00 -4.945187226E+01  5.047417588E+01  9.536743164E-07  0.00000E+00  9.000E+00
       1     1     1     2   512     0  3.554887307E+00 -2.320335702E+00  1.088022336E+00  4.394755301E+00  3.300000131E-01  0.00000E+00  9.000E+00
</event>
<event>
      5  10001  3.52971E+09  1.88054E+01 -1.00000E+00  1.68603E-01
       2    -1     0     0   514     0  0.000000000E+00  0.000000000E+00  1.418935410E+02  1.418935410E+02  0.000000000E+00  0.00000E+00  9.000E+00
      21    -1     0     0   512   514  0.000000000E+00  0.000000000E+00 -5.791842490E+00  5.791842490E+00  0.000000000E+00  0.00000E+00  9.000E+00
      21     1     1     2   512   513 -9.703725280E+00  1.633543395E+01  2.034542050E+01  2.783783077E+01  3.371747881E-07  0.00000E+00  9.000E+00
       2     1     1     2   511     0  4.844448683E+00 -8.227869970E+00  1.053770934E+02  1.058092966E+02  3.300000131E-01  0.00000E+00  9.000E+00
      21     1     1     2   513   511  4.859276596E+00 -8.107563983E+00  1.037918465E+01  1.403825619E+01  3.769728732E-07  0.00000E+00  9.000E+00
</event>
<event>
      5  10001  3.52971E+09  6.34645E+00 -1.00000E+00  2.21745E-01
      21    -1     0     0   514   511  0.000000000E+00  0.000000000E+00  5.794037585E+01  5.794037585E+01  0.000000000E+00  0.00000E+00  9.000E+00
      21    -1     0     0   512   516  0.000000000E+00  0.000000000E+00 -3.170586956E+01  3.170586956E+01  0.000000000E+00  0.00000E+00  9.000E+00
      21     1     1     2   515   516 -1.207435951E+01 -1.835880987E+00 -2.329436458E+01  2.630186377E+01  5.840038640E-07  0.00000E+00  9.000E+00
      21     1     1     2   512   511  1.596699423E+01  6.848348523E+00  4.603874970E+00  1.797332598E+01  3.424026159E-07  0.00000E+00  9.000E+00
      21     1     1     2   514   515 -3.892634720E+00 -5.012467536E+00  4.492499589E+01  4.537105566E+01  4.768371582E-07  0.00000E+00  9.000E+00
</event>
<event>
      5  10001  3.52971E+09  9.93947E+00 -1.00000E+00  1.96058E-01
      21    -1     0     0   513   511  0.000000000E+00  0.000000000E+00  6.435708069E+01  6.435708069E+01  0.000000000E+00  0.00000E+00  9.000E+00
      21    -1     0     0   517   513  0.000000000E+00  0.000000000E+00 -3.238704613E+00  3.238704613E+00  0.000000000E+00  0.00000E+00  9.000E+00
      21     1     1     2   512   511 -6.310378824E+00  5.681867226E+00  3.888437412E+01  3.980074178E+01  4.768371582E-07  0.00000E+00  9.000E+00
      21     1     1     2   517   516  4.744904856E+00 -1.050778390E+01  1.662859072E+01  2.023456631E+01  2.384185791E-07  0.00000E+00  9.000E+00
      21     1     1     2   516   512  1.565473969E+00  4.825916669E+00  5.605411239E+00  7.560477208E+00  8.429369702E-08  0.00000E+00  9.000E+00
</event>
<event>
      5  10001  3.52971E+09  6.60172E+00 -1.00000E+00  2.19207E-01
      21    -1     0     0   514   512  0.000000000E+00  0.000000000E+00  1.093544645E+02  1.093544645E+02  0.000000000E+00  0.00000E+00  9.000E+00
      21    -1     0     0   515   514  0.000000000E+00  0.000000000E+00 -1.406298096E+00  1.406298096E+00  0.000000000E+00  0.00000E+00  9.000E+00
      21     1     1     2   517   512  2.672802878E+00  1.003147602E+01  7.815479335E+01  7.884127161E+01  0.000000000E+00  0.00000E+00  9.000E+00
      21     1     1     2   511   517  3.677793757E-01 -2.541462690E+00  3.081344975E+00  4.011107220E+00  9.424321831E-08  0.00000E+00  9.000E+00
      21     1     1     2   515   511 -3.040582254E+00 -7.490013329E+00  2.671202810E+01  2.790838378E+01  6.743495762E-07  0.00000E+00  9.000E+00
</event>
<event>
      5  10001  3.52971E+09  3.81058E+00 -1.00000E+00  2.68527E-01
      21    -1     0     0   512   511  0.000000000E+00  0.000000000E+00  1.420722477E+01  1.420722477E+01  0.000000000E+00  0.00000E+00  9.000E+00
      -1    -1     0     0     0   513  0.000000000E+00  0.000000000E+00 -5.047702064E+02  5.047702064E+02  0.000000000E+00  0.00000E+00  9.000E+00
      -1     1     1     2     0   511 -9.677503723E+00  3.408590574E+00 -4.920835976E+02  4.921906628E+02  3.300000131E-01  0.00000E+00  9.000E+00
      21     1     1     2   515   513  1.122004198E+01  7.579629707E-02  1.152285262E+01  1.608325898E+01  9.684608465E-07  0.00000E+00  9.000E+00
      21     1     1     2   512   515 -1.542538255E+00 -3.484386871E+00 -1.000223658E+01  1.070350937E+01  1.685873940E-07  0.00000E+00  9.000E+00
</event>
<event>
      5  10001  3.52971E+09  1.02744E+01 -1.00000E+00  1.94403E-01
      -5    -1     0     0     0   514  0.000000000E+00  0.000000000E+00  3.038318891E+01  3.038318891E+01  0.000000000E+00  0.00000E+00  9.000E+00
       2    -1     0     0   511     0  0.000000000E+00  0.000000000E+00 -3.357851523E+02  3.357851523E+02  0.000000000E+00  0.00000E+00  9.000E+00
      -5     1     1     2     0   512  1.000297658E+01 -1.599492005E+01  2.656609176E+01  3.293469662E+01  4.800000191E+00  0.00000E+00  9.000E+00
       2     1     1     2   512     0 -1.650403416E+01  8.046494253E+00 -2.375805926E+02  2.382892698E+02  3.300000131E-01  0.00000E+00  9.000E+00
      21     1     1     2   511   514  6.501057580E+00  7.948425799E+00 -9.438746256E+01  9.494437483E+01  0.000000000E+00  0.00000E+00  9.000E+00
</event>
<event>
      5  10001  3.52971E+09  9.95743E+00 -1.00000E+00  1.95967E-01
      21    -1     0     0   513   512  0.000000000E+00  0.000000000E+00  9.783984463E+01  9.783984463E+01  0.000000000E+00  0.00000E+00  9.000E+00
      21    -1     0     0   511   514  0.000000000E+00  0.000000000E+00 -3.183854602E+00  3.183854602E+00  0.000000000E+00  0.00000E+00  9.000E+00
      21     1     1     2   513   514  5.977365755E+00 -1.474091673E+01  2.614203979E+01  3.060114004E+01  4.768371582E-07  0.00000E+00  9.000E+00
      21     1     1     2   515   512 -3.688230366E-02  1.156987075E+00  9.693629211E+00  9.762501046E+00  1.685873940E-07  0.00000E+00  9.000E+00
      21     1     1     2   511   515 -5.940483451E+00  1.358392966E+01  5.882032103E+01  6.066005815E+01  1.168007728E-06  0.00000E+00  9.000E+00
</event>
<event>
      5  10001  3.52971E+09  1.19811E+01 -1.00000E+00  1.87096E-01
       1    -1     0     0   511     0  0.000000000E+00  0.000000000E+00  1.626267381E+01  1.626267381E+01  0.000000000E+00  0.00000E+00  9.000E+00
      21    -1     0     0   516   515  0.000000000E+00  0.000000000E+00 -6.063649744E+01  6.063649744E+01  0.000000000E+00  0.00000E+00  9.000E+00
      21     1     1     2   512   515 -7.503047750E-04 -5.505014444E+00 -4.132186647E+01  4.168695040E+01  4.768371582E-07  0.00000E+00  9.000E+00
       1     1     1     2   516     0 -1.019545173E+01  8.231498793E+00  1.136233787E+01  1.734694297E+01  3.300000131E-01  0.00000E+00  9.000E+00
      21     1     1     2   511   512  1.019620204E+01 -2.726484349E+00 -1.441429503E+01  1.786527789E+01  0.000000000E+00  0.00000E+00  9.000E+00
</event>
<event>
      5  10001  3.52971E+09  1.16659E+01 -1.00000E+00  1.88323E-01
      21    -1     0     0   513   515  0.000000000E+00  0.000000000E+00  2.635988517E+02  2.635988517E+02  0.000000000E+00  0.00000E+00  9.000E+00
      21    -1     0     0   514   512  0.000000000E+00  0.000000000E+00 -4.596327804E-01  4.596327804E-01  0.000000000E+00  0.00000E+00  9.000E+00
      21     1     1     2   513   512 -3.522742323E+00  6.558859455E+00  6.197689330E+01  6.242246114E+01  1.168007728E-06  0.00000E+00  9.000E+00
      21     1     1     2   514   516  5.014601835E+00 -3.503362634E+00  4.257123096E+01  4.300848157E+01  9.536743164E-07  0.00000E+00  9.000E+00
      21     1     1     2   516   515 -1.491859512E+00 -3.055496821E+00  1.585910946E+02  1.586275418E+02  1.907348633E-06  0.00000E+00  9.000E+00
</event>
<event>
      5  10001  3.52971E+09  2.18130E+01 -1.00000E+00  1.63315E-01
      21    -1     0     0   512   516  0.000000000E+00  0.000000000E+00  7.234797154E+01  7.234797154E+01  0.000000000E+00  0.00000E+00  9.000E+00
      21    -1     0     0   515   511  0.000000000E+00  0.000000000E+00 -6.932896319E+01  6.932896319E+01  0.000000000E+00  0.00000E+00  9.000E+00
      21     1     1     2   514   516  4.642277651E+00  3.776428253E+01  3.305904288E+01  5.040428645E+01  1.168007728E-06  0.00000E+00  9.000E+00
      21     1     1     2   515   514  5.393155514E+00 -1.839682862E+01 -5.492865686E+01  5.817806093E+01  6.743495762E-07  0.00000E+00  9.000E+00
      21     1     1     2   512   511 -1.003543317E+01 -1.936745391E+01  2.488862234E+01  3.309458735E+01  6.743495762E-07  0.00000E+00  9.000E+00
</event>
<event>
      5  10001  3.52971E+09  1.49246E+01 -1.00000E+00  1.77586E-01
      -2    -1     0     0     0   513  0.000000000E+00  0.000000000E+00  2.069820171E+02  2.069820171E+02  0.000000000E+00  0.00000E+00  9.000E+00
      21    -1     0     0   512   511  0.000000000E+00  0.000000000E+00 -1.097758692E+01  1.097758692E+01  0.000000000E+00  0.00000E+00  9.000E+00
      -2     1     1     2     0   511 -2.189346569E+00 -1.373307432E+01  1.920229497E+02  1.925261351E+02  3.300000131E-01  0.00000E+00  9.000E+00
      21     1     1     2   512   514 -6.872695121E+00  4.967937322E+00 -5.100046701E+00  9.895696833E+00  3.816559456E-07  0.00000E+00  9.000E+00
      21     1     1     2   514   513  9.062041690E+00  8.765137002E+00  9.081527129E+00  1.553777208E+01  3.769728732E-07  0.00000E+00  9.000E+00
</event>
<event>
      5  10001  3.52971E+09  1.79568E+01 -1.00000E+00  1.70322E-01
       1    -1     0     0   514     0  0.000000000E+00  0.000000000E+00  3.954561610E+01  3.954561610E+01  0.000000000E+00  0.00000E+00  9.000E+00
      -1    -1     0     0     0   514  0.000000000E+00  0.000000000E+00 -7.182722999E+01  7.182722999E+01  0.000000000E+00  0.00000E+00  9.000E+00
      -1     1     1     2     0   511 -1.542600819E+01  1.489664911E+01 -2.815961225E+01  3.539695673E+01  3.300000131E-01  0.00000E+00  9.000E+00
       1     1     1     2   513     0  1.927393180E+01 -1.706869982E+01  3.115829839E+01  4.041996313E+01  3.300000131E-01  0.00000E+00  9.000E+00
      21     1     1     2   511   513 -3.847923611E+00  2.172050711E+00 -3.528030003E+01  3.555592624E+01  1.066240300E-06  0.00000E+00  9.000E+00
</event>
<event>
      5  10001  3.52971E+09  1.27092E+01 -1.00000E+00  1.84440E-01
      21    -1     0     0   514   513  0.000000000E+00  0.000000000E+00  6.564092615E+01  6.564092615E+01  0.000000000E+00  0.00000E+00  9.000E+00
       1    -1     0     0   511     0  0.000000000E+00  0.000000000E+00 -1.181721803E+02  1.181721803E+02  0.000000000E+00  0.00000E+00  9.000E+00
      21     1     1     2   511   513  1.402381310E+00 -2.963015234E+01 -4.102740332E+01  5.062766461E+01  6.743495762E-07  0.00000E+00  9.000E+00
       1     1     1     2   512     0 -1.383492374E+01  3.226713199E+01 -6.732820794E+01  7.593266363E+01  3.300000131E-01  0.00000E+00  9.000E+00
      21     1     1     2   514   512  1.243254243E+01 -2.636979653E+00  5.582435708E+01  5.725277824E+01  9.536743164E-07  0.00000E+00  9.000E+00
</event>
<event>
      5  10001  3.52971E+09  1.45027E+01 -1.00000E+00  1.78770E-01
       1    -1     0     0   515     0  0.000000000E+00  0.000000000E+00  2.933177686E+01  2.933177686E+01  0.000000000E+00  0.00000E+00  9.000E+00
      21    -1     0     0   512   515  0.000000000E+00  0.000000000E+00 -1.333003165E+01  1.333003165E+01  0.000000000E+00  0.00000E+00  9.000E+00
      21     1     1     2   512   514 -8.267699786E+00 -3.783051640E+00 -9.084501633E+00  1.285280162E+01  0.000000000E+00  0.00000E+00  9.000E+00
      21     1     1     2   514   511  3.179168091E+00  8.066945018E+00  9.514051259E+00  1.287244666E+01  1.192092896E-07  0.00000E+00  9.000E+00
       1     1     1     2   511     0  5.088531695E+00 -4.283893378E+00  1.557219558E+01  1.693656023E+01  3.300000131E-01  0.00000E+00  9.000E+00
</event>
<event>
      5  10001  3.52971E+09  1.04590E+01 -1.00000E+00  1.93526E-01
       2    -1     0     0   514     0  0.000000000E+00  0.000000000E+00  1.297636475E+02  1.297636475E+02  0.000000000E+00  0.00000E+00  9.000E+00
      21    -1     0     0   513   514  0.000000000E+00  0.000000000E+00 -9.528641061E+01  9.528641061E+01  0.000000000E+00  0.00000E+00  9.000E+00
      21     1     1     2   513   511 -1.112718154E+01  1.290111124E+01 -9.045600422E+01  9.204640970E+01  1.907348633E-06  0.00000E+00  9.000E+00
       2     1     1     2   512     0  4.808370611E+00 -1.245507826E+01  1.258907526E+02  1.265971560E+02  3.300000131E-01  0.00000E+00  9.000E+00
      21     1     1     2   511   512  6.318810927E+00 -4.460329741E-01 -9.575115200E-01  6.406492430E+00  1.569934749E-07  0.00000E+00  9.000E+00
</event>
<event>
      5  10001  3.52971E+09  1.05008E+01 -1.00000E+00  1.93331E-01
      21    -1     0     0   515   511  0.000000000E+00  0.000000000E+00  8.321566599E-01  8.321566599E-01  0.000000000E+00  0.00000E+00  9.000E+00
      21    -1     0     0   516   515  0.000000000E+00  0.000000000E+00 -2.472591133E+02  2.472591133E+02  0.000000000E+00  0.00000E+00  9.000E+00
      21     1     1     2   516   513  7.684523134E+00 -5.988810722E+00 -1.390985983E+02  1.394393696E+02  1.907348633E-06  0.00000E+00  9.000E+00
      21     1     1     2   514   511 -3.383152094E+00  4.431368788E+00 -1.219908964E+01  1.341270053E+01  2.920019320E-07  0.00000E+00  9.000E+00
      21     1     1     2   513   514 -4.301371041E+00  1.557441934E+00 -9.512926869E+01  9.523919980E+01  1.348699152E-06  0.00000E+00  9.000E+00
</event>
<event>
      5  10001  3.52971E+09  4.52259E+00 -1.00000E+00  2.51499E-01
      21    -1     0     0   512   514  0.000000000E+00  0.000000000E+00  2.331587502E+01  2.331587502E+01  0.000000000E+00  0.00000E+00  9.000E+00
      21    -1     0     0   513   517  0.000000000E+00  0.000000000E+00 -1.382308993E+01  1.382308993E+01  0.000000000E+00  0.00000E+00  9.000E+00
      21     1     1     2   512   517  1.004785115E+01 -3.716556100E+00 -9.625960338E+00  1.440247251E+01  1.192092896E-07  0.00000E+00  9.000E+00
      21     1     1     2   513   511 -6.572087519E+00  5.244605852E+00  1.176953469E+01  1.446444509E+01  2.384185791E-07  0.00000E+00  9.000E+00
      21     1     1     2   511   514 -3.475763635E+00 -1.528049752E+00  7.349210734E+00  8.272047346E+00  8.429369702E-08  0.00000E+00  9.000E+00
</event>
<event>
      5  10001  3.52971E+09  2.22979E+01 -1.00000E+00  1.62561E-01
      21    -1     0     0   515   514  0.000000000E+00  0.000000000E+00  6.793023240E+02  6.793023240E+02  0.000000000E+00  0.00000E+00  9.000E+00
      -1    -1     0     0     0   515  0.000000000E+00  0.000000000E+00 -4.053273473E+00  4.053273473E+00  0.000000000E+00  0.00000E+00  9.000E+00
      21     1     1     2   512   511 -1.289604735E+00  5.596448358E+00  8.441719296E+00  1.021009007E+01  2.384185791E-07  0.00000E+00  9.000E+00
      21     1     1     2   511   514  1.150914176E+01 -3.234174811E+00  6.610839660E+02  6.611920525E+02  1.078959322E-05  0.00000E+00  9.000E+00
      -1     1     1     2     0   512 -1.021953702E+01 -2.362273547E+00  5.723365197E+00  1.195345483E+01  3.300000131E-01  0.00000E+00  9.000E+00
</event>
<event>
      5  10001  3.52971E+09  6.90815E+00 -1.00000E+00  2.16362E-01
       1    -1     0     0   511     0  0.000000000E+00  0.000000000E+00  3.216134123E+01  3.216134123E+01  0.000000000E+00  0.00000E+00  9.000E+00
      21    -1     0     0   513   515  0.000000000E+00  0.000000000E+00 -3.436737961E+02  3.436737961E+02  0.000000000E+00  0.00000E+00  9.000E+00
      21     1     1     2   514   515  5.870254016E+00 -4.778495244E+00 -1.733587509E+02  1.735239189E+02  0.000000000E+00  0.00000E+00  9.000E+00
       1     1     1     2   513     0 -1.364994279E+01  2.839238010E+00  3.046325429E+01  3.350374565E+01  3.300000131E-01  0.00000E+00  9.000E+00
      21     1     1     2   511   514  7.779688778E+00  1.939257234E+00 -1.686169582E+02  1.688074728E+02  2.697398305E-06  0.00000E+00  9.000E+00
</event>
<event>
      5  10001  3.52971E+09  2.53525E+00 -1.00000E+00  3.20958E-01
       3    -1     0     0   514     0  0.000000000E+00  0.000000000E+00  4.050634865E+00  4.050634865E+00  0.000000000E+00  0.00000E+00  9.000E+00
      21    -1     0     0   512   514  0.000000000E+00  0.000000000E+00 -1.784581617E+02  1.784581617E+02  0.000000000E+00  0.00000E+00  9.000E+00
      21     1     1     2   512   513  8.893305002E+00  3.418353913E+00 -1.555863882E+02  1.558778374E+02  2.697398305E-06  0.00000E+00  9.000E+00
       3     1     1     2   511     0 -9.059657645E+00 -5.905679705E+00 -3.906393567E+00  1.150931623E+01  5.000000000E-01  0.00000E+00  9.000E+00
      21     1     1     2   513   511  1.663526430E-01  2.487325792E+00 -1.491474509E+01  1.512164290E+01  0.000000000E+00  0.00000E+00  9.000E+00
</event>
<event>
      5  10001  3.52971E+09  5.55363E+00 -1.00000E+00  2.30809E-01
       1    -1     0     0   513     0  0.000000000E+00  0.000000000E+00  2.093694664E+00  2.093694664E+00  0.000000000E+00  0.00000E+00  9.000E+00
      21    -1     0     0   511   513  0.000000000E+00  0.000000000E+00 -3.290860244E+02  3.290860244E+02  0.000000000E+00  0.00000E+00  9.000E+00
      21     1     1     2   511   512 -8.120239502E-01 -8.103744120E+00 -2.938311419E+02  2.939439912E+02  3.814697266E-06  0.00000E+00  9.000E+00
       1     1     1     2   515     0  3.874539987E+00  1.034894990E+01 -1.472897181E+01  1.841641482E+01  3.300000131E-01  0.00000E+00  9.000E+00
      21     1     1     2   512   515 -3.062516037E+00 -2.245205778E+00 -1.843221603E+01  1.881931298E+01  3.371747881E-07  0.00000E+00  9.000E+00
</event>
<event>
      5  10001  3.52971E+09  2.32938E+01 -1.00000E+00  1.61082E-01
       3    -1     0     0   512     0  0.000000000E+00  0.000000000E+00  4.632095586E+01  4.632095586E+01  0.000000000E+00  0.00000E+00  9.000E+00
      21    -1     0     0   514   513  0.000000000E+00  0.000000000E+00 -1.831230249E+01  1.831230249E+01  0.000000000E+00  0.00000E+00  9.000E+00
      21     1     1     2   512   513 -3.980296292E+00 -9.545503440E+00 -1.536518161E+01  1.852156042E+01  3.769728732E-07  0.00000E+00  9.000E+00
      21     1     1     2   514   511  3.909341844E+00  4.065291990E+00  5.631230448E+00  7.969962922E+00  1.032382731E-07  0.00000E+00  9.000E+00
       3     1     1     2   511     0  7.095444817E-02  5.480211450E+00  3.774260453E+01  3.814173500E+01  5.000000000E-01  0.00000E+00  9.000E+00
</event>
<event>
      5  10001  3.52971E+09  4.99053E+00 -1.00000E+00  2.42701E-01
      21    -1     0     0   515   513  0.000000000E+00  0.000000000E+00  1.433925036E+03  1.433925036E+03  0.000000000E+00  0.00000E+00  9.000E+00
      21    -1     0     0   516   515  0.000000000E+00  0.000000000E+00 -2.142406989E+00  2.142406989E+00  0.000000000E+00  0.00000E+00  9.000E+00
      21     1     1     2   516   517 -6.638224822E+00 -7.712385337E+00  1.038114367E+01  1.453667983E+01  1.581489940E-06  0.00000E+00  9.000E+00
      21     1     1     2   517   512  4.447261266E+00  3.770049718E+00  1.334182998E+03  1.334195737E+03  1.525878906E-05  0.00000E+00  9.000E+00
      21     1     1     2   512   513  2.190963557E+00  3.942335619E+00  8.721848752E+01  8.733502675E+01  1.348699152E-06  0.00000E+00  9.000E+00
</event>
<event>
      5  10001  3.52971E+09  1.23957E+01 -1.00000E+00  1.85555E-01
       2    -1     0     0   514     0  0.000000000E+00  0.000000000E+00  1.934991213E+02  1.934991213E+02  0.000000000E+00  0.00000E+00  9.000E+00
      21    -1     0     0   512   515  0.000000000E+00  0.000000000E+00 -8.920574388E+00  8.920574388E+00  0.000000000E+00  0.00000E+00  9.000E+00
      21     1     1     2   512   511 -1.519233165E+01  3.993440862E+00  5.291962074E+01  5.520181854E+01  0.000000000E+00  0.00000E+00  9.000E+00
       2     1     1     2   511     0  9.752876248E+00  7.144686381E+00  1.340495701E+02  1.345940611E+02  3.300000131E-01  0.00000E+00  9.000E+00
      21     1     1     2   514   515  5.439455401E+00 -1.113812724E+01 -2.390643920E+00  1.262381606E+01  4.664801312E-07  0.00000E+00  9.000E+00
</event>
<event>
      5  10001  3.52971E+09  1.63145E+01 -1.00000E+00  1.74011E-01
      -5    -1     0     0     0   513  0.000000000E+00  0.000000000E+00  1.011634495E+01  1.011634495E+01  0.000000000E+00  0.00000E+00  9.000E+00
      21    -1     0     0   514   515  0.000000000E+00  0.000000000E+00 -5.510878603E+01  5.510878603E+01  0.000000000E+00  0.00000E+00  9.000E+00
      -5     1     1     2     0   515 -1.053977306E+01  2.498538114E+00  5.376276539E+00  1.301052882E+01  4.800000191E+00  0.00000E+00  9.000E+00
      21     1     1     2   514   511  2.033940308E+00 -3.774900498E+00 -9.107394092E+00  1.006635058E+01  1.192092896E-07  0.00000E+00  9.000E+00
      21     1     1     2   511   513  8.505832750E+00  1.276362384E+00 -4.126132353E+01  4.214825157E+01  4.768371582E-07  0.00000E+00  9.000E+00
</event>
<event>
      5  10001  3.52971E+09  5.00116E+00 -1.00000E+00  2.38492E-01
      21    -1     0     0   512   513  0.000000000E+00  0.000000000E+00  4.089436523E+01  4.089436523E+01  0.000000000E+00  0.00000E+00  9.000E+00
      21    -1     0     0   514   512  0.000000000E+00  0.000000000E+00 -1.024345492E+02  1.024345492E+02  0.000000000E+00  0.00000E+00  9.000E+00
      -1     1     1     2     0   511  7.918542566E+00 -7.882360013E+00 -5.932571427E+01  6.036956344E+01  3.300000131E-01  0.00000E+00  9.000E+00
      21     1     1     2   511   513 -3.147179075E+00  9.380467655E+00  3.961437313E+01  4.083131724E+01  1.066240300E-06  0.00000E+00  9.000E+00
       1     1     1     2   514     0 -4.771363491E+00 -1.498107642E+00 -4.182884282E+01  4.212803375E+01  3.300000131E-01  0.00000E+00  9.000E+00
</event>
<event>
      5  10001  3.52971E+09  4.62639E+00 -1.00000E+00  2.49412E-01
       2    -1     0     0   512     0  0.000000000E+00  0.000000000E+00  3.366325145E+02  3.366325145E+02  0.000000000E+00  0.00000E+00  9.000E+00
      21    -1     0     0   511   512  0.000000000E+00  0.000000000E+00 -1.142311065E+00  1.142311065E+00  0.000000000E+00  0.00000E+00  9.000E+00
      21     1     1     2   511   515  1.011206734E+01  5.234850718E+00  3.104994097E+01  3.307198818E+01  6.743495762E-07  0.00000E+00  9.000E+00
       2     1     1     2   513     0 -8.165023946E+00 -1.874549326E+00  1.701490120E+02  1.703554424E+02  3.300000131E-01  0.00000E+00  9.000E+00
      21     1     1     2   515   513 -1.947043390E+00 -3.360301392E+00  1.342912504E+02  1.343473950E+02  1.907348633E-06  0.00000E+00  9.000E+00
</event>
<event>
      5  10001  3.52971E+09  4.89015E+00 -1.00000E+00  2.44464E-01
      21    -1     0     0   511   513  0.000000000E+00  0.000000000E+00  4.617716602E+01  4.617716602E+01  0.000000000E+00  0.00000E+00  9.000E+00
      21    -1     0     0   512   514  0.000000000E+00  0.000000000E+00 -9.431728171E+00  9.431728171E+00  0.000000000E+00  0.00000E+00  9.000E+00
      -4     1     1     2     0   513  1.406862276E+01  2.681281035E-01  1.031385225E+01  1.751067067E+01  1.500000000E+00  0.00000E+00  9.000E+00
      21     1     1     2   511   514 -1.582683509E+01  4.268960723E+00  2.827487347E+01  3.268304154E+01  3.371747881E-07  0.00000E+00  9.000E+00
       4     1     1     2   512     0  1.758212328E+00 -4.537088827E+00 -1.843287882E+00  5.415181976E+00  1.500000000E+00  0.00000E+00  9.000E+00
</event>
<event>
      5  10001  3.52971E+09  1.05346E+01 -1.00000E+00  1.93174E-01
      21    -1     0     0   515   513  0.000000000E+00  0.000000000E+00  3.176025476E+01  3.176025476E+01  0.000000000E+00  0.00000E+00  9.000E+00
       2    -1     0     0   512     0  0.000000000E+00  0.000000000E+00 -3.799434721E+02  3.799434721E+02  0.000000000E+00  0.00000E+00  9.000E+00
      21     1     1     2   515   516 -1.407525148E+01  8.085509149E+00  2.843994535E+01  3.274627695E+01  7.539457465E-07  0.00000E+00  9.000E+00
      21     1     1     2   512   513  4.000548358E+00 -1.116409938E+01 -3.126700268E+01  3.344049878E+01  3.371747881E-07  0.00000E+00  9.000E+00
       2     1     1     2   516     0  1.007470313E+01  3.078590235E+00 -3.453561600E+02  3.455169511E+02  3.300000131E-01  0.00000E+00  9.000E+00
</event>
<event>
      5  10001  3.52971E+09  1.04838E+01 -1.00000E+00  1.93410E-01
      21    -1     0     0   511   512  0.000000000E+00  0.000000000E+00  3.927997589E+00  3.927997589E+00  0.000000000E+00  0.00000E+00  9.000E+00
      21    -1     0     0   516   514  0.000000000E+00  0.000000000E+00 -2.067270300E+02  2.067270300E+02  0.000000000E+00  0.00000E+00  9.000E+00
      21     1     1     2   511   514  9.023903592E+00  4.930404855E+00 -1.922490059E+02  1.925238167E+02  2.697398305E-06  0.00000E+00  9.000E+00
      21     1     1     2   516   513 -8.127727546E+00  1.369444896E+00 -7.177820413E+00  1.092961300E+01  2.795705652E-07  0.00000E+00  9.000E+00
      21     1     1     2   513   512 -8.961760459E-01 -6.299849750E+00 -3.372206122E+00  7.201597913E+00  3.125693942E-07  0.00000E+00  9.000E+00
</event>
<event>
      5  10001  3.52971E+09  6.11537E+00 -1.00000E+00  2.24189E-01
       3    -1     0     0   513     0  0.000000000E+00  0.000000000E+00  1.548886152E+02  1.548886152E+02  0.000000000E+00  0.00000E+00  9.000E+00
       2    -1     0     0   511     0  0.000000000E+00  0.000000000E+00 -9.767093407E+00  9.767093407E+00  0.000000000E+00  0.00000E+00  9.000E+00
       2     1     1     2   514     0 -3.501404004E+00  1.156187356E+01 -4.362521342E+00  1.284823889E+01  3.300000131E-01  0.00000E+00  9.000E+00
       3     1     1     2   511     0  8.075290029E+00 -9.881834958E+00  1.436042441E+02  1.441710438E+02  5.000000000E-01  0.00000E+00  9.000E+00
      21     1     1     2   513   514 -4.573886025E+00 -1.680038602E+00  5.879799126E+00  7.636425920E+00  1.460009660E-07  0.00000E+00  9.000E+00
</event>
<event>
      5  10001  3.52971E+09  6.55898E+00 -1.00000E+00  2.19621E-01
      21    -1     0     0   512   511  0.000000000E+00  0.000000000E+00  2.755929497E+00  2.755929497E+00  0.000000000E+00  0.00000E+00  9.000E+00
      21    -1     0     0   515   514  0.000000000E+00  0.000000000E+00 -7.327211236E+01  7.327211236E+01  0.000000000E+00  0.00000E+00  9.000E+00
      21     1     1     2   512   514  9.880283126E+00  6.368308874E+00 -1.556365925E+01  1.950391863E+01  2.920019320E-07  0.00000E+00  9.000E+00
      21     1     1     2   515   516 -5.927578815E+00 -3.449990694E+00 -1.828619006E+01  1.953006332E+01  3.371747881E-07  0.00000E+00  9.000E+00
      21     1     1     2   516   511 -3.952704311E+00 -2.918318179E+00 -3.666633355E+01  3.699405990E+01  4.768371582E-07  0.00000E+00  9.000E+00
</event>
<event>
      5  10001  3.52971E+09  4.41169E+00 -1.00000E+00  2.53825E-01
      21    -1     0     0   513   514  0.000000000E+00  0.000000000E+00  1.881468199E+02  1.881468199E+02  0.000000000E+00  0.00000E+00  9.000E+00
      21    -1     0     0   517   511  0.000000000E+00  0.000000000E+00 -2.723270038E+00  2.723270038E+00  0.000000000E+00  0.00000E+00  9.000E+00
      21     1     1     2   513   511  8.268804369E+00 -7.595047064E+00  9.926003268E+00  1.498610712E+01  3.953724850E-07  0.00000E+00  9.000E+00
      21     1     1     2   512   514 -1.971189721E+00  1.476795032E+00  6.126689358E+01  6.131638249E+01  1.168007728E-06  0.00000E+00  9.000E+00
      21     1     1     2   517   512 -6.297614648E+00  6.118252033E+00  1.142306531E+02  1.145676004E+02  1.348699152E-06  0.00000E+00  9.000E+00
</event>
<event>
      5  10001  3.52971E+09  7.94394E+00 -1.00000E+00  2.08065E-01
      21    -1     0     0   515   514  0.000000000E+00  0.000000000E+00  1.453342607E+02  1.453342607E+02  0.000000000E+00  0.00000E+00  9.000E+00
      21    -1     0     0   516   515  0.000000000E+00  0.000000000E+00 -1.779025999E+00  1.779025999E+00  0.000000000E+00  0.00000E+00  9.000E+00
      21     1     1     2   512   514 -3.215220367E+00 -8.377352245E+00  1.113796034E+02  1.117404749E+02  1.348699152E-06  0.00000E+00  9.000E+00
      21     1     1     2   516   511  3.264581876E+00  2.676798193E+00  2.014594614E+00  4.677748909E+00  2.598106231E-07  0.00000E+00  9.000E+00
      21     1     1     2   511   512 -4.936150876E-02  5.700554052E+00  3.016103664E+01  3.069506286E+01  3.371747881E-07  0.00000E+00  9.000E+00
</event>
<event>
      5  10001  3.52971E+09  4.17970E+00 -1.00000E+00  2.59045E-01
       1    -1     0     0   513     0  0.000000000E+00  0.000000000E+00  8.506526827E+02  8.506526827E+02  0.000000000E+00  0.00000E+00  9.000E+00
      -4    -1     0     0     0   511  0.000000000E+00  0.000000000E+00 -2.812131634E-01  2.812131634E-01  0.000000000E+00  0.00000E+00  9.000E+00
      -4     1     1     2     0   512  7.520573207E+00  4.892759534E+00  1.405291953E+02  1.408233036E+02  1.500000000E+00  0.00000E+00  9.000E+00
       1     1     1     2   512     0 -9.682511527E+00 -8.452453945E+00  3.371673840E+02  3.374124313E+02  3.300000131E-01  0.00000E+00  9.000E+00
      21     1     1     2   513   511  2.161938320E+00  3.559694411E+00  3.726748902E+02  3.726981610E+02  0.000000000E+00  0.00000E+00  9.000E+00
</event>
<event>
      5  10001  3.52971E+09  3.38898E+00 -1.00000E+00  2.81664E-01
      21    -1     0     0   512   511  0.000000000E+00  0.000000000E+00  4.173974122E+00  4.173974122E+00  0.000000000E+00  0.00000E+00  9.000E+00
      21    -1     0     0   516   515  0.000000000E+00  0.000000000E+00 -3.214409871E+02  3.214409871E+02  0.000000000E+00  0.00000E+00  9.000E+00
      21     1     1     2   514   515 -8.460587057E+00 -8.532055475E+00 -2.773426509E+02  2.776028161E+02  3.814697266E-06  0.00000E+00  9.000E+00
      21     1     1     2   516   511  8.871096624E+00  5.168025848E+00 -4.252091185E+01  4.374280273E+01  1.430511475E-06  0.00000E+00  9.000E+00
      21     1     1     2   512   514 -4.105095668E-01  3.364029627E+00  2.596549785E+00  4.269342364E+00  4.097141947E-07  0.00000E+00  9.000E+00
</event>
<event>
      5  10001  3.52971E+09  5.72351E+00 -1.00000E+00  2.28695E-01
      21    -1     0     0   513   515  0.000000000E+00  0.000000000E+00  5.535909707E+00  5.535909707E+00  0.000000000E+00  0.00000E+00  9.000E+00
       2    -1     0     0   512     0  0.000000000E+00  0.000000000E+00 -2.082137710E+02  2.082137710E+02  0.000000000E+00  0.00000E+00  9.000E+00
      21     1     1     2   512   511  1.368622748E+01  3.955796373E+00 -1.170896656E+01  1.844074417E+01  4.460403188E-07  0.00000E+00  9.000E+00
       2     1     1     2   513     0 -1.176422040E+01 -9.346788197E+00 -1.884625567E+02  1.890608460E+02  3.300000131E-01  0.00000E+00  9.000E+00
      21     1     1     2   511   515 -1.922007080E+00  5.390991824E+00 -2.506337990E+00  6.248090443E+00  4.214684851E-08  0.00000E+00  9.000E+00
</event>
<event>
      5  10001  3.52971E+09  7.78479E+00 -1.00000E+00  2.09226E-01
      21    -1     0     0   514   512  0.000000000E+00  0.000000000E+00  3.797289625E+01  3.797289625E+01  0.000000000E+00  0.00000E+00  9.000E+00
      21    -1     0     0   511   515  0.000000000E+00  0.000000000E+00 -1.738288638E+01  1.738288638E+01  0.000000000E+00  0.00000E+00  9.000E+00
      21     1     1     2   514   515 -1.094791303E+01  1.878219293E+00  3.408246120E+01  3.584687809E+01  6.743495762E-07  0.00000E+00  9.000E+00
      21     1     1     2   513   512  6.955571090E+00 -5.211823901E+00 -6.814577687E+00  1.104452564E+01  4.915124924E-07  0.00000E+00  9.000E+00
      21     1     1     2   511   513  3.992341936E+00  3.333604608E+00 -6.677873646E+00  8.464378905E+00  3.153981341E-07  0.00000E+00  9.000E+00
</event>
<event>
      5  10001  3.52971E+09  4.89481E+00 -1.00000E+00  2.44381E-01
      21    -1     0     0   516   513  0.000000000E+00  0.000000000E+00  3.085449113E+01  3.085449113E+01  0.000000000E+00  0.00000E+00  9.000E+00
      21    -1     0     0   511   517  0.000000000E+00  0.000000000E+00 -5.528298771E+01  5.528298771E+01  0.000000000E+00  0.00000E+00  9.000E+00
      21     1     1     2   516   517  2.293842110E+00  1.031441568E+01  2.916368355E+01  3.101885428E+01  4.768371582E-07  0.00000E+00  9.000E+00
      21     1     1     2   512   513 -1.951808422E-01 -4.262825308E+00 -3.833099580E+01  3.856779763E+01  6.743495762E-07  0.00000E+00  9.000E+00
      21     1     1     2   511   512 -2.098661268E+00 -6.051590368E+00 -1.526118433E+01  1.655082693E+01  2.384185791E-07  0.00000E+00  9.000E+00
</event>
<event>
      5  10001  3.52971E+09  7.39227E+00 -1.00000E+00  2.12255E-01
      21    -1     0     0   514   512  0.000000000E+00  0.000000000E+00  7.037352150E+01  7.037352150E+01  0.000000000E+00  0.00000E+00  9.000E+00
       2    -1     0     0   513     0  0.000000000E+00  0.000000000E+00 -1.510964236E+03  1.510964236E+03  0.000000000E+00  0.00000E+00  9.000E+00
      21     1     1     2   513   512  1.431269135E+01 -5.449110976E+00 -5.904502666E+01  6.099886160E+01  2.523185073E-06  0.00000E+00  9.000E+00
       2     1     1     2   511     0 -7.209677121E+00  7.496759228E+00 -1.450726718E+03  1.450764040E+03  3.300000131E-01  0.00000E+00  9.000E+00
      21     1     1     2   514   511 -7.103014232E+00 -2.047648252E+00  6.918102998E+01  6.957485597E+01  2.132480600E-06  0.00000E+00  9.000E+00
</event>
<event>
      5  10001  3.52971E+09  6.86625E+00 -1.00000E+00  2.16739E-01
      -2    -1     0     0     0   515  0.000000000E+00  0.000000000E+00  4.972728713E+01  4.972728713E+01  0.000000000E+00  0.00000E+00  9.000E+00
      21    -1     0     0   514   511  0.000000000E+00  0.000000000E+00 -5.504362255E+00  5.504362255E+00  0.000000000E+00  0.00000E+00  9.000E+00
      21     1     1     2   512   511  4.117801087E+00  1.928108093E+00  9.932154690E+00  1.092344192E+01  1.192092896E-07  0.00000E+00  9.000E+00
      21     1     1     2   514   515 -1.081285862E+01 -3.077018933E+00  2.137496954E+00  1.144355060E+01  1.074538015E-07  0.00000E+00  9.000E+00
      -2     1     1     2     0   512  6.695057532E+00  1.148910841E+00  3.215327323E+01  3.286465686E+01  3.300000131E-01  0.00000E+00  9.000E+00
</event>
<event>
      5  10001  3.52971E+09  8.66990E+00 -1.00000E+00  2.03202E-01
      -1    -1     0     0     0   512  0.000000000E+00  0.000000000E+00  1.249163270E+01  1.249163270E+01  0.000000000E+00  0.00000E+00  9.000E+00
      21    -1     0     0   512   513  0.000000000E+00  0.000000000E+00 -2.981158928E+02  2.981158928E+02  0.000000000E+00  0.00000E+00  9.000E+00
      -1     1     1     2     0   511  4.598303081E+00  3.689688587E+00  8.252657997E+00  1.014758381E+01  3.300000131E-01  0.00000E+00  9.000E+00
      21     1     1     2   515   513 -1.263763722E+01  3.186955452E-01 -2.906347651E+02  2.909095704E+02  0.000000000E+00  0.00000E+00  9.000E+00
      21     1     1     2   511   515  8.039334136E+00 -4.008384132E+00 -3.242153010E+00  9.550371346E+00  4.380028980E-07  0.00000E+00  9.000E+00
</event>
<event>
      5  10001  3.52971E+09  1.12555E+01 -1.00000E+00  1.89997E-01
      21    -1     0     0   514   512  0.000000000E+00  0.000000000E+00  2.655196656E+01  2.655196656E+01  0.000000000E+00  0.00000E+00  9.000E+00
      21    -1     0     0   511   516  0.000000000E+00  0.000000000E+00 -1.919928686E+01  1.919928686E+01  0.000000000E+00  0.00000E+00  9.000E+00
      21     1     1     2   514   516 -4.060151260E+00  1.264606476E+01  1.972581611E+01  2.378057197E+01  5.331201500E-07  0.00000E+00  9.000E+00
      21     1     1     2   513   512  7.703426285E+00 -4.332999698E+00 -7.888721526E+00  1.184692324E+01  3.153981341E-07  0.00000E+00  9.000E+00
      21     1     1     2   511   513 -3.643275025E+00 -8.313065061E+00 -4.484414881E+00  1.012375822E+01  2.457562462E-07  0.00000E+00  9.000E+00
</event>
<event>
      5  10001  3.52971E+09  6.90818E+00 -1.00000E+00  2.16362E-01
      21    -1     0     0   515   513  0.000000000E+00  0.000000000E+00  2.205768151E+00  2.205768151E+00  0.000000000E+00  0.00000E+00  9.000E+00
      21    -1     0     0   511   517  0.000000000E+00  0.000000000E+00 -5.783152906E+01  5.783152906E+01  0.000000000E+00  0.00000E+00  9.000E+00
      21     1     1     2   515   517 -8.472441900E+00  1.740351046E+00 -1.637537740E+01  1.851928936E+01  3.371747881E-07  0.00000E+00  9.000E+00
      21     1     1     2   512   513  7.153178047E+00 -5.674084676E+00 -3.043495000E+01  3.177498032E+01  3.371747881E-07  0.00000E+00  9.000E+00
      21     1     1     2   511   512  1.319263853E+00  3.933733630E+00 -8.815433508E+00  9.743027524E+00  0.000000000E+00  0.00000E+00  9.000E+00
</event>
<event>
      5  10001  3.52971E+09  7.82484E+00 -1.00000E+00  2.08930E-01
       1    -1     0     0   515     0  0.000000000E+00  0.000000000E+00  3.583004021E+01  3.583004021E+01  0.000000000E+00  0.00000E+00  9.000E+00
      21    -1     0     0   513   515  0.000000000E+00  0.000000000E+00 -5.980064917E+01  5.980064917E+01  0.000000000E+00  0.00000E+00  9.000E+00
      21     1     1     2   512   514  1.900554840E+01 -4.668552785E+00 -2.920198185E+01  3.515340665E+01  7.539457465E-07  0.00000E+00  9.000E+00
       1     1     1     2   514     0 -1.582436786E+01 -2.480329584E+00  3.026794158E+01  3.424645734E+01  3.300000131E-01  0.00000E+00  9.000E+00
      21     1     1     2   513   512 -3.181180539E+00  7.148882368E+00 -2.503656869E+01  2.623082539E+01  0.000000000E+00  0.00000E+00  9.000E+00
</event>
<event>
      5  10001  3.52971E+09  8.54205E+00 -1.00000E+00  2.04011E-01
      -1    -1     0     0     0   514  0.000000000E+00  0.000000000E+00  2.950399370E+02  2.950399370E+02  0.000000000E+00  0.00000E+00  9.000E+00
      21    -1     0     0   513   512  0.000000000E+00  0.000000000E+00 -5.057502162E+02  5.057502162E+02  0.000000000E+00  0.00000E+00  9.000E+00
      21     1     1     2   511   512  9.244817049E+00 -1.081328960E+01 -4.816587425E+02  4.818687976E+02  5.394796609E-06  0.00000E+00  9.000E+00
      21     1     1     2   513   514 -1.037186959E+00  8.446552879E+00 -2.316758404E+01  2.468110538E+01  1.168007728E-06  0.00000E+00  9.000E+00
      -1     1     1     2     0   511 -8.207630090E+00  2.366736718E+00  2.941160474E+02  2.942402503E+02  3.300000131E-01  0.00000E+00  9.000E+00
</event>
<event>
      5  10001  3.52971E+09  3.82396E+01 -1.00000E+00  1.46060E-01
      21    -1     0     0   515   512  0.000000000E+00  0.000000000E+00  1.609630340E+01  1.609630340E+01  0.000000000E+00  0.00000E+00  9.000E+00
      21    -1     0     0   516   511  0.000000000E+00  0.000000000E+00 -1.122478890E+02  1.122478890E+02  0.000000000E+00  0.00000E+00  9.000E+00
      21     1     1     2   515   511  2.854182937E+00  2.218833218E+01 -5.887634626E+01  6.298327234E+01  0.000000000E+00  0.00000E+00  9.000E+00
      21     1     1     2   516   513 -2.043033160E+01 -2.767677092E+01 -2.970998741E+01  4.545421267E+01  3.371747881E-07  0.00000E+00  9.000E+00
      21     1     1     2   513   512  1.757614866E+01  5.488438733E+00 -7.565251897E+00  1.990670735E+01  3.674277069E-07  0.00000E+00  9.000E+00
</event>
<event>
      5  10001  3.52971E+09  1.90410E+01 -1.00000E+00  1.68146E-01
      21    -1     0     0   514   511  0.000000000E+00  0.000000000E+00  8.456968796E+01  8.456968796E+01  0.000000000E+00  0.00000E+00  9.000E+00
      21    -1     0     0   512   514  0.000000000E+00  0.000000000E+00 -1.890758270E+01  1.890758270E+01  0.000000000E+00  0.00000E+00  9.000E+00
      21     1     1     2   512   517 -4.200341202E+00 -8.393451330E+00 -1.367942225E+01  1.658974034E+01  4.768371582E-07  0.00000E+00  9.000E+00
      21     1     1     2   517   515 -2.526282542E+00  1.736164315E+01  7.038447697E+01  7.253815103E+01  1.348699152E-06  0.00000E+00  9.000E+00
      21     1     1     2   515   511  6.726623744E+00 -8.968191818E+00  8.957050541E+00  1.434937929E+01  1.192092896E-07  0.00000E+00  9.000E+00
</event>
<event>
      5  10001  3.52971E+09  7.44576E+00 -1.00000E+00  2.11827E-01
       2    -1     0     0   513     0  0.000000000E+00  0.000000000E+00  6.012553008E+02  6.012553008E+02  0.000000000E+00  0.00000E+00  9.000E+00
      -1    -1     0     0     0   513  0.000000000E+00  0.000000000E+00 -4.882369436E-01  4.882369436E-01  0.000000000E+00  0.00000E+00  9.000E+00
      -1     1     1     2     0   512 -1.634244305E+00 -1.392323565E+01  2.831013543E+02  2.834484308E+02  3.300000131E-01  0.00000E+00  9.000E+00
       2     1     1     2   511     0 -2.089386938E+00  1.469249253E+01  2.886364457E+02  2.890178915E+02  3.300000131E-01  0.00000E+00  9.000E+00
      21     1     1     2   512   511  3.723631242E+00 -7.692568867E-01  2.902926384E+01  2.927721546E+01  6.743495762E-07  0.00000E+00  9.000E+00
</event>
<event>
      5  10001  3.52971E+09  4.04113E+00 -1.00000E+00  2.62419E-01
      21    -1     0     0   514   516  0.000000000E+00  0.000000000E+00  1.436692202E+02  1.436692202E+02  0.000000000E+00  0.00000E+00  9.000E+00
      -2    -1     0     0     0   514  0.000000000E+00  0.000000000E+00 -1.494898875E+02  1.494898875E+02  0.000000000E+00  0.00000E+00  9.000E+00
      21     1     1     2   511   516 -9.281826968E+00  4.084751680E+00  1.129910895E+02  1.134452458E+02  1.907348633E-06  0.00000E+00  9.000E+00
      21     1     1     2   515   511  1.240601225E+01 -6.647990980E+00  2.879530499E+01  3.205112343E+01  5.840038640E-07  0.00000E+00  9.000E+00
      -2     1     1     2     0   515 -3.124185279E+00  2.563239300E+00 -1.476070618E+02  1.476627384E+02  3.300000131E-01  0.00000E+00  9.000E+00
</event>
<event>
      5  10001  3.52971E+09  5.49623E+00 -1.00000E+00  2.31548E-01
      -4    -1     0     0     0   515  0.000000000E+00  0.000000000E+00  3.588368967E+02  3.588368967E+02  0.000000000E+00  0.00000E+00  9.000E+00
      21    -1     0     0   516   513  0.000000000E+00  0.000000000E+00 -1.358860880E+00  1.358860880E+00  0.000000000E+00  0.00000E+00  9.000E+00
      21     1     1     2   512   513  4.876226207E+00  7.214657095E+00  8.871623271E+01  8.914257572E+01  9.536743164E-07  0.00000E+00  9.000E+00
      21     1     1     2   516   515 -7.471098246E+00 -1.204871740E+01  4.417099596E+01  4.639036305E+01  8.259061849E-07  0.00000E+00  9.000E+00
      -4     1     1     2     0   512  2.594872038E+00  4.834060306E+00  2.245908071E+02  2.246628188E+02  1.500000000E+00  0.00000E+00  9.000E+00
</event>
<event>
      5  10001  3.52971E+09  8.81396E+00 -1.00000E+00  2.02312E-01
      21    -1     0     0   511   513  0.000000000E+00  0.000000000E+00  3.610263096E+00  3.610263096E+00  0.000000000E+00  0.00000E+00  9.000E+00
      21    -1     0     0   514   511  0.000000000E+00  0.000000000E+00 -1.564117133E+02  1.564117133E+02  0.000000000E+00  0.00000E+00  9.000E+00
      21     1     1     2   514   512 -1.504026161E+00  1.109794011E+01 -1.434736088E+02  1.439100510E+02  2.697398305E-06  0.00000E+00  9.000E+00
      21     1     1     2   512   515 -1.096078874E+00 -6.654866437E+00 -8.574403828E+00  1.090912633E+01  1.685873940E-07  0.00000E+00  9.000E+00
      21     1     1     2   515   513  2.600105036E+00 -4.443073676E+00 -7.534376170E-01  5.202799067E+00  7.146345859E-08  0.00000E+00  9.000E+00
</event>
<event>
      5  10001  3.52971E+09  5.52692E+00 -1.00000E+00  2.31151E-01
      21    -1     0     0   516   512  0.000000000E+00  0.000000000E+00  3.012155232E+01  3.012155232E+01  0.000000000E+00  0.00000E+00  9.000E+00
      21    -1     0     0   511   513  0.000000000E+00  0.000000000E+00 -2.311934306E+01  2.311934306E+01  0.000000000E+00  0.00000E+00  9.000E+00
      21     1     1     2   516   513  1.378714678E+01  7.290466896E+00  2.390340147E+01  2.854135466E+01  5.840038640E-07  0.00000E+00  9.000E+00
      21     1     1     2   514   512 -8.375520851E+00 -6.167451177E+00 -1.602346656E+01  1.910335793E+01  4.129530925E-07  0.00000E+00  9.000E+00
      21     1     1     2   511   514 -5.411625926E+00 -1.123015719E+00 -8.777256625E-01  5.596182789E+00  9.185692672E-08  0.00000E+00  9.000E+00
</event>
<event>
      5  10001  3.52971E+09  2.04369E+01 -1.00000E+00  1.65595E-01
      21    -1     0     0   515   513  0.000000000E+00  0.000000000E+00  4.621592364E+00  4.621592364E+00  0.000000000E+00  0.00000E+00  9.000E+00
      21    -1     0     0   511   517  0.000000000E+00  0.000000000E+00 -2.659293972E+01  2.659293972E+01  0.000000000E+00  0.00000E+00  9.000E+00
      21     1     1     2   515   517  1.013220599E+00 -1.216153540E+00 -1.766034601E+00  2.371607815E+00  1.750490088E-07  0.00000E+00  9.000E+00
      21     1     1     2   511   512 -1.681962926E-02  5.931720961E-01  4.284266246E+00  4.325167430E+00  2.384185791E-07  0.00000E+00  9.000E+00
      21     1     1     2   512   513 -9.964009694E-01  6.229814441E-01 -2.448957900E+01  2.451775684E+01  0.000000000E+00  0.00000E+00  9.000E+00
</event>
<event>
      5  10001  3.52971E+09  1.88639E+01 -1.00000E+00  1.68489E-01
      21    -1     0     0   514   511  0.000000000E+00  0.000000000E+00  1.085097861E+00  1.085097861E+00  0.000000000E+00  0.00000E+00  9.000E+00
      21    -1     0     0   516   513  0.000000000E+00  0.000000000E+00 -2.760405481E+02  2.760405481E+02  0.000000000E+00  0.00000E+00  9.000E+00
      21     1     1     2   514   513 -6.041531780E+00 -1.022303273E+01 -1.525603177E+02  1.530217666E+02  2.697398305E-06  0.00000E+00  9.000E+00
      21     1     1     2   515   511  8.948576323E+00  1.915574232E+00 -9.217471503E+01  9.262788205E+01  1.348699152E-06  0.00000E+00  9.000E+00
      21     1     1     2   516   515 -2.907044543E+00  8.307458493E+00 -3.022041751E+01  3.147599735E+01  3.371747881E-07  0.00000E+00  9.000E+00
</event>
<event>
      5  10001  3.52971E+09  7.84527E+00 -1.00000E+00  2.08780E-01
      -5    -1     0     0     0   512  0.000000000E+00  0.000000000E+00  2.373252721E+00  2.373252721E+00  0.000000000E+00  0.00000E+00  9.000E+00
      21    -1     0     0   511   514  0.000000000E+00  0.000000000E+00 -9.998271200E+01  9.998271200E+01  0.000000000E+00  0.00000E+00  9.000E+00
      21     1     1     2   513   514  3.874483641E+00  3.261150121E+00 -7.847383742E+01  7.863707702E+01  1.651812370E-06  0.00000E+00  9.000E+00
      21     1     1     2   511   512 -4.362166129E+00 -6.503517210E+00 -8.227301327E+00  1.135837649E+01  3.153981341E-07  0.00000E+00  9.000E+00
      -5     1     1     2     0   513  4.876824876E-01  3.242367089E+00 -1.090832053E+01  1.236051120E+01  4.800000191E+00  0.00000E+00  9.000E+00
</event>
<event>
      5  10001  3.52971E+09  8.68272E+00 -1.00000E+00  2.03122E-01
      21    -1     0     0   515   511  0.000000000E+00  0.000000000E+00  3.980579924E-01  3.980579924E-01  0.000000000E+00  0.00000E+00  9.000E+00
       1    -1     0     0   512     0  0.000000000E+00  0.000000000E+00 -1.770462185E+03  1.770462185E+03  0.000000000E+00  0.00000E+00  9.000E+00
      21     1     1     2   512   514  1.307178939E+01  6.915365502E+00 -1.859194261E+02  1.865066405E+02  4.672030912E-06  0.00000E+00  9.000E+00
       1     1     1     2   515     0 -8.900081323E+00 -1.130420749E+01 -1.450917706E+03  1.450989075E+03  3.300000131E-01  0.00000E+00  9.000E+00
      21     1     1     2   514   511 -4.171708066E+00  4.388841991E+00 -1.332269952E+02  1.333645281E+02  0.000000000E+00  0.00000E+00  9.000E+00
</event>
<event>
      5  10001  3.52971E+09  7.15458E+00 -1.00000E+00  2.14216E-01
      21    -1     0     0   513   511  0.000000000E+00  0.000000000E+00  4.410537324E+00  4.410537324E+00  0.000000000E+00  0.00000E+00  9.000E+00
       1    -1     0     0   514     0  0.000000000E+00  0.000000000E+00 -5.241023932E+02  5.241023932E+02  0.000000000E+00  0.00000E+00  9.000E+00
      21     1     1     2   512   511 -2.331127326E+01 -4.247586612E+00 -4.876843411E+01  5.422008501E+01  9.536743164E-07  0.00000E+00  9.000E+00
       1     1     1     2   513     0  2.853057166E+01  1.009468007E+00 -4.646035360E+02  4.654799321E+02  3.300000131E-01  0.00000E+00  9.000E+00
      21     1     1     2   514   512 -5.219298403E+00  3.238118605E+00 -6.319885699E+00  8.812913432E+00  3.475518164E-07  0.00000E+00  9.000E+00
</event>
<event>
      5  10001  3.52971E+09  6.37823E+00 -1.00000E+00  2.21420E-01
       2    -1     0     0   515     0  0.000000000E+00  0.000000000E+00  1.639527001E+02  1.639527001E+02  0.000000000E+00  0.00000E+00  9.000E+00
      21    -1     0     0   511   512  0.000000000E+00  0.000000000E+00 -6.508346773E+00  6.508346773E+00  0.000000000E+00  0.00000E+00  9.000E+00
      21     1     1     2   515   512 -1.631253747E+01 -8.055086320E+00  1.247301917E+01  2.205809378E+01  6.078504936E-07  0.00000E+00  9.000E+00
      21     1     1     2   511   514  1.496732078E+01  1.820571227E+00  3.336039214E+01  3.660943778E+01  8.259061849E-07  0.00000E+00  9.000E+00
       2     1     1     2   514     0  1.345216687E+00  6.234515093E+00  1.116109420E+02  1.117935153E+02  3.300000131E-01  0.00000E+00  9.000E+00
</event>
<event>
      5  10001  3.52971E+09  7.66042E+00 -1.00000E+00  2.10159E-01
      21    -1     0     0   513   514  0.000000000E+00  0.000000000E+00  3.859851437E+02  3.859851437E+02  0.000000000E+00  0.00000E+00  9.000E+00
      21    -1     0     0   516   513  0.000000000E+00  0.000000000E+00 -4.634589494E-01  4.634589494E-01  0.000000000E+00  0.00000E+00  9.000E+00
      21     1     1     2   511   514  3.097337703E+00  9.258456258E+00  2.369674584E+02  2.371684820E+02  5.394796609E-06  0.00000E+00  9.000E+00
      -5     1     1     2     0   511 -7.349172782E-01 -3.044025906E+00  8.599580614E+01  8.618657014E+01  4.800000191E+00  0.00000E+00  9.000E+00
       5     1     1     2   516     0 -2.362420425E+00 -6.214430352E+00  6.255842024E+01  6.309355054E+01  4.800000191E+00  0.00000E+00  9.000E+00
</event>
<event>
      5  10001  3.52971E+09  1.06713E+01 -1.00000E+00  1.92547E-01
       2    -1     0     0   511     0  0.000000000E+00  0.000000000E+00  1.266338021E+00  1.266338021E+00  0.000000000E+00  0.00000E+00  9.000E+00
      21    -1     0     0   515   511  0.000000000E+00  0.000000000E+00 -9.452509947E+01  9.452509947E+01  0.000000000E+00  0.00000E+00  9.000E+00
      21     1     1     2   515   512  7.146739375E+00  5.237018138E+00 -4.799726939E+01  4.880819717E+01  6.743495762E-07  0.00000E+00  9.000E+00
      21     1     1     2   512   513 -2.056207059E-01 -5.222398717E+00 -2.564901303E+01  2.617608828E+01  4.768371582E-07  0.00000E+00  9.000E+00
       2     1     1     2   513     0 -6.941118669E+00 -1.461942076E-02 -1.961247903E+01  2.080715203E+01  3.300000131E-01  0.00000E+00  9.000E+00
</event>
<event>
      5  10001  3.52971E+09  1.35737E+01 -1.00000E+00  1.81567E-01
       1    -1     0     0   511     0  0.000000000E+00  0.000000000E+00  9.088464494E+02  9.088464494E+02  0.000000000E+00  0.00000E+00  9.000E+00
      21    -1     0     0   512   511  0.000000000E+00  0.000000000E+00 -1.877234699E-01  1.877234699E-01  0.000000000E+00  0.00000E+00  9.000E+00
      21     1     1     2   512   513 -4.936103069E-01 -6.717864591E+00  1.122362142E+02  1.124381658E+02  2.697398305E-06  0.00000E+00  9.000E+00
      21     1     1     2   513   514 -4.954816164E+00  8.360952961E+00  3.429942061E+02  3.431318714E+02  7.629394531E-06  0.00000E+00  9.000E+00
       1     1     1     2   514     0  5.448426470E+00 -1.643088369E+00  4.534283056E+02  4.534641357E+02  3.300000131E-01  0.00000E+00  9.000E+00
</event>
<event>
      5  10001  3.52971E+09  1.42427E+01 -1.00000E+00  1.79526E-01
      21    -1     0     0   511   512  0.000000000E+00  0.000000000E+00  1.227689168E+02  1.227689168E+02  0.000000000E+00  0.00000E+00  9.000E+00
      21    -1     0     0   516   515  0.000000000E+00  0.000000000E+00 -2.656725642E+01  2.656725642E+01  0.000000000E+00  0.00000E+00  9.000E+00
      21     1     1     2   517   512  1.621904192E+01 -8.988960561E+00  4.525980225E+01  4.891123013E+01  6.743495762E-07  0.00000E+00  9.000E+00
      21     1     1     2   516   517 -1.403242037E+01  2.306276426E+01 -1.640405856E+01  3.158944529E+01  9.233911863E-07  0.00000E+00  9.000E+00
      21     1     1     2   511   515 -2.186621553E+00 -1.407380370E+01  6.734591671E+01  6.883549783E+01  9.536743164E-07  0.00000E+00  9.000E+00
</event>
<event>
      5  10001  3.52971E+09  1.26988E+01 -1.00000E+00  1.84476E-01
      21    -1     0     0   513   515  0.000000000E+00  0.000000000E+00  1.158028412E+02  1.158028412E+02  0.000000000E+00  0.00000E+00  9.000E+00
      21    -1     0     0   512   514  0.000000000E+00  0.000000000E+00 -2.644174059E+01  2.644174059E+01  0.000000000E+00  0.00000E+00  9.000E+00
      21     1     1     2   513   514 -6.452511659E+00 -2.283730623E+01 -1.884439492E+01  3.030327841E+01  4.129530925E-07  0.00000E+00  9.000E+00
      21     1     1     2   516   515  1.145396115E+01  1.601962134E+01  6.506427473E+01  6.797927140E+01  1.348699152E-06  0.00000E+00  9.000E+00
      21     1     1     2   512   516 -5.001449492E+00  6.817684883E+00  4.314122084E+01  4.396203202E+01  8.259061849E-07  0.00000E+00  9.000E+00
</event>
<event>
      5  10001  3.52971E+09  7.40753E+00 -1.00000E+00  2.12132E-01
      21    -1     0     0   511   514  0.000000000E+00  0.000000000E+00  1.387653912E+02  1.387653912E+02  0.000000000E+00  0.00000E+00  9.000E+00
      21    -1     0     0   512   517  0.000000000E+00  0.000000000E+00 -1.928699607E+01  1.928699607E+01  0.000000000E+00  0.00000E+00  9.000E+00
      21     1     1     2   511   517  5.312664597E+00 -8.935319946E+00 -1.760273133E+01  2.044310392E+01  2.384185791E-07  0.00000E+00  9.000E+00
      21     1     1     2   513   514 -3.379348987E+00  6.230731088E+00  5.420201565E+01  5.466352083E+01  0.000000000E+00  0.00000E+00  9.000E+00
      21     1     1     2   512   513 -1.933315610E+00  2.704588858E+00  8.287911081E+01  8.294576251E+01  0.000000000E+00  0.00000E+00  9.000E+00
</event>
<event>
      5  10001  3.52971E+09  4.44427E+00 -1.00000E+00  2.53131E-01
      -2    -1     0     0     0   513  0.000000000E+00  0.000000000E+00  3.749517479E+01  3.749517479E+01  0.000000000E+00  0.00000E+00  9.000E+00
       2    -1     0     0   514     0  0.000000000E+00  0.000000000E+00 -2.464746222E+01  2.464746222E+01  0.000000000E+00  0.00000E+00  9.000E+00
      21     1     1     2   514   513  8.412041358E+00 -8.780011014E+00 -1.758648185E+01  2.138072443E+01  3.371747881E-07  0.00000E+00  9.000E+00
       2     1     1     2   512     0 -4.001931514E+00  8.234662317E+00 -8.139729520E-01  9.197639441E+00  3.300000131E-01  0.00000E+00  9.000E+00
      -2     1     1     2     0   512 -4.410109844E+00  5.453486973E-01  3.124816738E+01  3.156427314E+01  3.300000131E-01  0.00000E+00  9.000E+00
</event>
<event>
      5  10001  3.52971E+09  4.53171E+00 -1.00000E+00  2.51312E-01
      -3    -1     0     0     0   513  0.000000000E+00  0.000000000E+00  1.501249239E+02  1.501249239E+02  0.000000000E+00  0.00000E+00  9.000E+00
       1    -1     0     0   513     0  0.000000000E+00  0.000000000E+00 -3.296242508E+02  3.296242508E+02  0.000000000E+00  0.00000E+00  9.000E+00
      21     1     1     2   512   511  4.692216599E+00 -8.398334063E+00  5.493931246E+01  5.577523613E+01  2.611744678E-06  0.00000E+00  9.000E+00
       1     1     1     2   511     0 -1.807602581E+00  1.189337003E+01 -3.290413889E+02  3.292613919E+02  3.300000131E-01  0.00000E+00  9.000E+00
      -3     1     1     2     0   512 -2.884614017E+00 -3.495035967E+00  9.460274959E+01  9.471254671E+01  5.000000000E-01  0.00000E+00  9.000E+00
</event>
<event>
      5  10001  3.52971E+09  2.86801E+01 -1.00000E+00  1.54407E-01
      21    -1     0     0   514   513  0.000000000E+00  0.000000000E+00  1.103523609E+02  1.103523609E+02  0.000000000E+00  0.00000E+00  9.000E+00
       1    -1     0     0   511     0  0.000000000E+00  0.000000000E+00 -5.023359560E+00  5.023359560E+00  0.000000000E+00  0.00000E+00  9.000E+00
      21     1     1     2   511   513 -6.319127585E+00 -1.617720575E+01  3.236426971E+01  3.672981505E+01  6.743495762E-07  0.00000E+00  9.000E+00
       1     1     1     2   515     0 -1.623395474E+00  6.806354402E+00  3.015981859E+00  7.626724047E+00  3.300000131E-01  0.00000E+00  9.000E+00
      21     1     1     2   514   515  7.942523060E+00  9.370851349E+00  6.994874979E+01  7.101918138E+01  0.000000000E+00  0.00000E+00  9.000E+00
</event>
<event>
      5  10001  3.52971E+09  1.25288E+01 -1.00000E+00  1.85076E-01
      21    -1     0     0   512   513  0.000000000E+00  0.000000000E+00  7.667361873E+02  7.667361873E+02  0.000000000E+00  0.00000E+00  9.000E+00
      21    -1     0     0   516   517  0.000000000E+00  0.000000000E+00 -5.919849534E+00  5.919849534E+00  0.000000000E+00  0.00000E+00  9.000E+00
      21     1     1     2   516   511 -1.123619794E+01 -2.721414232E+00  9.084809600E+01  9.158075554E+01  3.303624740E-06  0.00000E+00  9.000E+00
      21     1     1     2   511   513  1.716994416E+01 -8.313146303E+00  6.681417675E+02  6.684140460E+02  1.078959322E-05  0.00000E+00  9.000E+00
      21     1     1     2   512   517 -5.933746223E+00  1.103456054E+01  1.826474226E+00  1.266123527E+01  3.532549617E-07  0.00000E+00  9.000E+00
</event>
<event>
      5  10001  3.52971E+09  4.50255E+00 -1.00000E+00  2.51912E-01
      21    -1     0     0   514   513  0.000000000E+00  0.000000000E+00  1.077755474E+02  1.077755474E+02  0.000000000E+00  0.00000E+00  9.000E+00
      21    -1     0     0   515   514  0.000000000E+00  0.000000000E+00 -1.228222372E+00  1.228222372E+00  0.000000000E+00  0.00000E+00  9.000E+00
      21     1     1     2   517   513 -2.306838859E+00 -9.356581211E+00  6.932215739E+01  6.998877498E+01  0.000000000E+00  0.00000E+00  9.000E+00
      21     1     1     2   511   517  1.232557277E-01  6.345868619E+00  1.257692909E+01  1.408773885E+01  1.685873940E-07  0.00000E+00  9.000E+00
      21     1     1     2   515   511  2.183583132E+00  3.010712592E+00  2.464823851E+01  2.492725592E+01  4.768371582E-07  0.00000E+00  9.000E+00
</event>
<event>
      5  10001  3.52971E+09  4.91267E+00 -1.00000E+00  2.44063E-01
      21    -1     0     0   513   516  0.000000000E+00  0.000000000E+00  9.698178940E+01  9.698178940E+01  0.000000000E+00  0.00000E+00  9.000E+00
      21    -1     0     0   515   512  0.000000000E+00  0.000000000E+00 -1.103900214E+01  1.103900214E+01  0.000000000E+00  0.00000E+00  9.000E+00
      21     1     1     2   511   516  1.250139719E+01  1.260365611E+00  3.004421525E+01  3.256575384E+01  4.768371582E-07  0.00000E+00  9.000E+00
      21     1     1     2   515   511 -1.531768740E+01 -5.285642967E+00 -2.891587275E+00  1.645997709E+01  2.064765462E-07  0.00000E+00  9.000E+00
      21     1     1     2   513   512  2.816290211E+00  4.025277356E+00  5.879015928E+01  5.899506061E+01  0.000000000E+00  0.00000E+00  9.000E+00
</event>
<event>
      5  10001  3.52971E+09  7.78988E+00 -1.00000E+00  2.09188E-01
      21    -1     0     0   514   515  0.000000000E+00  0.000000000E+00  4.273316675E+02  4.273316675E+02  0.000000000E+00  0.00000E+00  9.000E+00
      21    -1     0     0   511   514  0.000000000E+00  0.000000000E+00 -2.438538161E+02  2.438538161E+02  0.000000000E+00  0.00000E+00  9.000E+00
      21     1     1     2   517   512 -7.287250579E+00 -9.044147504E+00  9.700698689E+01  9.769982666E+01  1.907348633E-06  0.00000E+00  9.000E+00
      21     1     1     2   512   515  6.610994507E-01  1.314004272E+01  3.297847589E+02  3.300470951E+02  3.814697266E-06  0.00000E+00  9.000E+00
      21     1     1     2   511   517  6.626151128E+00 -4.095895212E+00 -2.433138943E+02  2.434385619E+02  2.697398305E-06  0.00000E+00  9.000E+00
</event>
<event>
      5  10001  3.52971E+09  1.19962E+01 -1.00000E+00  1.87038E-01
      21    -1     0     0   513   515  0.000000000E+00  0.000000000E+00  9.645203882E+02  9.645203882E+02  0.000000000E+00  0.00000E+00  9.000E+00
      21    -1     0     0   512   513  0.000000000E+00  0.000000000E+00 -1.966049341E+01  1.966049341E+01  0.000000000E+00  0.00000E+00  9.000E+00
      21     1     1     2   516   515  2.695000762E+01  8.196688215E+00  9.229858093E+02  9.234155580E+02  1.078959322E-05  0.00000E+00  9.000E+00
      21     1     1     2   511   516 -1.496093620E+01 -8.611608761E+00  3.737245663E+01  4.116661186E+01  2.236564522E-06  0.00000E+00  9.000E+00
      21     1     1     2   512   511 -1.198907142E+01  4.149205454E-01 -1.549837116E+01  1.959871172E+01  1.168007728E-06  0.00000E+00  9.000E+00
</event>
<event>
      5  10001  3.52971E+09  1.25719E+01 -1.00000E+00  1.84923E-01
      21    -1     0     0   514   511  0.000000000E+00  0.000000000E+00  1.291461298E+02  1.291461298E+02  0.000000000E+00  0.00000E+00  9.000E+00
      21    -1     0     0   512   517  0.000000000E+00  0.000000000E+00 -2.143823743E+00  2.143823743E+00  0.000000000E+00  0.00000E+00  9.000E+00
      21     1     1     2   514   517  8.551623057E+00 -6.115914603E+00  1.074872929E+02  1.080002445E+02  1.907348633E-06  0.00000E+00  9.000E+00
      21     1     1     2   512   513  2.820874567E-01  3.405996258E+00  6.255833311E+00  7.128522586E+00  0.000000000E+00  0.00000E+00  9.000E+00
      21     1     1     2   513   511 -8.833710514E+00  2.709918344E+00  1.325917986E+01  1.616118651E+01  4.460403188E-07  0.00000E+00  9.000E+00
</event>
<event>
      5  10001  3.52971E+09  3.83558E+00 -1.00000E+00  2.67832E-01
       2    -1     0     0   514     0  0.000000000E+00  0.000000000E+00  1.725145137E+03  1.725145137E+03  0.000000000E+00  0.00000E+00  9.000E+00
       4    -1     0     0   512     0  0.000000000E+00  0.000000000E+00 -7.293254345E-01  7.293254345E-01  0.000000000E+00  0.00000E+00  9.000E+00
       2     1     1     2   513     0 -1.121586575E+01 -4.973296927E-01  1.620648158E+03  1.620687077E+03  3.300000131E-01  0.00000E+00  9.000E+00
       4     1     1     2   514     0  1.035590797E+01 -3.238589582E+00  4.574241604E+01  4.703564518E+01  1.500000000E+00  0.00000E+00  9.000E+00
      21     1     1     2   512   513  8.599577783E-01  3.735919274E+00  5.802523770E+01  5.815173970E+01  6.743495762E-07  0.00000E+00  9.000E+00
</event>
<event>
      5  10001  3.52971E+09  1.27042E+01 -1.00000E+00  1.84457E-01
      21    -1     0     0   511   515  0.000000000E+00  0.000000000E+00  1.909614859E+01  1.909614859E+01  0.000000000E+00  0.00000E+00  9.000E+00
      21    -1     0     0   512   513  0.000000000E+00  0.000000000E+00 -5.689209103E+00  5.689209103E+00  0.000000000E+00  0.00000E+00  9.000E+00
      21     1     1     2   511   513  5.588054872E+00 -4.325003363E+00  6.486131143E+00  9.591762536E+00  2.230201594E-07  0.00000E+00  9.000E+00
      21     1     1     2   514   515 -4.655828893E+00 -6.163374606E-01  8.677645353E+00  9.867023027E+00  0.000000000E+00  0.00000E+00  9.000E+00
      21     1     1     2   512   514 -9.322259795E-01  4.941340823E+00 -1.756837007E+00  5.326572132E+00  5.960464478E-08  0.00000E+00  9.000E+00
</event>
<event>
      5  10001  3.52971E+09  3.55588E+00 -1.00000E+00  2.76117E-01
      -2    -1     0     0     0   516  0.000000000E+00  0.000000000E+00  2.250075551E+01  2.250075551E+01  0.000000000E+00  0.00000E+00  9.000E+00
      21    -1     0     0   513   514  0.000000000E+00  0.000000000E+00 -4.718141878E+01  4.718141878E+01  0.000000000E+00  0.00000E+00  9.000E+00
      -2     1     1     2     0   514 -9.827196839E+00 -1.709268065E+00  1.708362903E+01  1.978521357E+01  3.300000131E-01  0.00000E+00  9.000E+00
      21     1     1     2   511   516  1.290128362E+01 -7.776164899E-02 -6.486376323E+00  1.444029929E+01  1.192092896E-07  0.00000E+00  9.000E+00
      21     1     1     2   513   511 -3.074086777E+00  1.787029714E+00 -3.527791597E+01  3.545666143E+01  0.000000000E+00  0.00000E+00  9.000E+00
</event>
<event>
      5  10001  3.52971E+09  2.87924E+00 -1.00000E+00  3.02378E-01
      21    -1     0     0   514   511  0.000000000E+00  0.000000000E+00  3.582877024E+01  3.582877024E+01  0.000000000E+00  0.00000E+00  9.000E+00
      21    -1     0     0   513   512  0.000000000E+00  0.000000000E+00 -1.000187060E+02  1.000187060E+02  0.000000000E+00  0.00000E+00  9.000E+00
      21     1     1     2   513   515 -1.080013798E+01 -9.844323873E-01 -9.443086493E+01  9.505156674E+01  0.000000000E+00  0.00000E+00  9.000E+00
      21     1     1     2   515   511  1.042778842E+01  3.839497688E+00  7.206198912E-01  1.113552005E+01  3.971935193E-07  0.00000E+00  9.000E+00
      21     1     1     2   514   512  3.723495597E-01 -2.855065301E+00  2.952030928E+01  2.966038945E+01  5.840038640E-07  0.00000E+00  9.000E+00
</event>
<event>
      5  10001  3.52971E+09  2.85328E+01 -1.00000E+00  1.54565E-01
       2    -1     0     0   514     0  0.000000000E+00  0.000000000E+00  1.616974171E+01  1.616974171E+01  0.000000000E+00  0.00000E+00  9.000E+00
       2    -1     0     0   511     0  0.000000000E+00  0.000000000E+00 -2.650211256E+02  2.650211256E+02  0.000000000E+00  0.00000E+00  9.000E+00
       2     1     1     2   514     0  7.976400757E+00 -1.198382504E+01 -2.601222022E+02  2.605204484E+02  3.300000131E-01  0.00000E+00  9.000E+00
      21     1     1     2   511   513 -2.931903682E+00  2.876788034E+00 -1.334055190E+00  4.318758136E+00  1.475139698E-07  0.00000E+00  9.000E+00
       2     1     1     2   513     0 -5.044497076E+00  9.107037002E+00  1.260487354E+01  1.635166079E+01  3.300000131E-01  0.00000E+00  9.000E+00
</event>
<event>
      5  10001  3.52971E+09  5.26414E+00 -1.00000E+00  2.34668E-01
      21    -1     0     0   514   511  0.000000000E+00  0.000000000E+00  5.261654616E+01  5.261654616E+01  0.000000000E+00  0.00000E+00  9.000E+00
      21    -1     0     0   513   514  0.000000000E+00  0.000000000E+00 -1.535266944E+01  1.535266944E+01  0.000000000E+00  0.00000E+00  9.000E+00
      21     1     1     2   513   512 -4.103789862E+00 -1.250512894E+01 -9.487810690E+00  1.622460763E+01  3.769728732E-07  0.00000E+00  9.000E+00
       2     1     1     2   512     0  4.967160200E+00  7.313079354E+00  6.084801487E+00  1.073720258E+01  3.300000131E-01  0.00000E+00  9.000E+00
      -2     1     1     2     0   511 -8.633703379E-01  5.192049582E+00  4.066688592E+01  4.100740540E+01  3.300000131E-01  0.00000E+00  9.000E+00
</event>
<event>
      5  10001  3.52971E+09  2.34651E+00 -1.00000E+00  3.33500E-01
      21    -1     0     0   515   512  0.000000000E+00  0.000000000E+00  6.775269485E+02  6.775269485E+02  0.000000000E+00  0.00000E+00  9.000E+00
      21    -1     0     0   511   515  0.000000000E+00  0.000000000E+00 -1.415471467E+00  1.415471467E+00  0.000000000E+00  0.00000E+00  9.000E+00
      21     1     1     2   511   513 -9.490103522E+00 -1.367575499E+01  5.393267076E+01  5.644308031E+01  2.236564522E-06  0.00000E+00  9.000E+00
      21     1     1     2   514   512  9.519381923E+00  1.505348619E+01  6.060846137E+02  6.063462584E+02  1.321449896E-05  0.00000E+00  9.000E+00
      21     1     1     2   513   514 -2.927840079E-02 -1.377731200E+00  1.609419256E+01  1.615308127E+01  0.000000000E+00  0.00000E+00  9.000E+00
</event>
<event>
      5  10001  3.52971E+09  1.23732E+01 -1.00000E+00  1.85636E-01
      21    -1     0     0   515   511  0.000000000E+00  0.000000000E+00  3.014253490E+02  3.014253490E+02  0.000000000E+00  0.00000E+00  9.000E+00
      -3    -1     0     0     0   516  0.000000000E+00  0.000000000E+00 -2.077958447E+02  2.077958447E+02  0.000000000E+00  0.00000E+00  9.000E+00
      -3     1     1     2     0   512 -4.017628106E+00 -1.028324818E+01 -2.045644752E+02  2.048627858E+02  5.000000000E-01  0.00000E+00  9.000E+00
      21     1     1     2   512   511 -7.612351366E+00  1.450696694E+01  2.876093476E+02  2.880755748E+02  7.629394531E-06  0.00000E+00  9.000E+00
      21     1     1     2   515   516  1.162997947E+01 -4.223718763E+00  1.058463186E+01  1.628283312E+01  0.000000000E+00  0.00000E+00  9.000E+00
</event>
<event>
      5  10001  3.52971E+09  6.90512E+00 -1.00000E+00  2.16389E-01
      21    -1     0     0   513   512  0.000000000E+00  0.000000000E+00  4.222502298E+00  4.222502298E+00  0.000000000E+00  0.00000E+00  9.000E+00
      21    -1     0     0   511   514  0.000000000E+00  0.000000000E+00 -1.158532022E+02  1.158532022E+02  0.000000000E+00  0.00000E+00  9.000E+00
      21     1     1     2   513   514  1.265651783E+01 -1.113392337E+01 -2.492371498E+01  3.008892257E+01  3.371747881E-07  0.00000E+00  9.000E+00
      21     1     1     2   517   512 -1.012154207E+01  4.710950502E+00 -1.984982128E+01  2.277397799E+01  7.539457465E-07  0.00000E+00  9.000E+00
      21     1     1     2   511   517 -2.534975759E+00  6.422972870E+00 -6.685716361E+01  6.721280390E+01  0.000000000E+00  0.00000E+00  9.000E+00
</event>
<event>
      5  10001  3.52971E+09  3.36392E+00 -1.00000E+00  2.82542E-01
      21    -1     0     0   513   512  0.000000000E+00  0.000000000E+00  3.036479922E+01  3.036479922E+01  0.000000000E+00  0.00000E+00  9.000E+00
       2    -1     0     0   515     0  0.000000000E+00  0.000000000E+00 -1.659437911E+03  1.659437911E+03  0.000000000E+00  0.00000E+00  9.000E+00
      21     1     1     2   515   512 -9.650543444E+00  2.274329247E+00 -8.315954671E+01  8.374852698E+01  9.536743164E-07  0.00000E+00  9.000E+00
       2     1     1     2   511     0  1.051276146E+01 -5.525870686E+00 -1.575867331E+03  1.575912119E+03  3.300000131E-01  0.00000E+00  9.000E+00
      21     1     1     2   513   511 -8.622180116E-01  3.251541440E+00  2.995376588E+01  3.014206416E+01  3.180900589E-06  0.00000E+00  9.000E+00
</event>
<event>
      5  10001  3.52971E+09  5.37418E+00 -1.00000E+00  2.33161E-01
      21    -1     0     0   514   511  0.000000000E+00  0.000000000E+00  1.794674862E+01  1.794674862E+01  0.000000000E+00  0.00000E+00  9.000E+00
      21    -1     0     0   512   515  0.000000000E+00  0.000000000E+00 -1.104319143E+02  1.104319143E+02  0.000000000E+00  0.00000E+00  9.000E+00
      21     1     1     2   514   516  8.354793007E+00 -1.417953601E+01  8.071019809E+00  1.833038921E+01  2.064765462E-07  0.00000E+00  9.000E+00
      21     1     1     2   512   511 -6.461957940E+00  9.149731581E+00 -2.040208940E+00  1.138582193E+01  2.269677253E-07  0.00000E+00  9.000E+00
      21     1     1     2   516   515 -1.892835067E+00  5.029804429E+00 -9.851597653E+01  9.866245177E+01  1.348699152E-06  0.00000E+00  9.000E+00
</event>
<event>
      5  10001  3.52971E+09  3.36280E+00 -1.00000E+00  2.82581E-01
      21    -1     0     0   513   515  0.000000000E+00  0.000000000E+00  2.306372941E+02  2.306372941E+02  0.000000000E+00  0.00000E+00  9.000E+00
      -2    -1     0     0     0   513  0.000000000E+00  0.000000000E+00 -2.023222732E+00  2.023222732E+00  0.000000000E+00  0.00000E+00  9.000E+00
      -2     1     1     2     0   511  1.229733021E+01  6.181194986E+00  2.473311706E+01  2.830666850E+01  3.300000131E-01  0.00000E+00  9.000E+00
      21     1     1     2   511   512 -3.334822656E+00 -2.025643377E+00  4.668141732E+01  4.684419918E+01  6.743495762E-07  0.00000E+00  9.000E+00
      21     1     1     2   512   515 -8.962507553E+00 -4.155551610E+00  1.571995370E+02  1.575096491E+02  0.000000000E+00  0.00000E+00  9.000E+00
</event>
<event>
      5  10001  3.52971E+09  6.32768E+00 -1.00000E+00  2.21938E-01
      21    -1     0     0   514   513  0.000000000E+00  0.000000000E+00  3.067116733E+02  3.067116733E+02  0.000000000E+00  0.00000E+00  9.000E+00
      21    -1     0     0   516   515  0.000000000E+00  0.000000000E+00 -4.112742879E+00  4.112742879E+00  0.000000000E+00  0.00000E+00  9.000E+00
      21     1     1     2   514   515  2.362534615E+00  1.505250548E+01  1.177726569E+01  1.925781603E+01  7.907449699E-07  0.00000E+00  9.000E+00
      21     1     1     2   516   511 -7.955550032E+00 -1.209315793E+01  2.089031886E+02  2.094041009E+02  0.000000000E+00  0.00000E+00  9.000E+00
      21     1     1     2   511   513  5.593015417E+00 -2.959347552E+00  8.191847613E+01  8.216249930E+01  1.348699152E-06  0.00000E+00  9.000E+00
</event>
<event>
      5  10001  3.52971E+09  9.14746E+00 -1.00000E+00  2.00335E-01
       3    -1     0     0   515     0  0.000000000E+00  0.000000000E+00  1.338528863E+01  1.338528863E+01  0.000000000E+00  0.00000E+00  9.000E+00
      21    -1     0     0   511   512  0.000000000E+00  0.000000000E+00 -3.194177358E+01  3.194177358E+01  0.000000000E+00  0.00000E+00  9.000E+00
      21     1     1     2   514   512 -9.389327878E+00 -1.424020679E-01 -1.222469308E+01  1.541502116E+01  1.685873940E-07  0.00000E+00  9.000E+00
       3     1     1     2   511     0  1.044224495E+01 -3.330959588E+00  8.978507750E+00  1.417742476E+01  5.000000000E-01  0.00000E+00  9.000E+00
      21     1     1     2   515   514 -1.052917076E+00  3.473361656E+00 -1.531029961E+01  1.573461629E+01  2.920019320E-07  0.00000E+00  9.000E+00
</event>
<event>
      5  10001  3.52971E+09  3.13868E+00 -1.00000E+00  2.91027E-01
      21    -1     0     0   513   511  0.000000000E+00  0.000000000E+00  7.330898191E+01  7.330898191E+01  0.000000000E+00  0.00000E+00  9.000E+00
      21    -1     0     0   512   514  0.000000000E+00  0.000000000E+00 -2.104743671E+01  2.104743671E+01  0.000000000E+00  0.00000E+00  9.000E+00
      21     1     1     2   513   514  1.157399746E+01 -2.410379318E+00  7.044455893E+01  7.142970830E+01  9.536743164E-07  0.00000E+00  9.000E+00
      21     1     1     2   516   511 -8.493855784E+00  3.013749707E+00 -7.294169628E+00  1.159453250E+01  4.915124924E-07  0.00000E+00  9.000E+00
      21     1     1     2   512   516 -3.080141671E+00 -6.033703886E-01 -1.088884410E+01  1.133217783E+01  2.064765462E-07  0.00000E+00  9.000E+00
</event>
<event>
      5  10001  3.52971E+09  1.28182E+01 -1.00000E+00  1.84062E-01
      21    -1     0     0   516   511  0.000000000E+00  0.000000000E+00  5.681485613E-01  5.681485613E-01  0.000000000E+00  0.00000E+00  9.000E+00
      21    -1     0     0   515   516  0.000000000E+00  0.000000000E+00 -3.062593636E+02  3.062593636E+02  0.000000000E+00  0.00000E+00  9.000E+00
      -3     1     1     2     0   511  5.326164697E+00  2.276436572E+00 -3.439241688E+01  3.488034594E+01  5.000000000E-01  0.00000E+00  9.000E+00
      21     1     1     2   515   513 -5.853058764E+00 -6.080821529E+00 -2.568390398E+02  2.569776781E+02  0.000000000E+00  0.00000E+00  9.000E+00
       3     1     1     2   513     0  5.268940665E-01  3.804384957E+00 -1.445975836E+01  1.496948810E+01  5.000000000E-01  0.00000E+00  9.000E+00
</event>
<event>
      5  10001  3.52971E+09  5.95180E+00 -1.00000E+00  2.26011E-01
      21    -1     0     0   512   513  0.000000000E+00  0.000000000E+00  4.411206257E+01  4.411206257E+01  0.000000000E+00  0.00000E+00  9.000E+00
       3    -1     0     0   511     0  0.000000000E+00  0.000000000E+00 -1.720139797E+01  1.720139797E+01  0.000000000E+00  0.00000E+00  9.000E+00
      21     1     1     2   511   513  5.900425358E+00  1.027727983E+01  3.876762428E+01  4.053845326E+01  4.768371582E-07  0.00000E+00  9.000E+00
       3     1     1     2   514     0 -2.889711864E+00 -5.736838288E+00 -1.360500212E+01  1.505349896E+01  5.000000000E-01  0.00000E+00  9.000E+00
      21     1     1     2   512   514 -3.010713494E+00 -4.540441543E+00  1.748042438E+00  5.721508325E+00  1.115100797E-07  0.00000E+00  9.000E+00
</event>
<event>
      5  10001  3.52971E+09  7.36885E+00 -1.00000E+00  2.12444E-01
      21    -1     0     0   515   517  0.000000000E+00  0.000000000E+00  1.679064032E+02  1.679064032E+02  0.000000000E+00  0.00000E+00  9.000E+00
      21    -1     0     0   516   515  0.000000000E+00  0.000000000E+00 -3.919872640E+02  3.919872640E+02  0.000000000E+00  0.00000E+00  9.000E+00
      21     1     1     2   516   511  7.066161742E+00  1.371201991E+01 -3.875700598E+02  3.878769152E+02  7.629394531E-06  0.00000E+00  9.000E+00
      21     1     1     2   511   513 -3.801111362E+00 -7.106011534E+00  1.643950330E+02  1.645924382E+02  5.046370146E-06  0.00000E+00  9.000E+00
      21     1     1     2   513   517 -3.265050380E+00 -6.606008374E+00 -9.058340199E-01  7.424313833E+00  1.178040229E-07  0.00000E+00  9.000E+00
</event>
<event>
      5  10001  3.52971E+09  1.25499E+01 -1.00000E+00  1.85001E-01
      21    -1     0     0   512   511  0.000000000E+00  0.000000000E+00  3.385036085E+00  3.385036085E+00  0.000000000E+00  0.00000E+00  9.000E+00
      21    -1     0     0   516   514  0.000000000E+00  0.000000000E+00 -4.101184656E+01  4.101184656E+01  0.000000000E+00  0.00000E+00  9.000E+00
      21     1     1     2   512   514  8.175146992E-01 -7.507426339E+00 -1.874952827E+01  2.021322812E+01  3.371747881E-07  0.00000E+00  9.000E+00
      21     1     1     2   516   515  3.395562843E+00  2.713431419E+00 -9.601591380E-02  4.347617295E+00  2.383567254E-07  0.00000E+00  9.000E+00
      21     1     1     2   515   511 -4.213077543E+00  4.793994920E+00 -1.878126628E+01  1.983603723E+01  0.000000000E+00  0.00000E+00  9.000E+00
</event>
<event>
      5  10001  3.52971E+09  4.87634E+00 -1.00000E+00  2.44711E-01
      21    -1     0     0   513   515  0.000000000E+00  0.000000000E+00  7.331142550E+00  7.331142550E+00  0.000000000E+00  0.00000E+00  9.000E+00
      21    -1     0     0   511   513  0.000000000E+00  0.000000000E+00 -1.367856330E+02  1.367856330E+02  0.000000000E+00  0.00000E+00  9.000E+00
      21     1     1     2   516   515  9.450910757E+00  4.827745233E+00  2.792851462E+00  1.097391714E+01  2.064765462E-07  0.00000E+00  9.000E+00
      21     1     1     2   512   516 -4.699957273E+00 -4.481384217E+00 -1.167372423E+02  1.169177323E+02  0.000000000E+00  0.00000E+00  9.000E+00
      21     1     1     2   511   512 -4.750953484E+00 -3.463610160E-01 -1.551009963E+01  1.622512605E+01  2.920019320E-07  0.00000E+00  9.000E+00
</event>
<event>
      5  10001  3.52971E+09  4.67525E+00 -1.00000E+00  2.48458E-01
      21    -1     0     0   514   512  0.000000000E+00  0.000000000E+00  2.924168211E+02  2.924168211E+02  0.000000000E+00  0.00000E+00  9.000E+00
      21    -1     0     0   513   517  0.000000000E+00  0.000000000E+00 -1.675023119E+02  1.675023119E+02  0.000000000E+00  0.00000E+00  9.000E+00
      21     1     1     2   514   517 -3.388271331E+00  8.311310913E+00  2.633381364E+02  2.634910480E+02  7.629394531E-06  0.00000E+00  9.000E+00
      21     1     1     2   511   512 -2.866288307E-02 -1.150231668E+01  2.782760774E+01  3.011112523E+01  9.536743164E-07  0.00000E+00  9.000E+00
      21     1     1     2   513   511  3.416934214E+00  3.191005765E+00 -1.662512350E+02  1.663169597E+02  0.000000000E+00  0.00000E+00  9.000E+00
</event>
<event>
      5  10001  3.52971E+09  7.26212E+00 -1.00000E+00  2.13316E-01
      21    -1     0     0   515   511  0.000000000E+00  0.000000000E+00  3.634560910E+00  3.634560910E+00  0.000000000E+00  0.00000E+00  9.000E+00
      21    -1     0     0   513   515  0.000000000E+00  0.000000000E+00 -8.107937410E+02  8.107937410E+02  0.000000000E+00  0.00000E+00  9.000E+00
      21     1     1     2   513   516  1.206922121E+01  1.361536249E+01 -7.384847892E+02  7.387088926E+02  1.525878906E-05  0.00000E+00  9.000E+00
      21     1     1     2   512   511 -1.014231192E+01 -1.672386492E+01 -2.429585131E+01  3.119042385E+01  6.743495762E-07  0.00000E+00  9.000E+00
      21     1     1     2   516   512 -1.926909297E+00  3.108502430E+00 -4.437853962E+01  4.452898545E+01  4.768371582E-07  0.00000E+00  9.000E+00
</event>
<event>
      5  10001  3.52971E+09  1.70056E+01 -1.00000E+00  1.72395E-01
      21    -1     0     0   514   511  0.000000000E+00  0.000000000E+00  2.660595571E+00  2.660595571E+00  0.000000000E+00  0.00000E+00  9.000E+00
       2    -1     0     0   512     0  0.000000000E+00  0.000000000E+00 -9.258896598E+02  9.258896598E+02  0.000000000E+00  0.00000E+00  9.000E+00
      21     1     1     2   513   511 -6.332337850E+00  1.332057631E+01 -2.191129081E+01  2.641289308E+01  1.092571186E-06  0.00000E+00  9.000E+00
       2     1     1     2   514     0  1.694008254E+01 -8.369506189E+00 -7.859572451E+02  7.861844027E+02  3.300000131E-01  0.00000E+00  9.000E+00
      21     1     1     2   512   513 -1.060774469E+01 -4.951070121E+00 -1.153605284E+02  1.159529596E+02  1.348699152E-06  0.00000E+00  9.000E+00
</event>
<event>
      5  10001  3.52971E+09  4.06895E+00 -1.00000E+00  2.61725E-01
      21    -1     0     0   515   511  0.000000000E+00  0.000000000E+00  1.460441745E+02  1.460441745E+02  0.000000000E+00  0.00000E+00  9.000E+00
      21    -1     0     0   512   515  0.000000000E+00  0.000000000E+00 -1.338232553E+02  1.338232553E+02  0.000000000E+00  0.00000E+00  9.000E+00
      21     1     1     2   516   513  3.835504213E+00  1.395058649E+01 -2.022870300E+01  2.487027103E+01  9.233911863E-07  0.00000E+00  9.000E+00
      21     1     1     2   512   516 -7.575635684E+00 -1.555301895E+01 -1.105722484E+02  1.119174194E+02  2.697398305E-06  0.00000E+00  9.000E+00
      21     1     1     2   513   511  3.740131471E+00  1.602432464E+00  1.430218706E+02  1.430797394E+02  2.697398305E-06  0.00000E+00  9.000E+00
</event>
<event>
      5  10001  3.52971E+09  9.57798E+00 -1.00000E+00  1.97942E-01
      -4    -1     0     0     0   511  0.000000000E+00  0.000000000E+00  1.784248264E+00  1.784248264E+00  0.000000000E+00  0.00000E+00  9.000E+00
      21    -1     0     0   514   515  0.000000000E+00  0.000000000E+00 -1.413282800E+02  1.413282800E+02  0.000000000E+00  0.00000E+00  9.000E+00
      -4     1     1     2     0   515  9.324586695E+00  1.252711131E+01 -7.087612476E+01  7.259167649E+01  1.500000000E+00  0.00000E+00  9.000E+00
      21     1     1     2   512   511 -1.027238436E+00 -1.375991537E+00 -3.648546002E+00  4.032425999E+00  8.429369702E-08  0.00000E+00  9.000E+00
      21     1     1     2   514   512 -8.297348259E+00 -1.115111977E+01 -6.501936097E+01  6.648842577E+01  9.536743164E-07  0.00000E+00  9.000E+00
</event>
<event>
      5  10001  3.52971E+09  5.67849E+00 -1.00000E+00  2.29245E-01
      21    -1     0     0   513   515  0.000000000E+00  0.000000000E+00  1.661585411E+01  1.661585411E+01  0.000000000E+00  0.00000E+00  9.000E+00
       3    -1     0     0   512     0  0.000000000E+00  0.000000000E+00 -3.896098516E+01  3.896098516E+01  0.000000000E+00  0.00000E+00  9.000E+00
      21     1     1     2   512   511 -1.887055660E+00  8.281470245E+00 -2.517607473E-02  8.493783745E+00  2.078709587E-07  0.00000E+00  9.000E+00
       3     1     1     2   513     0 -2.161070504E+00 -1.226283499E+01 -3.284198303E+01  3.512681593E+01  5.000000000E-01  0.00000E+00  9.000E+00
      21     1     1     2   511   515  4.048126163E+00  3.981364745E+00  1.052202806E+01  1.195623959E+01  2.064765462E-07  0.00000E+00  9.000E+00
</event>
<event>
      5  10001  3.52971E+09  6.29700E+00 -1.00000E+00  2.22256E-01
      21    -1     0     0   511   512  0.000000000E+00  0.000000000E+00  1.392615646E+00  1.392615646E+00  0.000000000E+00  0.00000E+00  9.000E+00
       2    -1     0     0   512     0  0.000000000E+00  0.000000000E+00 -1.809622007E+02  1.809622007E+02  0.000000000E+00  0.00000E+00  9.000E+00
      21     1     1     2   511   514  9.375742897E+00 -6.664068878E-01 -1.795598761E+01  2.026736648E+01  0.000000000E+00  0.00000E+00  9.000E+00
       2     1     1     2   513     0 -4.112838738E+00  3.370783282E+00 -1.112405746E+02  1.113680922E+02  3.300000131E-01  0.00000E+00  9.000E+00
      21     1     1     2   514   513 -5.262904159E+00 -2.704376394E+00 -5.037302281E+01  5.071935763E+01  0.000000000E+00  0.00000E+00  9.000E+00
</event>
<event>
      5  10001  3.52971E+09  7.43718E+00 -1.00000E+00  2.11896E-01
      21    -1     0     0   515   511  0.000000000E+00  0.000000000E+00  1.199218036E+01  1.199218036E+01  0.000000000E+00  0.00000E+00  9.000E+00
      21    -1     0     0   512   516  0.000000000E+00  0.000000000E+00 -2.487027995E+01  2.487027995E+01  0.000000000E+00  0.00000E+00  9.000E+00
      21     1     1     2   515   516 -3.892654693E+00 -1.483916734E+01 -2.562198764E+00  1.555372979E+01  2.402740046E-07  0.00000E+00  9.000E+00
      21     1     1     2   512   513 -3.741668368E-01  8.747711716E+00 -1.074324672E+01  1.385928610E+01  2.920019320E-07  0.00000E+00  9.000E+00
      21     1     1     2   513   511  4.266821530E+00  6.091455626E+00  4.273458853E-01  7.449444417E+00  1.100065042E-07  0.00000E+00  9.000E+00
</event>
<event>
      5  10001  3.52971E+09  6.60054E+00 -1.00000E+00  2.19219E-01
      21    -1     0     0   514   511  0.000000000E+00  0.000000000E+00  8.059685259E+00  8.059685259E+00  0.000000000E+00  0.00000E+00  9.000E+00
      -1    -1     0     0     0   514  0.000000000E+00  0.000000000E+00 -1.207919918E+02  1.207919918E+02  0.000000000E+00  0.00000E+00  9.000E+00
      -1     1     1     2     0   513  1.115393659E+01  5.268920440E+00 -1.139621598E+02  1.146283324E+02  3.300000131E-01  0.00000E+00  9.000E+00
      21     1     1     2   512   511 -2.653698150E+00 -2.998769636E+00  3.295388986E+00  5.185973560E+00  3.153981341E-07  0.00000E+00  9.000E+00
      21     1     1     2   513   512 -8.500238438E+00 -2.270150805E+00 -2.065535707E+00  9.037371074E+00  3.009887021E-07  0.00000E+00  9.000E+00
</event>
<event>
      5  10001  3.52971E+09  8.76867E+00 -1.00000E+00  2.02589E-01
      21    -1     0     0   515   512  0.000000000E+00  0.000000000E+00  1.933517356E+03  1.933517356E+03  0.000000000E+00  0.00000E+00  9.000E+00
      21    -1     0     0   513   511  0.000000000E+00  0.000000000E+00 -7.329233689E+00  7.329233689E+00  0.000000000E+00  0.00000E+00  9.000E+00
      21     1     1     2   515   516  1.180118734E+01 -5.647654074E+00  1.336387199E+03  1.336451238E+03  0.000000000E+00  0.00000E+00  9.000E+00
      21     1     1     2   513   512 -1.907275083E+01  1.054805241E+01  5.941899760E+02  5.945895718E+02  1.078959322E-05  0.00000E+00  9.000E+00
      21     1     1     2   516   511  7.271563488E+00 -4.900398339E+00 -4.389053092E+00  9.805780258E+00  6.474721725E-07  0.00000E+00  9.000E+00
</event>
<event>
      5  10001  3.52971E+09  4.51695E+00 -1.00000E+00  2.51615E-01
      21    -1     0     0   514   512  0.000000000E+00  0.000000000E+00  4.513686828E+02  4.513686828E+02  0.000000000E+00  0.00000E+00  9.000E+00
      21    -1     0     0   513   514  0.000000000E+00  0.000000000E+00 -1.595629456E+00  1.595629456E+00  0.000000000E+00  0.00000E+00  9.000E+00
      21     1     1     2   511   512  5.229060254E+00 -8.404772628E+00  3.762879905E+02  3.764181651E+02  7.629394531E-06  0.00000E+00  9.000E+00
      21     1     1     2   517   511 -5.443522308E+00  1.291662429E+01  6.805260299E+01  6.948113335E+01  2.523185073E-06  0.00000E+00  9.000E+00
      21     1     1     2   513   517  2.144620545E-01 -4.511851657E+00  5.432459950E+00  7.065013833E+00  3.424026159E-07  0.00000E+00  9.000E+00
</event>
<event>
      5  10001  3.52971E+09  5.23134E+00 -1.00000E+00  2.35128E-01
      21    -1     0     0   515   511  0.000000000E+00  0.000000000E+00  2.977127489E+01  2.977127489E+01  0.000000000E+00  0.00000E+00  9.000E+00
       1    -1     0     0   511     0  0.000000000E+00  0.000000000E+00 -1.515721085E+02  1.515721085E+02  0.000000000E+00  0.00000E+00  9.000E+00
      21     1     1     2   512   513 -8.439697896E-01 -8.349024133E+00  2.117395368E+01  2.277618940E+01  9.536743164E-07  0.00000E+00  9.000E+00
       1     1     1     2   513     0  6.209531925E+00  1.018998361E+01 -1.494686714E+02  1.499446120E+02  3.300000131E-01  0.00000E+00  9.000E+00
      21     1     1     2   515   512 -5.365562136E+00 -1.840959477E+00  6.493884100E+00  8.622581953E+00  5.717076687E-07  0.00000E+00  9.000E+00
</event>
<event>
      5  10001  3.52971E+09  1.84737E+01 -1.00000E+00  1.69261E-01
      21    -1     0     0   514   516  0.000000000E+00  0.000000000E+00  1.519832167E+01  1.519832167E+01  0.000000000E+00  0.00000E+00  9.000E+00
       1    -1     0     0   513     0  0.000000000E+00  0.000000000E+00 -2.500592750E+02  2.500592750E+02  0.000000000E+00  0.00000E+00  9.000E+00
      21     1     1     2   513   511  5.432151172E+00  2.605105425E+01 -1.630136329E+02  1.651714570E+02  3.303624740E-06  0.00000E+00  9.000E+00
       1     1     1     2   514     0  3.105877817E+00 -9.669146764E+00 -7.945902162E+01  8.010607900E+01  3.300000131E-01  0.00000E+00  9.000E+00
      21     1     1     2   511   516 -8.538028989E+00 -1.638190748E+01  7.611701154E+00  1.998006072E+01  7.492187673E-07  0.00000E+00  9.000E+00
</event>
<event>
      5  10001  3.52971E+09  7.59690E+00 -1.00000E+00  2.10645E-01
      21    -1     0     0   512   513  0.000000000E+00  0.000000000E+00  3.394024639E+02  3.394024639E+02  0.000000000E+00  0.00000E+00  9.000E+00
      -5    -1     0     0     0   515  0.000000000E+00  0.000000000E+00 -8.734316815E+01  8.734316815E+01  0.000000000E+00  0.00000E+00  9.000E+00
      21     1     1     2   512   515  1.453129030E+00  2.857158333E+01  1.264027445E+02  1.295997715E+02  1.348699152E-06  0.00000E+00  9.000E+00
      21     1     1     2   511   513 -5.302434459E+00 -2.202385719E+01  2.105566034E+02  2.117716915E+02  2.697398305E-06  0.00000E+00  9.000E+00
      -5     1     1     2     0   511  3.849305428E+00 -6.547726144E+00 -8.490005218E+01  8.537416899E+01  4.800000191E+00  0.00000E+00  9.000E+00
</event>
<event>
      5  10001  3.52971E+09  6.44004E+00 -1.00000E+00  2.20796E-01
      -4    -1     0     0     0   514  0.000000000E+00  0.000000000E+00  1.034672953E+01  1.034672953E+01  0.000000000E+00  0.00000E+00  9.000E+00
      21    -1     0     0   512   511  0.000000000E+00  0.000000000E+00 -1.228395508E+02  1.228395508E+02  0.000000000E+00  0.00000E+00  9.000E+00
      -4     1     1     2     0   513  1.279897338E+01 -7.313178861E+00  3.392027386E+00  1.520039981E+01  1.500000000E+00  0.00000E+00  9.000E+00
      21     1     1     2   512   514 -1.183563759E+01  3.241310943E+00 -1.104364791E+02  1.111161749E+02  1.348699152E-06  0.00000E+00  9.000E+00
      21     1     1     2   513   511 -9.633357858E-01  4.071867919E+00 -5.448369599E+00  6.869705632E+00  1.460009660E-07  0.00000E+00  9.000E+00
</event>
<event>
      5  10001  3.52971E+09  1.27929E+01 -1.00000E+00  1.84149E-01
      21    -1     0     0   515   511  0.000000000E+00  0.000000000E+00  5.196235964E+01  5.196235964E+01  0.000000000E+00  0.00000E+00  9.000E+00
      21    -1     0     0   513   516  0.000000000E+00  0.000000000E+00 -3.458236337E+01  3.458236337E+01  0.000000000E+00  0.00000E+00  9.000E+00
      21     1     1     2   515   516 -8.239546046E+00  9.871679177E+00 -3.206981066E+01  3.455159800E+01  0.000000000E+00  0.00000E+00  9.000E+00
      21     1     1     2   513   512  5.287142613E+00 -7.197770456E+00  1.614149944E+01  1.844748711E+01  2.384185791E-07  0.00000E+00  9.000E+00
      21     1     1     2   512   511  2.952403433E+00 -2.673908722E+00  3.330830748E+01  3.354563789E+01  4.768371582E-07  0.00000E+00  9.000E+00
</event>
<event>
      5  10001  3.52971E+09  3.01627E+00 -1.00000E+00  2.96146E-01
      21    -1     0     0   514   513  0.000000000E+00  0.000000000E+00  1.775586025E+01  1.775586025E+01  0.000000000E+00  0.00000E+00  9.000E+00
      21    -1     0     0   515   514  0.000000000E+00  0.000000000E+00 -5.118874857E+01  5.118874857E+01  0.000000000E+00  0.00000E+00  9.000E+00
      21     1     1     2   511   517  9.875023282E+00  3.754972482E+00 -6.121566267E+00  1.221022018E+01  2.384185791E-07  0.00000E+00  9.000E+00
      21     1     1     2   517   513 -9.243414661E+00 -6.704374068E+00  1.242997485E+01  1.687879205E+01  3.769728732E-07  0.00000E+00  9.000E+00
      21     1     1     2   515   511 -6.316086212E-01  2.949401586E+00 -3.974129692E+01  3.985559659E+01  4.768371582E-07  0.00000E+00  9.000E+00
</event>
<event>
      5  10001  3.52971E+09  2.09802E+01 -1.00000E+00  1.64669E-01
      21    -1     0     0   511   512  0.000000000E+00  0.000000000E+00  3.289189796E+01  3.289189796E+01  0.000000000E+00  0.00000E+00  9.000E+00
      -3    -1     0     0     0   511  0.000000000E+00  0.000000000E+00 -2.700404678E+02  2.700404678E+02  0.000000000E+00  0.00000E+00  9.000E+00
      -3     1     1     2     0   513 -6.432483332E+00 -9.022971540E+00 -2.630739727E+02  2.633077210E+02  5.000000000E-01  0.00000E+00  9.000E+00
      21     1     1     2   514   512  1.282303445E+01 -4.277141205E+00  1.901702587E+01  2.333176852E+01  1.877309769E-06  0.00000E+00  9.000E+00
      21     1     1     2   513   514 -6.390551123E+00  1.330011274E+01  6.908376961E+00  1.629287620E+01  8.172577143E-07  0.00000E+00  9.000E+00
</event>
<event>
      5  10001  3.52971E+09  6.00706E+00 -1.00000E+00  2.25386E-01
      21    -1     0     0   515   514  0.000000000E+00  0.000000000E+00  3.945765447E-01  3.945765447E-01  0.000000000E+00  0.00000E+00  9.000E+00
      21    -1     0     0   513   516  0.000000000E+00  0.000000000E+00 -4.103574198E+02  4.103574198E+02  0.000000000E+00  0.00000E+00  9.000E+00
      21     1     1     2   515   516  5.950764968E+00  6.988491994E+00 -7.403323009E+01  7.460006556E+01  9.536743164E-07  0.00000E+00  9.000E+00
      21     1     1     2   513   511 -2.484547080E+00 -7.976878817E+00 -1.997980868E+02  1.999726958E+02  2.697398305E-06  0.00000E+00  9.000E+00
      21     1     1     2   511   514 -3.466217888E+00  9.883868222E-01 -1.361315263E+02  1.361792350E+02  2.697398305E-06  0.00000E+00  9.000E+00
</event>
<event>
      5  10001  3.52971E+09  1.07607E+01 -1.00000E+00  1.92143E-01
      21    -1     0     0   512   513  0.000000000E+00  0.000000000E+00  2.477350286E+00  2.477350286E+00  0.000000000E+00  0.00000E+00  9.000E+00
      21    -1     0     0   517   514  0.000000000E+00  0.000000000E+00 -2.533255475E+02  2.533255475E+02  0.000000000E+00  0.00000E+00  9.000E+00
      21     1     1     2   512   514 -2.260873796E+00  1.070825761E+01 -1.067716844E+01  1.528987434E+01  2.920019320E-07  0.00000E+00  9.000E+00
      21     1     1     2   515   513 -2.324833446E+00 -2.503003557E+00 -6.723124770E+01  6.731798084E+01  1.348699152E-06  0.00000E+00  9.000E+00
      21     1     1     2   517   515  4.585707241E+00 -8.205254054E+00 -1.729397810E+02  1.731950426E+02  1.907348633E-06  0.00000E+00  9.000E+00
</event>
<event>
      5  10001  3.52971E+09  8.21623E+00 -1.00000E+00  2.06162E-01
      21    -1     0     0   511   512  0.000000000E+00  0.000000000E+00  2.215489975E+01  2.215489975E+01  0.000000000E+00  0.00000E+00  9.000E+00
      21    -1     0     0   517   516  0.000000000E+00  0.000000000E+00 -1.871494674E+02  1.871494674E+02  0.000000000E+00  0.00000E+00  9.000E+00
      21     1     1     2   511   516  1.154602688E+01  8.710367128E+00 -1.751740695E+02  1.757701222E+02  1.907348633E-06  0.00000E+00  9.000E+00
      21     1     1     2   517   514 -6.358147954E+00 -2.339148291E+00 -9.810039922E+00  1.192201927E+01  8.596304120E-07  0.00000E+00  9.000E+00
      21     1     1     2   514   512 -5.187878928E+00 -6.371218837E+00  1.998954179E+01  2.161222567E+01  4.768371582E-07  0.00000E+00  9.000E+00
</event>
<event>
      5  10001  3.52971E+09  6.70190E+00 -1.00000E+00  2.18254E-01
      21    -1     0     0   513   516  0.000000000E+00  0.000000000E+00  1.075246980E+02  1.075246980E+02  0.000000000E+00  0.00000E+00  9.000E+00
      21    -1     0     0   515   512  0.000000000E+00  0.000000000E+00 -4.264231626E+01  4.264231626E+01  0.000000000E+00  0.00000E+00  9.000E+00
      21     1     1     2   513   512  1.450016933E+01  1.574278713E+00  1.054857628E+02  1.064893395E+02  1.348699152E-06  0.00000E+00  9.000E+00
      21     1     1     2   511   516 -9.680009894E+00 -3.232575117E+00 -2.000308805E+01  2.245608302E+01  6.307962682E-07  0.00000E+00  9.000E+00
      21     1     1     2   515   511 -4.820159431E+00  1.658296404E+00 -2.060029303E+01  2.122159176E+01  3.371747881E-07  0.00000E+00  9.000E+00
</event>
<event>
      5  10001  3.52971E+09  5.37377E+00 -1.00000E+00  2.33166E-01
       1    -1     0     0   515     0  0.000000000E+00  0.000000000E+00  2.126542998E+01  2.126542998E+01  0.000000000E+00  0.00000E+00  9.000E+00
      -2    -1     0     0     0   514  0.000000000E+00  0.000000000E+00 -1.471487532E+02  1.471487532E+02  0.000000000E+00  0.00000E+00  9.000E+00
      -2     1     1     2     0   511 -2.219123064E+01  3.410470611E+00 -5.570803232E+01  6.006309842E+01  3.300000131E-01  0.00000E+00  9.000E+00
      21     1     1     2   515   514  1.683288507E+01 -3.005589993E+00 -8.804394635E+01  8.968899643E+01  9.536743164E-07  0.00000E+00  9.000E+00
       1     1     1     2   511     0  5.358345566E+00 -4.048806185E-01  1.786865542E+01  1.866208836E+01  3.300000131E-01  0.00000E+00  9.000E+00
</event>
<event>
      5  10001  3.52971E+09  5.79591E+00 -1.00000E+00  2.27825E-01
      21    -1     0     0   514   516  0.000000000E+00  0.000000000E+00  2.596351375E+01  2.596351375E+01  0.000000000E+00  0.00000E+00  9.000E+00
      21    -1     0     0   511   513  0.000000000E+00  0.000000000E+00 -2.210238220E+01  2.210238220E+01  0.000000000E+00  0.00000E+00  9.000E+00
      21     1     1     2   512   513 -5.802626871E+00 -1.197709949E+01  1.937690238E+01  2.350714225E+01  4.768371582E-07  0.00000E+00  9.000E+00
      21     1     1     2   511   516  5.585224111E+00  6.185272129E+00 -1.668094935E+01  1.864688689E+01  5.331201500E-07  0.00000E+00  9.000E+00
      21     1     1     2   514   512  2.174027605E-01  5.791827360E+00  1.165178515E+00  5.911866803E+00  1.173318606E-07  0.00000E+00  9.000E+00
</event>
<event>
      5  10001  3.52971E+09  5.50670E+00 -1.00000E+00  2.31412E-01
      21    -1     0     0   513   511  0.000000000E+00  0.000000000E+00  1.245341633E+01  1.245341633E+01  0.000000000E+00  0.00000E+00  9.000E+00
      -1    -1     0     0     0   512  0.000000000E+00  0.000000000E+00 -2.227132821E+02  2.227132821E+02  0.000000000E+00  0.00000E+00  9.000E+00
      -1     1     1     2     0   511  1.348573876E+01 -3.493965598E+00 -2.020679444E+02  2.025478610E+02  3.300000131E-01  0.00000E+00  9.000E+00
      21     1     1     2   515   512 -1.096274332E+01 -1.400681866E+00 -1.814395183E+01  2.124492031E+01  7.907449699E-07  0.00000E+00  9.000E+00
      21     1     1     2   513   515 -2.522995434E+00  4.894647464E+00  9.952030471E+00  1.137391710E+01  5.717076687E-07  0.00000E+00  9.000E+00
</event>
<event>
      5  10001  3.52971E+09  6.56918E+00 -1.00000E+00  2.19522E-01
      21    -1     0     0   512   515  0.000000000E+00  0.000000000E+00  1.808742754E+03  1.808742754E+03  0.000000000E+00  0.00000E+00  9.000E+00
      -4    -1     0     0     0   514  0.000000000E+00  0.000000000E+00 -6.191403521E+00  6.191403521E+00  0.000000000E+00  0.00000E+00  9.000E+00
      -4     1     1     2     0   515  6.444800534E+00 -7.914711795E+00 -1.720745987E+00  1.045892363E+01  1.500000000E+00  0.00000E+00  9.000E+00
      21     1     1     2   511   514 -8.914715555E+00  2.764333209E+00  1.712559672E+03  1.712585106E+03  2.157918644E-05  0.00000E+00  9.000E+00
      21     1     1     2   512   511  2.469915021E+00  5.150378586E+00  9.171242404E+01  9.189012788E+01  0.000000000E+00  0.00000E+00  9.000E+00
</event>
<event>
      5  10001  3.52971E+09  2.81060E+01 -1.00000E+00  1.55030E-01
       2    -1     0     0   513     0  0.000000000E+00  0.000000000E+00  7.461818667E+02  7.461818667E+02  0.000000000E+00  0.00000E+00  9.000E+00
      21    -1     0     0   511   513  0.000000000E+00  0.000000000E+00 -5.951464240E-01  5.951464240E-01  0.000000000E+00  0.00000E+00  9.000E+00
      -1     1     1     2     0   512 -5.018981208E-01  8.355611988E-01  9.358750133E+00  9.415156308E+00  3.300000131E-01  0.00000E+00  9.000E+00
       2     1     1     2   512     0  1.720757629E+01  1.041914503E+01  4.314171886E+02  4.318860484E+02  3.300000131E-01  0.00000E+00  9.000E+00
       1     1     1     2   511     0 -1.670567817E+01 -1.125470623E+01  3.048107816E+02  3.054758085E+02  3.300000131E-01  0.00000E+00  9.000E+00
</event>
<event>
      5  10001  3.52971E+09  8.63828E+00 -1.00000E+00  2.03400E-01
      21    -1     0     0   512   514  0.000000000E+00  0.000000000E+00  1.654009428E+01  1.654009428E+01  0.000000000E+00  0.00000E+00  9.000E+00
       2    -1     0     0   514     0  0.000000000E+00  0.000000000E+00 -6.388588417E+02  6.388588417E+02  0.000000000E+00  0.00000E+00  9.000E+00
      21     1     1     2   513   511  1.168477218E+01  1.680934569E+01  8.547894876E+00  2.218455567E+01  1.359195024E-06  0.00000E+00  9.000E+00
       2     1     1     2   511     0 -1.317614760E+01 -1.025883330E+01 -6.213000464E+02  6.215245056E+02  3.300000131E-01  0.00000E+00  9.000E+00
      21     1     1     2   512   513  1.491375420E+00 -6.550512398E+00 -9.566595894E+00  1.168987469E+01  2.064765462E-07  0.00000E+00  9.000E+00
</event>
<event>
      5  10001  3.52971E+09  1.65028E+01 -1.00000E+00  1.73561E-01
      21    -1     0     0   515   511  0.000000000E+00  0.000000000E+00  5.379040977E+01  5.379040977E+01  0.000000000E+00  0.00000E+00  9.000E+00
      21    -1     0     0   514   515  0.000000000E+00  0.000000000E+00 -6.311315491E+02  6.311315491E+02  0.000000000E+00  0.00000E+00  9.000E+00
      21     1     1     2   514   513  2.291559301E+01  2.536570434E+00 -6.229127629E+02  6.233392887E+02  0.000000000E+00  0.00000E+00  9.000E+00
      21     1     1     2   516   511 -1.091670775E+01 -1.265737188E+01  4.238977441E+01  4.556617765E+01  3.844384073E-06  0.00000E+00  9.000E+00
      21     1     1     2   513   516 -1.199888526E+01  1.012080145E+01  3.181849163E+00  1.601649255E+01  7.918673906E-07  0.00000E+00  9.000E+00
</event>
<event>
      5  10001  3.52971E+09  7.03628E+00 -1.00000E+00  2.15231E-01
      21    -1     0     0   512   514  0.000000000E+00  0.000000000E+00  1.008732560E+00  1.008732560E+00  0.000000000E+00  0.00000E+00  9.000E+00
      21    -1     0     0   513   517  0.000000000E+00  0.000000000E+00 -1.687898410E+02  1.687898410E+02  0.000000000E+00  0.00000E+00  9.000E+00
      21     1     1     2   512   517 -4.178237442E+00  8.164164852E+00 -1.071149760E+02  1.075068804E+02  1.348699152E-06  0.00000E+00  9.000E+00
      21     1     1     2   513   511  7.692473277E+00 -6.686193091E+00 -4.769880690E+01  4.877556256E+01  6.743495762E-07  0.00000E+00  9.000E+00
      21     1     1     2   511   514 -3.514235834E+00 -1.477971760E+00 -1.296732552E+01  1.351613055E+01  1.685873940E-07  0.00000E+00  9.000E+00
</event>
<event>
      5  10001  3.52971E+09  9.08012E+00 -1.00000E+00  2.00725E-01
      21    -1     0     0   511   512  0.000000000E+00  0.000000000E+00  7.641702136E+01  7.641702136E+01  0.000000000E+00  0.00000E+00  9.000E+00
       4    -1     0     0   514     0  0.000000000E+00  0.000000000E+00 -5.258825446E+00  5.258825446E+00  0.000000000E+00  0.00000E+00  9.000E+00
      21     1     1     2   514   513  1.322315749E+01 -8.058604623E+00  5.063338498E+01  5.294839635E+01  6.743495762E-07  0.00000E+00  9.000E+00
       4     1     1     2   511     0 -4.233076485E+00  6.931578028E+00  2.627067478E+00  8.667017597E+00  1.500000000E+00  0.00000E+00  9.000E+00
      21     1     1     2   513   512 -8.990081002E+00  1.127026595E+00  1.789774346E+01  2.006043286E+01  2.384185791E-07  0.00000E+00  9.000E+00
</event>
<event>
      5  10001  3.52971E+09  1.03511E+01 -1.00000E+00  1.94036E-01
      21    -1     0     0   515   513  0.000000000E+00  0.000000000E+00  1.116164962E+01  1.116164962E+01  0.000000000E+00  0.00000E+00  9.000E+00
      21    -1     0     0   512   515  0.000000000E+00  0.000000000E+00 -9.180541728E+02  9.180541728E+02  0.000000000E+00  0.00000E+00  9.000E+00
      21     1     1     2   512   514  1.277214296E+01 -1.136533397E+01 -8.911602615E+02  8.913242452E+02  0.000000000E+00  0.00000E+00  9.000E+00
      21     1     1     2   511   513 -5.060290202E+00  5.626108813E+00  8.762727013E+00  1.157778139E+01  1.685873940E-07  0.00000E+00  9.000E+00
      21     1     1     2   514   511 -7.711852762E+00  5.739225153E+00 -2.449498870E+01  2.631379581E+01  3.371747881E-07  0.00000E+00  9.000E+00
</event>
<event>
      5  10001  3.52971E+09  4.74703E+00 -1.00000E+00  2.47089E-01
      21    -1     0     0   516   511  0.000000000E+00  0.000000000E+00  3.106578048E+01  3.106578048E+01  0.000000000E+00  0.00000E+00  9.000E+00
      21    -1     0     0   512   517  0.000000000E+00  0.000000000E+00 -1.433876956E+01  1.433876956E+01  0.000000000E+00  0.00000E+00  9.000E+00
      21     1     1     2   516   517  1.021191771E+01  3.660064049E+00 -1.080327342E+01  1.530980238E+01  2.064765462E-07  0.00000E+00  9.000E+00
      21     1     1     2   512   513 -7.664821076E+00 -1.547719285E-01  1.517279356E+01  1.699962061E+01  2.384185791E-07  0.00000E+00  9.000E+00
      21     1     1     2   513   511 -2.547096639E+00 -3.505292120E+00  1.235749077E+01  1.309512705E+01  0.000000000E+00  0.00000E+00  9.000E+00
</event>
<event>
      5  10001  3.52971E+09  5.13894E+00 -1.00000E+00  2.36448E-01
      21    -1     0     0   513   511  0.000000000E+00  0.000000000E+00  1.054536115E+01  1.054536115E+01  0.000000000E+00  0.00000E+00  9.000E+00
       1    -1     0     0   512     0  0.000000000E+00  0.000000000E+00 -3.289793153E+01  3.289793153E+01  0.000000000E+00  0.00000E+00  9.000E+00
      21     1     1     2   514   511 -2.882973351E+00 -6.676806105E+00  3.456699537E+00  8.052331762E+00  7.300048300E-08  0.00000E+00  9.000E+00
       1     1     1     2   513     0  8.970057158E+00  8.635378158E+00 -2.617360374E+01  2.898617108E+01  3.300000131E-01  0.00000E+00  9.000E+00
      21     1     1     2   512   514 -6.087083807E+00 -1.958572053E+00  3.643338193E-01  6.404789840E+00  1.343172519E-07  0.00000E+00  9.000E+00
</event>
<event>
      5  10001  3.52971E+09  8.62388E+00 -1.00000E+00  2.03491E-01
      21    -1     0     0   515   511  0.000000000E+00  0.000000000E+00  8.178592245E-02  8.178592245E-02  0.000000000E+00  0.00000E+00  9.000E+00
      21    -1     0     0   512   515  0.000000000E+00  0.000000000E+00 -1.845457843E+03  1.845457843E+03  0.000000000E+00  0.00000E+00  9.000E+00
      21     1     1     2   512   514 -8.726564861E+00  1.886225874E+00 -8.268917076E+02  8.269399052E+02  1.525878906E-05  0.00000E+00  9.000E+00
      21     1     1     2   513   511  7.307887065E+00 -5.318116501E+00 -3.912418193E+02  3.913462006E+02  7.629394531E-06  0.00000E+00  9.000E+00
      21     1     1     2   514   513  1.418677796E+00  3.431890626E+00 -6.272425306E+02  6.272535235E+02  0.000000000E+00  0.00000E+00  9.000E+00
</event>
<event>
      5  10001  3.52971E+09  1.93733E+01 -1.00000E+00  1.67515E-01
      21    -1     0     0   516   511  0.000000000E+00  0.000000000E+00  3.986140326E+00  3.986140326E+00  0.000000000E+00  0.00000E+00  9.000E+00
      21    -1     0     0   517   516  0.000000000E+00  0.000000000E+00 -3.289689768E+01  3.289689768E+01  0.000000000E+00  0.00000E+00  9.000E+00
      21     1     1     2   513   511  8.933573674E-01 -7.097338790E+00 -7.710168619E+00  1.051746193E+01  1.460009660E-07  0.00000E+00  9.000E+00
      21     1     1     2   517   512 -4.771228052E+00 -2.399329326E+00 -6.062116492E+00  8.079025603E+00  1.192092896E-07  0.00000E+00  9.000E+00
      21     1     1     2   512   513  3.877870685E+00  9.496668117E+00 -1.513847224E+01  1.828655047E+01  2.920019320E-07  0.00000E+00  9.000E+00
</event>
<event>
      5  10001  3.52971E+09  8.63586E+00 -1.00000E+00  2.03415E-01
      21    -1     0     0   514   511  0.000000000E+00  0.000000000E+00  3.887819336E+01  3.887819336E+01  0.000000000E+00  0.00000E+00  9.000E+00
       2    -1     0     0   515     0  0.000000000E+00  0.000000000E+00 -1.408298640E+03  1.408298640E+03  0.000000000E+00  0.00000E+00  9.000E+00
      21     1     1     2   514   512  4.799856015E+00 -7.326856554E+00  3.788696413E+01  3.888628930E+01  5.781343295E-06  0.00000E+00  9.000E+00
       2     1     1     2   512     0 -8.241914302E+00  1.524709907E+01 -1.365033376E+03  1.365143446E+03  3.300000131E-01  0.00000E+00  9.000E+00
      21     1     1     2   515   511  3.442058287E+00 -7.920242517E+00 -4.227403442E+01  4.314709715E+01  6.743495762E-07  0.00000E+00  9.000E+00
</event>
<event>
      5  10001  3.52971E+09  3.37238E+01 -1.00000E+00  1.49590E-01
      21    -1     0     0   513   512  0.000000000E+00  0.000000000E+00  5.511683444E+00  5.511683444E+00  0.000000000E+00  0.00000E+00  9.000E+00
      21    -1     0     0   515   511  0.000000000E+00  0.000000000E+00 -8.018473496E+02  8.018473496E+02  0.000000000E+00  0.00000E+00  9.000E+00
      21     1     1     2   513   511  6.085798566E+00  1.295471736E+01 -7.529828952E+02  7.531189163E+02  1.078959322E-05  0.00000E+00  9.000E+00
      21     1     1     2   514   512  8.193859565E+00  3.866233795E+00 -6.031345937E+00  1.088412753E+01  1.192092896E-07  0.00000E+00  9.000E+00
      21     1     1     2   515   514 -1.427965813E+01 -1.682095115E+01 -3.732142503E+01  4.335598921E+01  1.066240300E-06  0.00000E+00  9.000E+00
</event>
<event>
      5  10001  3.52971E+09  1.28747E+01 -1.00000E+00  1.83868E-01
      -3    -1     0     0     0   516  0.000000000E+00  0.000000000E+00  2.002299679E+01  2.002299679E+01  0.000000000E+00  0.00000E+00  9.000E+00
      21    -1     0     0   512   513  0.000000000E+00  0.000000000E+00 -1.254780108E+01  1.254780108E+01  0.000000000E+00  0.00000E+00  9.000E+00
      -3     1     1     2     0   511 -7.660744744E-01 -9.359675984E-01  1.072274405E+01  1.080232130E+01  5.000000000E-01  0.00000E+00  9.000E+00
      21     1     1     2   512   516  3.244138808E+00 -8.177826053E+00 -7.356984987E+00  1.146850050E+01  1.884864366E-07  0.00000E+00  9.000E+00
      21     1     1     2   511   513 -2.478064333E+00  9.113793652E+00  4.109436647E+00  1.029997607E+01  1.192092896E-07  0.00000E+00  9.000E+00
</event>
<event>
      5  10001  3.52971E+09  1.07083E+01 -1.00000E+00  1.92378E-01
       1    -1     0     0   514     0  0.000000000E+00  0.000000000E+00  1.541204396E+02  1.541204396E+02  0.000000000E+00  0.00000E+00  9.000E+00
      21    -1     0     0   515   514  0.000000000E+00  0.000000000E+00 -1.488732724E+02  1.488732724E+02  0.000000000E+00  0.00000E+00  9.000E+00
      21     1     1     2   515   513 -1.031781073E+01  7.476538386E+00 -1.205829264E+02  1.212542700E+02  1.348699152E-06  0.00000E+00  9.000E+00
      21     1     1     2   513   511  1.842246083E+01 -4.777463477E-01 -2.470627959E+01  3.082232236E+01  6.743495762E-07  0.00000E+00  9.000E+00
       1     1     1     2   511     0 -8.104650103E+00 -6.998792039E+00  1.505363732E+02  1.509171196E+02  3.300000131E-01  0.00000E+00  9.000E+00
</event>
<event>
      5  10001  3.52971E+09  1.99427E+01 -1.00000E+00  1.66469E-01
      21    -1     0     0   512   515  0.000000000E+00  0.000000000E+00  1.125575940E+00  1.125575940E+00  0.000000000E+00  0.00000E+00  9.000E+00
      21    -1     0     0   511   512  0.000000000E+00  0.000000000E+00 -3.127728159E+02  3.127728159E+02  0.000000000E+00  0.00000E+00  9.000E+00
      -5     1     1     2     0   513  5.375457044E+00  2.448559955E-01 -1.717023301E+01  1.862289978E+01  4.800000191E+00  0.00000E+00  9.000E+00
       5     1     1     2   511     0 -1.144820265E+01 -3.806268551E+00 -1.297335033E+02  1.303816356E+02  4.800000191E+00  0.00000E+00  9.000E+00
      21     1     1     2   513   515  6.072745608E+00  3.561412555E+00 -1.647435037E+02  1.648938565E+02  2.697398305E-06  0.00000E+00  9.000E+00
</event>
<event>
      5  10001  3.52971E+09  2.24618E+00 -1.00000E+00  3.41060E-01
       1    -1     0     0   514     0  0.000000000E+00  0.000000000E+00  5.357109180E+02  5.357109180E+02  0.000000000E+00  0.00000E+00  9.000E+00
      21    -1     0     0   515   514  0.000000000E+00  0.000000000E+00 -2.662218557E+02  2.662218557E+02  0.000000000E+00  0.00000E+00  9.000E+00
      21     1     1     2   511   516  1.707576248E+00 -1.066822990E+01 -2.399715397E+00  1.106732036E+01  1.142638297E-06  0.00000E+00  9.000E+00
      21     1     1     2   515   511  3.353877129E-01  9.734624375E+00 -2.593945054E+02  2.595773196E+02  3.814697266E-06  0.00000E+00  9.000E+00
       1     1     1     2   516     0 -2.042963961E+00  9.336055297E-01  5.312832831E+02  5.312881338E+02  3.300000131E-01  0.00000E+00  9.000E+00
</event>
<event>
      5  10001  3.52971E+09  8.93578E+00 -1.00000E+00  2.01576E-01
      21    -1     0     0   512   511  0.000000000E+00  0.000000000E+00  4.284988007E+01  4.284988007E+01  0.000000000E+00  0.00000E+00  9.000E+00
      21    -1     0     0   513   512  0.000000000E+00  0.000000000E+00 -3.385401989E+00  3.385401989E+00  0.000000000E+00  0.00000E+00  9.000E+00
      21     1     1     2   515   511 -4.973926004E+00  7.451924060E+00  2.875151363E+01  3.011512325E+01  0.000000000E+00  0.00000E+00  9.000E+00
      21     1     1     2   513   514  4.134096506E+00 -4.278314091E+00  1.131389521E+01  1.278275988E+01  1.685873940E-07  0.00000E+00  9.000E+00
      21     1     1     2   514   515  8.398294973E-01 -3.173609969E+00 -6.009307622E-01  3.337398927E+00  1.539586359E-07  0.00000E+00  9.000E+00
</event>
<event>
      5  10001  3.52971E+09  7.86338E+00 -1.00000E+00  2.08648E-01
       2    -1     0     0   512     0  0.000000000E+00  0.000000000E+00  8.193975975E+00  8.193975975E+00  0.000000000E+00  0.00000E+00  9.000E+00
      21    -1     0     0   516   512  0.000000000E+00  0.000000000E+00 -3.326431097E+01  3.326431097E+01  0.000000000E+00  0.00000E+00  9.000E+00
      21     1     1     2   511   514 -7.511652418E-01  7.563455511E+00 -2.447955695E+01  2.563237829E+01  3.371747881E-07  0.00000E+00  9.000E+00
       2     1     1     2   514     0 -3.488907778E+00 -1.004973105E+01  9.220592501E-01  1.068310184E+01  3.300000131E-01  0.00000E+00  9.000E+00
      21     1     1     2   516   511  4.240073020E+00  2.486275538E+00 -1.512837301E+00  5.142806818E+00  7.598131170E-08  0.00000E+00  9.000E+00
</event>
<event>
      5  10001  3.52971E+09  5.46226E+00 -1.00000E+00  2.31991E-01
      21    -1     0     0   513   514  0.000000000E+00  0.000000000E+00  1.088048393E+02  1.088048393E+02  0.000000000E+00  0.00000E+00  9.000E+00
      21    -1     0     0   515   511  0.000000000E+00  0.000000000E+00 -8.237871595E+00  8.237871595E+00  0.000000000E+00  0.00000E+00  9.000E+00
      21     1     1     2   513   511  1.007170288E+01  5.709568288E-02  1.047137332E+02  1.051969979E+02  1.907348633E-06  0.00000E+00  9.000E+00
      -2     1     1     2     0   514 -5.951779385E+00 -1.271686041E+00 -3.526991925E-01  6.105256749E+00  3.300000131E-01  0.00000E+00  9.000E+00
       2     1     1     2   515     0 -4.119923493E+00  1.214590358E+00 -3.794066240E+00  5.740456251E+00  3.300000131E-01  0.00000E+00  9.000E+00
</event>
<event>
      5  10001  3.52971E+09  1.63348E+01 -1.00000E+00  1.73962E-01
       2    -1     0     0   512     0  0.000000000E+00  0.000000000E+00  1.217045785E+03  1.217045785E+03  0.000000000E+00  0.00000E+00  9.000E+00
       1    -1     0     0   513     0  0.000000000E+00  0.000000000E+00 -1.467403665E+00  1.467403665E+00  0.000000000E+00  0.00000E+00  9.000E+00
       1     1     1     2   512     0  1.137918151E+01  1.101422359E+01  4.444161919E+01  4.718013681E+01  3.300000131E-01  0.00000E+00  9.000E+00
       2     1     1     2   511     0 -1.066612708E+01 -5.181617433E-01  5.027976743E+02  5.029111701E+02  3.300000131E-01  0.00000E+00  9.000E+00
      21     1     1     2   513   511 -7.130544279E-01 -1.049606185E+01  6.683390879E+02  6.684218819E+02  0.000000000E+00  0.00000E+00  9.000E+00
</event>
<event>
      5  10001  3.52971E+09  8.47860E+00 -1.00000E+00  2.04420E-01
      21    -1     0     0   514   511  0.000000000E+00  0.000000000E+00  4.519301387E+00  4.519301387E+00  0.000000000E+00  0.00000E+00  9.000E+00
      21    -1     0     0   513   515  0.000000000E+00  0.000000000E+00 -3.479722817E+01  3.479722817E+01  0.000000000E+00  0.00000E+00  9.000E+00
      21     1     1     2   514   515 -6.517758809E+00 -6.235502410E+00 -3.422634753E+00  9.647647322E+00  7.300048300E-08  0.00000E+00  9.000E+00
      21     1     1     2   513   512  2.835446746E+00  5.693654118E-01 -1.936928024E+01  1.958399735E+01  2.384185791E-07  0.00000E+00  9.000E+00
      21     1     1     2   512   511  3.682312062E+00  5.666136998E+00 -7.486011790E+00  1.008488488E+01  1.192092896E-07  0.00000E+00  9.000E+00
</event>
<event>
      5  10001  3.52971E+09  1.03314E+01 -1.00000E+00  1.94130E-01
      21    -1     0     0   516   513  0.000000000E+00  0.000000000E+00  9.201402619E+00  9.201402619E+00  0.000000000E+00  0.00000E+00  9.000E+00
      21    -1     0     0   517   511  0.000000000E+00  0.000000000E+00 -3.092160177E+02  3.092160177E+02  0.000000000E+00  0.00000E+00  9.000E+00
      21     1     1     2   516   511  6.354016330E+00  1.546353294E+01 -2.976597498E+02  2.981288665E+02  0.000000000E+00  0.00000E+00  9.000E+00
      21     1     1     2   514   513  2.060561424E+00 -9.283685462E+00  3.066079012E-01  9.514553986E+00  3.106990376E-07  0.00000E+00  9.000E+00
      21     1     1     2   517   514 -8.414577754E+00 -6.179847473E+00 -2.661473191E+00  1.077399987E+01  6.664001875E-08  0.00000E+00  9.000E+00
</event>
<event>
      5  10001  3.52971E+09  9.22848E+00 -1.00000E+00  1.99872E-01
       1    -1     0     0   511     0  0.000000000E+00  0.000000000E+00  1.784614207E+01  1.784614207E+01  0.000000000E+00  0.00000E+00  9.000E+00
      21    -1     0     0   512   514  0.000000000E+00  0.000000000E+00 -2.473692240E+01  2.473692240E+01  0.000000000E+00  0.00000E+00  9.000E+00
      21     1     1     2   513   514  5.034096202E+00  3.798774825E+00 -1.757919612E+01  1.867621351E+01  2.384185791E-07  0.00000E+00  9.000E+00
       1     1     1     2   512     0 -1.116735471E+01 -5.722406157E-03  1.219587222E+01  1.653959018E+01  3.300000131E-01  0.00000E+00  9.000E+00
      21     1     1     2   511   513  6.133258508E+00 -3.793052419E+00 -1.507456430E+00  7.367260785E+00  9.424321831E-08  0.00000E+00  9.000E+00
</event>
<event>
      5  10001  3.52971E+09  4.55803E+00 -1.00000E+00  2.50777E-01
      21    -1     0     0   514   512  0.000000000E+00  0.000000000E+00  3.723931501E+02  3.723931501E+02  0.000000000E+00  0.00000E+00  9.000E+00
      21    -1     0     0   516   513  0.000000000E+00  0.000000000E+00 -1.565424494E+01  1.565424494E+01  0.000000000E+00  0.00000E+00  9.000E+00
      21     1     1     2   515   513 -1.219533165E+01  4.795395188E+00  5.510762648E+00  1.421585150E+01  2.528810911E-07  0.00000E+00  9.000E+00
      21     1     1     2   516   512  7.711434047E+00 -3.976658579E+00 -9.619947249E+00  1.295466764E+01  3.153981341E-07  0.00000E+00  9.000E+00
      21     1     1     2   514   515  4.483897602E+00 -8.187366090E-01  3.608480898E+02  3.608768759E+02  3.814697266E-06  0.00000E+00  9.000E+00
</event>
<event>
      5  10001  3.52971E+09  2.31853E+01 -1.00000E+00  1.61239E-01
      21    -1     0     0   511   513  0.000000000E+00  0.000000000E+00  1.265866554E+01  1.265866554E+01  0.000000000E+00  0.00000E+00  9.000E+00
      21    -1     0     0   517   515  0.000000000E+00  0.000000000E+00 -5.520470797E+01  5.520470797E+01  0.000000000E+00  0.00000E+00  9.000E+00
      21     1     1     2   511   515  2.451153811E+01  2.121603466E+00 -1.365947858E+01  2.814068331E+01  4.460403188E-07  0.00000E+00  9.000E+00
      21     1     1     2   512   513 -4.348010754E+00  2.674474608E+00 -1.391631908E+00  5.290997195E+00  1.154238983E-07  0.00000E+00  9.000E+00
      21     1     1     2   517   512 -2.016352736E+01 -4.796078075E+00 -2.749493194E+01  3.443169300E+01  4.768371582E-07  0.00000E+00  9.000E+00
</event>
<event>
      5  10001  3.52971E+09  7.49969E+00 -1.00000E+00  2.11401E-01
       2    -1     0     0   515     0  0.000000000E+00  0.000000000E+00  4.016088744E+02  4.016088744E+02  0.000000000E+00  0.00000E+00  9.000E+00
      21    -1     0     0   511   512  0.000000000E+00  0.000000000E+00 -1.679522293E+00  1.679522293E+00  0.000000000E+00  0.00000E+00  9.000E+00
      21     1     1     2   515   512 -5.265688652E+00  1.308635208E+01  6.416933070E+01  6.570146947E+01  9.536743164E-07  0.00000E+00  9.000E+00
       2     1     1     2   514     0  1.276130325E+01 -1.284913858E+01  3.148885888E+02  3.154090733E+02  3.300000131E-01  0.00000E+00  9.000E+00
      21     1     1     2   511   514 -7.495614596E+00 -2.372135007E-01  2.087143257E+01  2.217785395E+01  3.371747881E-07  0.00000E+00  9.000E+00
</event>
<event>
      5  10001  3.52971E+09  9.81352E+00 -1.00000E+00  1.96702E-01
       2    -1     0     0   511     0  0.000000000E+00  0.000000000E+00  1.263108777E+03  1.263108777E+03  0.000000000E+00  0.00000E+00  9.000E+00
      21    -1     0     0   513   514  0.000000000E+00  0.000000000E+00 -2.644540776E+02  2.644540776E+02  0.000000000E+00  0.00000E+00  9.000E+00
      21     1     1     2   511   512  3.524660903E+00 -8.252296541E+00 -9.841094542E+01  9.881921783E+01  5.560829062E-06  0.00000E+00  9.000E+00
       2     1     1     2   513     0 -3.241576973E+00  1.452439864E+01  1.262801336E+03  1.262889065E+03  3.300000131E-01  0.00000E+00  9.000E+00
      21     1     1     2   512   514 -2.830839299E-01 -6.272102101E+00 -1.657356918E+02  1.658545717E+02  8.740569487E-06  0.00000E+00  9.000E+00
</event>
<event>
      5  10001  3.52971E+09  9.77788E+00 -1.00000E+00  1.96887E-01
      21    -1     0     0   514   515  0.000000000E+00  0.000000000E+00  6.393484800E+00  6.393484800E+00  0.000000000E+00  0.00000E+00  9.000E+00
      -3    -1     0     0     0   514  0.000000000E+00  0.000000000E+00 -2.647078768E+01  2.647078768E+01  0.000000000E+00  0.00000E+00  9.000E+00
      -3     1     1     2     0   513 -5.592649409E-01  4.953278387E+00 -5.982221688E+00  7.802866164E+00  5.000000000E-01  0.00000E+00  9.000E+00
      21     1     1     2   511   515 -5.318699220E+00 -1.043540471E+01 -1.197087311E+01  1.674777704E+01  0.000000000E+00  0.00000E+00  9.000E+00
      21     1     1     2   513   511  5.877964161E+00  5.482126320E+00 -2.124208073E+00  8.313629268E+00  1.659323085E-07  0.00000E+00  9.000E+00
</event>
<event>
      5  10001  3.52971E+09  5.25395E+00 -1.00000E+00  2.34810E-01
      21    -1     0     0   512   511  0.000000000E+00  0.000000000E+00  1.344414679E+01  1.344414679E+01  0.000000000E+00  0.00000E+00  9.000E+00
      21    -1     0     0   513   516  0.000000000E+00  0.000000000E+00 -6.304022023E+01  6.304022023E+01  0.000000000E+00  0.00000E+00  9.000E+00
      21     1     1     2   512   516 -1.051238297E+01 -1.715680246E+00  1.070548670E+01  1.510169527E+01  1.192092896E-07  0.00000E+00  9.000E+00
      21     1     1     2   514   511  2.759622082E+00 -7.472545713E-01 -2.462885553E+01  2.479424183E+01  3.371747881E-07  0.00000E+00  9.000E+00
      21     1     1     2   513   514  7.752760889E+00  2.462934817E+00 -3.567270462E+01  3.658842992E+01  4.768371582E-07  0.00000E+00  9.000E+00
</event>
<event>
      5  10001  3.52971E+09  2.64531E+01 -1.00000E+00  1.56932E-01
       2    -1     0     0   513     0  0.000000000E+00  0.000000000E+00  3.121998328E+02  3.121998328E+02  0.000000000E+00  0.00000E+00  9.000E+00
      21    -1     0     0   515   514  0.000000000E+00  0.000000000E+00 -3.840647181E+00  3.840647181E+00  0.000000000E+00  0.00000E+00  9.000E+00
      21     1     1     2   513   511 -1.632707482E+01  3.104576960E+00  7.040756277E+01  7.234249557E+01  9.536743164E-07  0.00000E+00  9.000E+00
       2     1     1     2   515     0  2.001255943E+01 -9.555780967E+00  2.344283175E+02  2.354751801E+02  3.300000131E-01  0.00000E+00  9.000E+00
      21     1     1     2   511   514 -3.685484613E+00  6.451204006E+00  3.523305283E+00  8.222804271E+00  3.153981341E-07  0.00000E+00  9.000E+00
</event>
<event>
      5  10001  3.52971E+09  4.34877E+01 -1.00000E+00  1.42621E-01
      21    -1     0     0   512   514  0.000000000E+00  0.000000000E+00  4.401828367E+00  4.401828367E+00  0.000000000E+00  0.00000E+00  9.000E+00
      21    -1     0     0   511   516  0.000000000E+00  0.000000000E+00 -2.872189751E+02  2.872189751E+02  0.000000000E+00  0.00000E+00  9.000E+00
      21     1     1     2   512   516 -1.627018917E+01 -1.078883363E+00 -2.425740667E+02  2.431214941E+02  2.697398305E-06  0.00000E+00  9.000E+00
      21     1     1     2   513   514  6.614496618E+00 -3.668813796E+00 -3.623692282E+01  3.701791912E+01  8.259061849E-07  0.00000E+00  9.000E+00
      21     1     1     2   511   513  9.655692552E+00  4.747697159E+00 -4.006157204E+00  1.148139027E+01  5.430241572E-07  0.00000E+00  9.000E+00
</event>
<event>
      5  10001  3.52971E+09  5.65109E+00 -1.00000E+00  2.29584E-01
      21    -1     0     0   514   515  0.000000000E+00  0.000000000E+00  5.508016182E+01  5.508016182E+01  0.000000000E+00  0.00000E+00  9.000E+00
      21    -1     0     0   515   512  0.000000000E+00  0.000000000E+00 -8.166425054E+00  8.166425054E+00  0.000000000E+00  0.00000E+00  9.000E+00
      -2     1     1     2     0   511 -7.614718333E+00  1.728322885E+00  1.250505494E+01  1.474640072E+01  3.300000131E-01  0.00000E+00  9.000E+00
      21     1     1     2   511   512  1.265594046E+01 -4.278808923E+00 -2.703491743E-01  1.336241458E+01  2.870408093E-07  0.00000E+00  9.000E+00
       2     1     1     2   514     0 -5.041222128E+00  2.550486038E+00  3.467903101E+01  3.513777157E+01  3.300000131E-01  0.00000E+00  9.000E+00
</event>
<event>
      5  10001  3.52971E+09  6.44830E+00 -1.00000E+00  2.20713E-01
      21    -1     0     0   512   515  0.000000000E+00  0.000000000E+00  6.196976721E+01  6.196976721E+01  0.000000000E+00  0.00000E+00  9.000E+00
       1    -1     0     0   515     0  0.000000000E+00  0.000000000E+00 -2.137992138E+02  2.137992138E+02  0.000000000E+00  0.00000E+00  9.000E+00
      21     1     1     2   511   513 -5.112528287E+00  5.591469674E+00 -2.485418911E+01  2.598332532E+01  1.215700987E-06  0.00000E+00  9.000E+00
       1     1     1     2   513     0  1.087336929E+01 -8.488558415E+00 -1.879575682E+02  1.884633708E+02  3.300000131E-01  0.00000E+00  9.000E+00
      21     1     1     2   512   511 -5.760841006E+00  2.897088741E+00  6.098231069E+01  6.132228494E+01  9.536743164E-07  0.00000E+00  9.000E+00
</event>
<event>
      5  10001 -3.52971E+09  4.90540E+00 -1.00000E+00  2.44192E-01
      21    -1     0     0   516   513  0.000000000E+00  0.000000000E+00  3.420653885E+01  3.420653885E+01  0.000000000E+00  0.00000E+00  9.000E+00
      21    -1     0     0   515   514  0.000000000E+00  0.000000000E+00 -7.760959057E+02  7.760959057E+02  0.000000000E+00  0.00000E+00  9.000E+00
      21     1     1     2   515   511 -6.413305567E+00  7.409196694E+00 -7.637390542E+02  7.638019178E+02  1.525878906E-05  0.00000E+00  9.000E+00
      21     1     1     2   511   513  1.131822182E+01 -7.478360324E+00 -8.333775313E+00  1.592104988E+01  1.599360450E-06  0.00000E+00  9.000E+00
      21     1     1     2   516   514 -4.904916252E+00  6.916362967E-02  3.018346268E+01  3.057947689E+01  1.305872339E-06  0.00000E+00  9.000E+00
</event>
<event>
      5  10001  3.52971E+09  9.20758E+00 -1.00000E+00  1.99990E-01
      21    -1     0     0   512   511  0.000000000E+00  0.000000000E+00  1.063033143E+03  1.063033143E+03  0.000000000E+00  0.00000E+00  9.000E+00
      -1    -1     0     0     0   517  0.000000000E+00  0.000000000E+00 -1.377361397E+02  1.377361397E+02  0.000000000E+00  0.00000E+00  9.000E+00
      21     1     1     2   512   517  1.350103292E+01 -9.154899428E+00  5.108978540E+01  5.363073974E+01  1.651812370E-06  0.00000E+00  9.000E+00
      21     1     1     2   515   511 -7.214904804E+00  2.427041559E+00  1.010503016E+03  1.010531688E+03  1.078959322E-05  0.00000E+00  9.000E+00
      -1     1     1     2     0   515 -6.286128115E+00  6.727857870E+00 -1.362957982E+02  1.366068556E+02  3.300000131E-01  0.00000E+00  9.000E+00
</event>
<event>
      5  10001  3.52971E+09  4.05903E+00 -1.00000E+00  2.61972E-01
      21    -1     0     0   513   511  0.000000000E+00  0.000000000E+00  1.937973183E+01  1.937973183E+01  0.000000000E+00  0.00000E+00  9.000E+00
      21    -1     0     0   514   512  0.000000000E+00  0.000000000E+00 -2.628784205E+02  2.628784205E+02  0.000000000E+00  0.00000E+00  9.000E+00
      21     1     1     2   515   511 -4.391423098E+00  1.287182353E+01  1.384983937E+01  1.941098885E+01  2.920019320E-07  0.00000E+00  9.000E+00
      21     1     1     2   514   515  4.216747944E+00 -8.816548764E+00 -6.004253426E+00  1.147011572E+01  2.230201594E-07  0.00000E+00  9.000E+00
      21     1     1     2   513   512  1.746751545E-01 -4.055274763E+00 -2.513442746E+02  2.513770477E+02  0.000000000E+00  0.00000E+00  9.000E+00
</event>
<event>
      5  10001  3.52971E+09  1.02766E+01 -1.00000E+00  1.94393E-01
      21    -1     0     0   516   512  0.000000000E+00  0.000000000E+00  8.466818079E+01  8.466818079E+01  0.000000000E+00  0.00000E+00  9.000E+00
      21    -1     0     0   511   517  0.000000000E+00  0.000000000E+00 -3.922077775E+01  3.922077775E+01  0.000000000E+00  0.00000E+00  9.000E+00
      21     1     1     2   516   517  1.809766785E+01 -1.070421245E+01  7.932035520E+01  8.205988359E+01  0.000000000E+00  0.00000E+00  9.000E+00
      21     1     1     2   511   514 -8.128878862E+00  1.407857483E+00 -2.286693899E+01  2.430962018E+01  9.536743164E-07  0.00000E+00  9.000E+00
      21     1     1     2   514   512 -9.968788992E+00  9.296354964E+00 -1.100601317E+01  1.751945477E+01  2.920019320E-07  0.00000E+00  9.000E+00
</event>
<event>
      5  10001  3.52971E+09  4.83568E+00 -1.00000E+00  2.45447E-01
      21    -1     0     0   515   511  0.000000000E+00  0.000000000E+00  3.277677440E+01  3.277677440E+01  0.000000000E+00  0.00000E+00  9.000E+00
       1    -1     0     0   512     0  0.000000000E+00  0.000000000E+00 -2.671338343E+02  2.671338343E+02  0.000000000E+00  0.00000E+00  9.000E+00
      21     1     1     2   512   511 -9.941289754E+00 -1.007406799E+01 -1.555656142E+02  1.562081189E+02  1.907348633E-06  0.00000E+00  9.000E+00
       1     1     1     2   513     0  1.065731118E+01  5.291731873E+00 -1.107461274E+02  1.113839950E+02  3.300000131E-01  0.00000E+00  9.000E+00
      21     1     1     2   515   513 -7.160214291E-01  4.782336120E+00  3.195468169E+01  3.231849482E+01  9.536743164E-07  0.00000E+00  9.000E+00
</event>
<event>
      5  10001  3.52971E+09  1.49986E+01 -1.00000E+00  1.77384E-01
      21    -1     0     0   514   513  0.000000000E+00  0.000000000E+00  5.328355434E+00  5.328355434E+00  0.000000000E+00  0.00000E+00  9.000E+00
      21    -1     0     0   513   515  0.000000000E+00  0.000000000E+00 -3.396788925E+01  3.396788925E+01  0.000000000E+00  0.00000E+00  9.000E+00
      -1     1     1     2     0   515  1.406593870E+00 -7.572735828E+00 -1.221281334E+01  1.444252553E+01  3.300000131E-01  0.00000E+00  9.000E+00
       1     1     1     2   511     0 -8.262114236E+00  3.964379289E+00 -3.564109621E+00  9.838222004E+00  3.300000131E-01  0.00000E+00  9.000E+00
      21     1     1     2   514   511  6.855520366E+00  3.608356539E+00 -1.286261086E+01  1.501549714E+01  2.920019320E-07  0.00000E+00  9.000E+00
</event>
<event>
      5  10001  3.52971E+09  7.47514E+00 -1.00000E+00  2.11595E-01
      21    -1     0     0   512   511  0.000000000E+00  0.000000000E+00  3.066590047E-01  3.066590047E-01  0.000000000E+00  0.00000E+00  9.000E+00
       2    -1     0     0   513     0  0.000000000E+00  0.000000000E+00 -2.149109606E+03  2.149109606E+03  0.000000000E+00  0.00000E+00  9.000E+00
      21     1     1     2   513   515  7.440842208E+00 -4.849256977E+00 -1.509728742E+02  1.512338922E+02  1.907348633E-06  0.00000E+00  9.000E+00
       2     1     1     2   512     0 -1.145477024E+01  4.421602611E+00 -1.972044381E+03  1.972082634E+03  3.300000131E-01  0.00000E+00  9.000E+00
      21     1     1     2   515   511  4.013928032E+00  4.276543659E-01 -2.578569164E+01  2.609973946E+01  1.994752947E-06  0.00000E+00  9.000E+00
</event>
<event>
      5  10001 -3.52971E+09  2.02267E+01 -1.00000E+00  1.65963E-01
      21    -1     0     0   514   515  0.000000000E+00  0.000000000E+00  5.190492492E+01  5.190492492E+01  0.000000000E+00  0.00000E+00  9.000E+00
      21    -1     0     0   513   511  0.000000000E+00  0.000000000E+00 -7.574879481E+02  7.574879481E+02  0.000000000E+00  0.00000E+00  9.000E+00
      21     1     1     2   514   511 -3.321646956E+00 -1.263270908E+01 -7.525710729E+02  7.526844216E+02  0.000000000E+00  0.00000E+00  9.000E+00
      21     1     1     2   513   512  1.143094984E+01 -1.439699235E+00  3.404087637E+01  3.593773243E+01  2.523185073E-06  0.00000E+00  9.000E+00
      21     1     1     2   512   515 -8.109302886E+00  1.407240831E+01  1.294717339E+01  2.077071900E+01  9.233911863E-07  0.00000E+00  9.000E+00
</event>
<event>
      5  10001  3.52971E+09  2.64452E+00 -1.00000E+00  3.14531E-01
      21    -1     0     0   516   511  0.000000000E+00  0.000000000E+00  2.201408716E+01  2.201408716E+01  0.000000000E+00  0.00000E+00  9.000E+00
      -3    -1     0     0     0   516  0.000000000E+00  0.000000000E+00 -2.162671468E+01  2.162671468E+01  0.000000000E+00  0.00000E+00  9.000E+00
      21     1     1     2   515   517  1.055868929E+01 -3.870984451E+00 -3.340101719E+00  1.173144150E+01  3.039252468E-07  0.00000E+00  9.000E+00
      21     1     1     2   517   511 -9.442570655E+00  1.474172691E+00  1.638526810E+01  1.896871994E+01  2.384185791E-07  0.00000E+00  9.000E+00
      -3     1     1     2     0   515 -1.116118634E+00  2.396811760E+00 -1.265779390E+01  1.294064040E+01  5.000000000E-01  0.00000E+00  9.000E+00
</event>
<event>
      5  10001  3.52971E+09  1.89093E+00 -1.00000E+00  3.74814E-01
      21    -1     0     0   512   515  0.000000000E+00  0.000000000E+00  2.026218630E+01  2.026218630E+01  0.000000000E+00  0.00000E+00  9.000E+00
      21    -1     0     0   513   511  0.000000000E+00  0.000000000E+00 -4.107424669E+01  4.107424669E+01  0.000000000E+00  0.00000E+00  9.000E+00
      21     1     1     2   513   514 -9.497010225E+00  5.930652779E+00 -1.239400977E+01  1.670261428E+01  2.384185791E-07  0.00000E+00  9.000E+00
      21     1     1     2   514   515  1.018337489E+01 -4.168691924E+00  1.639695101E+01  1.974687618E+01  2.384185791E-07  0.00000E+00  9.000E+00
      21     1     1     2   512   511 -6.863646630E-01 -1.761960855E+00 -2.481500163E+01  2.488694253E+01  0.000000000E+00  0.00000E+00  9.000E+00
</event>
<event>
      5  10001  3.52971E+09  9.04855E+00 -1.00000E+00  2.00909E-01
      21    -1     0     0   516   511  0.000000000E+00  0.000000000E+00  1.413384831E+01  1.413384831E+01  0.000000000E+00  0.00000E+00  9.000E+00
      21    -1     0     0   513   517  0.000000000E+00  0.000000000E+00 -1.137021839E+01  1.137021839E+01  0.000000000E+00  0.00000E+00  9.000E+00
      21     1     1     2   516   517 -1.115676474E+01 -4.457539801E+00 -8.145510397E-01  1.204186671E+01  1.611807022E-07  0.00000E+00  9.000E+00
      21     1     1     2   514   511  2.457077170E+00  7.091244437E-01 -1.231303701E+00  2.838343620E+00  4.942156062E-08  0.00000E+00  9.000E+00
      21     1     1     2   513   514  8.699687570E+00  3.748415358E+00  4.809484655E+00  1.062385637E+01  1.192092896E-07  0.00000E+00  9.000E+00
</event>
<event>
      5  10001  3.52971E+09  9.50367E+00 -1.00000E+00  1.98343E-01
      21    -1     0     0   512   514  0.000000000E+00  0.000000000E+00  3.763911369E+01  3.763911369E+01  0.000000000E+00  0.00000E+00  9.000E+00
      21    -1     0     0   513   515  0.000000000E+00  0.000000000E+00 -4.483884059E+00  4.483884059E+00  0.000000000E+00  0.00000E+00  9.000E+00
      21     1     1     2   512   515  5.344217558E-01 -1.023485480E+01  5.538661714E+00  1.164966236E+01  1.460009660E-07  0.00000E+00  9.000E+00
      21     1     1     2   511   514 -3.344715279E+00  4.615772737E+00  7.640357259E+00  9.532446554E+00  1.884864366E-07  0.00000E+00  9.000E+00
      21     1     1     2   513   511  2.810293523E+00  5.619082068E+00  1.997621066E+01  2.094088884E+01  2.384185791E-07  0.00000E+00  9.000E+00
</event>
<event>
      5  10001  3.52971E+09  8.07531E+00 -1.00000E+00  2.07135E-01
      21    -1     0     0   516   512  0.000000000E+00  0.000000000E+00  3.964442123E+02  3.964442123E+02  0.000000000E+00  0.00000E+00  9.000E+00
      21    -1     0     0   513   517  0.000000000E+00  0.000000000E+00 -7.877831094E+01  7.877831094E+01  0.000000000E+00  0.00000E+00  9.000E+00
      21     1     1     2   516   517 -2.435880137E-01  1.249475526E+01  3.083481654E+02  3.086013113E+02  3.814697266E-06  0.00000E+00  9.000E+00
      21     1     1     2   513   511 -5.564770368E+00 -6.884617595E+00 -7.821621124E+01  7.871556599E+01  1.651812370E-06  0.00000E+00  9.000E+00
      21     1     1     2   511   512  5.808358381E+00 -5.610137667E+00  8.753394716E+01  8.790564588E+01  0.000000000E+00  0.00000E+00  9.000E+00
</event>
<event>
      5  10001  3.52971E+09  5.86218E+00 -1.00000E+00  2.27044E-01
      21    -1     0     0   514   513  0.000000000E+00  0.000000000E+00  1.323038819E+02  1.323038819E+02  0.000000000E+00  0.00000E+00  9.000E+00
      21    -1     0     0   515   512  0.000000000E+00  0.000000000E+00 -8.006665655E+00  8.006665655E+00  0.000000000E+00  0.00000E+00  9.000E+00
      21     1     1     2   514   512 -1.504060994E+01  1.911753450E+00  1.415864071E-01  1.516228199E+01  3.722774878E-07  0.00000E+00  9.000E+00
      21     1     1     2   516   513  6.701732717E+00 -1.264536421E+00  3.991606495E+01  4.049449981E+01  6.743495762E-07  0.00000E+00  9.000E+00
      21     1     1     2   515   516  8.338877222E+00 -6.472170296E-01  8.423956488E+01  8.465376574E+01  0.000000000E+00  0.00000E+00  9.000E+00
</event>
<event>
      5  10001  3.52971E+09  7.96519E+00 -1.00000E+00  2.07913E-01
      21    -1     0     0   511   512  0.000000000E+00  0.000000000E+00  4.777002638E+02  4.777002638E+02  0.000000000E+00  0.00000E+00  9.000E+00
      21    -1     0     0   513   517  0.000000000E+00  0.000000000E+00 -2.525047233E+00  2.525047233E+00  0.000000000E+00  0.00000E+00  9.000E+00
      21     1     1     2   511   517  9.468307809E+00 -1.657620867E+01  4.085355472E+02  4.089813111E+02  5.394796609E-06  0.00000E+00  9.000E+00
      21     1     1     2   515   512 -8.493170428E+00  8.670932464E+00  5.890090915E+01  6.013847447E+01  3.090257978E-06  0.00000E+00  9.000E+00
      21     1     1     2   513   515 -9.751373817E-01  7.905276209E+00  7.738760227E+00  1.110552541E+01  7.251217997E-07  0.00000E+00  9.000E+00
</event>
<event>
      5  10001  3.52971E+09  6.51001E+00 -1.00000E+00  2.20101E-01
      21    -1     0     0   514   515  0.000000000E+00  0.000000000E+00  1.228961620E+00  1.228961620E+00  0.000000000E+00  0.00000E+00  9.000E+00
      21    -1     0     0   513   516  0.000000000E+00  0.000000000E+00 -2.304333665E+02  2.304333665E+02  0.000000000E+00  0.00000E+00  9.000E+00
      21     1     1     2   514   516  9.735640701E+00  2.839104560E+00 -2.325054933E+01  2.536594683E+01  6.743495762E-07  0.00000E+00  9.000E+00
      21     1     1     2   513   511 -3.483971495E+00 -4.219220155E+00 -9.894304933E+01  9.909423236E+01  0.000000000E+00  0.00000E+00  9.000E+00
      21     1     1     2   511   515 -6.251669205E+00  1.380115595E+00 -1.070108062E+02  1.072021489E+02  1.348699152E-06  0.00000E+00  9.000E+00
</event>
<event>
      5  10001  3.52971E+09  1.92984E+01 -1.00000E+00  1.67655E-01
      21    -1     0     0   512   513  0.000000000E+00  0.000000000E+00  2.696271318E+01  2.696271318E+01  0.000000000E+00  0.00000E+00  9.000E+00
      21    -1     0     0   517   515  0.000000000E+00  0.000000000E+00 -4.374896056E+00  4.374896056E+00  0.000000000E+00  0.00000E+00  9.000E+00
      21     1     1     2   512   515  4.110495170E+00  3.786607770E+00  3.629060235E+00  6.663681200E+00  1.519626234E-07  0.00000E+00  9.000E+00
      21     1     1     2   517   514  5.131110627E+00 -2.185029526E+00  3.475313033E+00  6.571183376E+00  1.460009660E-07  0.00000E+00  9.000E+00
      21     1     1     2   514   513 -9.241605797E+00 -1.601578244E+00  1.548344385E+01  1.810274466E+01  2.920019320E-07  0.00000E+00  9.000E+00
</event>
<event>
      5  10001  3.52971E+09  3.91813E+00 -1.00000E+00  2.65596E-01
      21    -1     0     0   514   513  0.000000000E+00  0.000000000E+00  1.105499157E+00  1.105499157E+00  0.000000000E+00  0.00000E+00  9.000E+00
      -4    -1     0     0     0   511  0.000000000E+00  0.000000000E+00 -2.426759039E+02  2.426759039E+02  0.000000000E+00  0.00000E+00  9.000E+00
      -4     1     1     2     0   513  1.080066025E+01  6.386962766E+00 -4.365234278E+01  4.544474211E+01  1.500000000E+00  0.00000E+00  9.000E+00
      -2     1     1     2     0   511 -4.464079708E+00 -2.407780404E+00 -5.977104383E+01  5.998676516E+01  3.300000131E-01  0.00000E+00  9.000E+00
       2     1     1     2   514     0 -6.336580538E+00 -3.979182362E+00 -1.381470181E+02  1.383498958E+02  3.300000131E-01  0.00000E+00  9.000E+00
</event>
<event>
      5  10001  3.52971E+09  7.15627E+00 -1.00000E+00  2.14202E-01
      21    -1     0     0   512   516  0.000000000E+00  0.000000000E+00  4.549684362E+01  4.549684362E+01  0.000000000E+00  0.00000E+00  9.000E+00
      21    -1     0     0   513   515  0.000000000E+00  0.000000000E+00 -2.998479916E+00  2.998479916E+00  0.000000000E+00  0.00000E+00  9.000E+00
      21     1     1     2   512   515  4.829484970E+00 -8.888621284E+00  1.500650949E+01  1.809770263E+01  1.685873940E-07  0.00000E+00  9.000E+00
      21     1     1     2   511   516  4.119336322E-01  7.353287282E+00  1.351253184E+01  1.538925079E+01  1.685873940E-07  0.00000E+00  9.000E+00
      21     1     1     2   513   511 -5.241418603E+00  1.535334003E+00  1.397932238E+01  1.500837012E+01  1.685873940E-07  0.00000E+00  9.000E+00
</event>
<event>
      5  10001  3.52971E+09  9.85518E+00 -1.00000E+00  1.96488E-01
      21    -1     0     0   513   511  0.000000000E+00  0.000000000E+00  4.393936979E+00  4.393936979E+00  0.000000000E+00  0.00000E+00  9.000E+00
      21    -1     0     0   512   514  0.000000000E+00  0.000000000E+00 -7.376099916E+02  7.376099916E+02  0.000000000E+00  0.00000E+00  9.000E+00
      -3     1     1     2     0   511 -2.781786819E+00 -1.440060926E+01 -5.654982018E+02  5.656885911E+02  5.000000000E-01  0.00000E+00  9.000E+00
      21     1     1     2   513   514  1.093397814E+01  8.864656934E+00 -7.798610603E+00  1.609199639E+01  1.218619841E-06  0.00000E+00  9.000E+00
       3     1     1     2   512     0 -8.152191321E+00  5.535952322E+00 -1.599192423E+02  1.602233411E+02  5.000000000E-01  0.00000E+00  9.000E+00
</event>
<event>
      5  10001  3.52971E+09  1.19848E+01 -1.00000E+00  1.87082E-01
      21    -1     0     0   515   513  0.000000000E+00  0.000000000E+00  2.606284675E+02  2.606284675E+02  0.000000000E+00  0.00000E+00  9.000E+00
      21    -1     0     0   512   515  0.000000000E+00  0.000000000E+00 -9.611336050E+01  9.611336050E+01  0.000000000E+00  0.00000E+00  9.000E+00
      21     1     1     2   512   516 -1.419809750E+01 -1.114217321E+00 -9.275280170E+01  9.383980859E+01  1.907348633E-06  0.00000E+00  9.000E+00
      21     1     1     2   516   511  1.306992230E+01 -1.081741132E+01  2.435930485E+01  2.968526552E+01  0.000000000E+00  0.00000E+00  9.000E+00
      21     1     1     2   511   513  1.128175204E+00  1.193162864E+01  2.329086038E+02  2.332167538E+02  0.000000000E+00  0.00000E+00  9.000E+00
</event>
<event>
      5  10001  3.52971E+09  1.05456E+01 -1.00000E+00  1.93123E-01
      21    -1     0     0   515   512  0.000000000E+00  0.000000000E+00  2.422121972E+02  2.422121972E+02  0.000000000E+00  0.00000E+00  9.000E+00
       1    -1     0     0   512     0  0.000000000E+00  0.000000000E+00 -3.276671020E+01  3.276671020E+01  0.000000000E+00  0.00000E+00  9.000E+00
      21     1     1     2   514   511  1.154277020E+01  1.542282503E+01  1.310363153E+02  1.324447621E+02  1.907348633E-06  0.00000E+00  9.000E+00
       1     1     1     2   511     0 -2.577278781E+00 -9.870480757E+00 -3.099016343E+01  3.262771653E+01  3.300000131E-01  0.00000E+00  9.000E+00
      21     1     1     2   515   514 -8.965491422E+00 -5.552344272E+00  1.093993351E+02  1.099064288E+02  0.000000000E+00  0.00000E+00  9.000E+00
</event>
<event>
      5  10001  3.52971E+09  6.19105E+00 -1.00000E+00  2.23372E-01
       3    -1     0     0   514     0  0.000000000E+00  0.000000000E+00  6.724111001E+02  6.724111001E+02  0.000000000E+00  0.00000E+00  9.000E+00
      21    -1     0     0   511   512  0.000000000E+00  0.000000000E+00 -1.674181382E+01  1.674181382E+01  0.000000000E+00  0.00000E+00  9.000E+00
      21     1     1     2   511   513 -6.257489804E+00  1.406050039E+01  1.957289986E+02  1.963331219E+02  3.814697266E-06  0.00000E+00  9.000E+00
       3     1     1     2   513     0  1.758496397E+00 -1.831344704E+01  4.756128177E+02  4.759687774E+02  5.000000000E-01  0.00000E+00  9.000E+00
      21     1     1     2   514   512  4.498993407E+00  4.252946652E+00 -1.567253005E+01  1.685101466E+01  4.460403188E-07  0.00000E+00  9.000E+00
</event>
<event>
      5  10001  3.52971E+09  1.06262E+01 -1.00000E+00  1.92752E-01
      21    -1     0     0   515   511  0.000000000E+00  0.000000000E+00  4.623122895E+01  4.623122895E+01  0.000000000E+00  0.00000E+00  9.000E+00
      21    -1     0     0   513   515  0.000000000E+00  0.000000000E+00 -3.186851790E+01  3.186851790E+01  0.000000000E+00  0.00000E+00  9.000E+00
      21     1     1     2   512   511  6.464787336E+00  1.115461159E+01  4.063712842E+01  4.263326215E+01  8.259061849E-07  0.00000E+00  9.000E+00
      21     1     1     2   516   512 -1.049543608E+01 -1.322529649E+00 -5.031496969E+00  1.171406100E+01  6.279738994E-07  0.00000E+00  9.000E+00
      21     1     1     2   513   516  4.030648748E+00 -9.832081942E+00 -2.124292040E+01  2.375242370E+01  2.384185791E-07  0.00000E+00  9.000E+00
</event>
<event>
      5  10001  3.52971E+09  5.30857E+00 -1.00000E+00  2.34053E-01
      21    -1     0     0   512   513  0.000000000E+00  0.000000000E+00  5.075067911E+01  5.075067911E+01  0.000000000E+00  0.00000E+00  9.000E+00
      -2    -1     0     0     0   511  0.000000000E+00  0.000000000E+00 -2.633107439E+01  2.633107439E+01  0.000000000E+00  0.00000E+00  9.000E+00
      -2     1     1     2     0   513 -7.857014575E+00 -1.437813901E+01 -1.512265177E+01  2.229948555E+01  3.300000131E-01  0.00000E+00  9.000E+00
      21     1     1     2   512   514  3.719084705E+00  1.770334739E+01  4.417572708E+01  4.773609707E+01  4.768371582E-07  0.00000E+00  9.000E+00
      21     1     1     2   514   511  4.137929870E+00 -3.325208382E+00 -4.633470596E+00  7.046170886E+00  1.192092896E-07  0.00000E+00  9.000E+00
</event>
<event>
      5  10001  3.52971E+09  1.21493E+01 -1.00000E+00  1.86461E-01
      21    -1     0     0   515   513  0.000000000E+00  0.000000000E+00  1.315319730E+03  1.315319730E+03  0.000000000E+00  0.00000E+00  9.000E+00
      21    -1     0     0   516   515  0.000000000E+00  0.000000000E+00 -9.091469261E-02  9.091469261E-02  0.000000000E+00  0.00000E+00  9.000E+00
      21     1     1     2   516   511  5.129915714E+00 -5.132704283E+00  5.561063555E+02  5.561537011E+02  1.078959322E-05  0.00000E+00  9.000E+00
      21     1     1     2   512   513 -3.098486257E+00  3.233638639E-01  4.196297760E+01  4.207845851E+01  1.784161275E-06  0.00000E+00  9.000E+00
      21     1     1     2   511   512 -2.031429457E+00  4.809340420E+00  7.171594822E+02  7.171784851E+02  1.078959322E-05  0.00000E+00  9.000E+00
</event>
<event>
      5  10001  3.52971E+09  2.92049E+00 -1.00000E+00  3.00442E-01
      -3    -1     0     0     0   514  0.000000000E+00  0.000000000E+00  2.632676882E+01  2.632676882E+01  0.000000000E+00  0.00000E+00  9.000E+00
      21    -1     0     0   514   516  0.000000000E+00  0.000000000E+00 -6.560209685E+01  6.560209685E+01  0.000000000E+00  0.00000E+00  9.000E+00
      -3     1     1     2     0   513 -7.453327590E+00  1.318387939E+01  1.986034043E+01  2.498099057E+01  5.000000000E-01  0.00000E+00  9.000E+00
      21     1     1     2   513   515  5.126315589E+00 -1.141934099E+01 -6.266654340E+00  1.399826478E+01  4.693274423E-07  0.00000E+00  9.000E+00
      21     1     1     2   515   516  2.327012001E+00 -1.764538397E+00 -5.286901411E+01  5.294961032E+01  9.536743164E-07  0.00000E+00  9.000E+00
</event>
<event>
      5  10001  3.52971E+09  6.00055E+00 -1.00000E+00  2.25459E-01
      21    -1     0     0   512   513  0.000000000E+00  0.000000000E+00  5.920799166E+01  5.920799166E+01  0.000000000E+00  0.00000E+00  9.000E+00
       2    -1     0     0   513     0  0.000000000E+00  0.000000000E+00 -5.083804540E+00  5.083804540E+00  0.000000000E+00  0.00000E+00  9.000E+00
      21     1     1     2   514   511  1.148306383E+00  9.885342754E+00  2.654709155E+01  2.835113188E+01  3.371747881E-07  0.00000E+00  9.000E+00
       2     1     1     2   511     0 -4.320184754E+00 -1.151726317E+01  5.331059475E+00  1.341046018E+01  3.300000131E-01  0.00000E+00  9.000E+00
      21     1     1     2   512   514  3.171878371E+00  1.631920415E+00  2.224603609E+01  2.253020414E+01  2.384185791E-07  0.00000E+00  9.000E+00
</event>
<event>
      5  10001  3.52971E+09  3.90752E+00 -1.00000E+00  2.65878E-01
      -4    -1     0     0     0   514  0.000000000E+00  0.000000000E+00  4.287014740E+01  4.287014740E+01  0.000000000E+00  0.00000E+00  9.000E+00
      21    -1     0     0   512   511  0.000000000E+00  0.000000000E+00 -1.419087833E+01  1.419087833E+01  0.000000000E+00  0.00000E+00  9.000E+00
      -4     1     1     2     0   515  8.455780297E+00 -9.199338211E+00  3.762398402E+01  3.967294062E+01  1.500000000E+00  0.00000E+00  9.000E+00
      21     1     1     2   512   514 -4.555181358E+00  9.357649436E+00 -8.541046341E+00  1.346345991E+01  2.665600750E-07  0.00000E+00  9.000E+00
      21     1     1     2   515   511 -3.900598939E+00 -1.583112256E-01 -4.036686128E-01  3.924625189E+00  7.652729222E-08  0.00000E+00  9.000E+00
</event>
<event>
      5  10001  3.52971E+09  1.30949E+01 -1.00000E+00  1.83123E-01
      21    -1     0     0   513   511  0.000000000E+00  0.000000000E+00  7.444704843E+01  7.444704843E+01  0.000000000E+00  0.00000E+00  9.000E+00
       2    -1     0     0   515     0  0.000000000E+00  0.000000000E+00 -9.476496173E+02  9.476496173E+02  0.000000000E+00  0.00000E+00  9.000E+00
      21     1     1     2   513   516 -1.002927198E+01 -1.225087269E+01 -1.075417684E+01  1.913955323E+01  2.064765462E-07  0.00000E+00  9.000E+00
      21     1     1     2   515   511  1.267979314E+01 -5.729454020E-01  6.963467164E+01  7.078200982E+01  9.536743164E-07  0.00000E+00  9.000E+00
       2     1     1     2   516     0 -2.650521161E+00  1.282381809E+01 -9.320830637E+02  9.321751027E+02  3.300000131E-01  0.00000E+00  9.000E+00
</event>
<event>
      5  10001  3.52971E+09  4.12675E+00 -1.00000E+00  2.60310E-01
      21    -1     0     0   512   511  0.000000000E+00  0.000000000E+00  9.260812384E+02  9.260812384E+02  0.000000000E+00  0.00000E+00  9.000E+00
       2    -1     0     0   514     0  0.000000000E+00  0.000000000E+00 -8.014439337E+02  8.014439337E+02  0.000000000E+00  0.00000E+00  9.000E+00
      21     1     1     2   515   511  1.919648433E-01  1.117435103E+01  9.178272977E+02  9.178953379E+02  1.078959322E-05  0.00000E+00  9.000E+00
      21     1     1     2   514   515 -3.592964874E+00 -1.351172049E+01  2.265444682E+00  1.416362337E+01  2.121623961E-06  0.00000E+00  9.000E+00
       2     1     1     2   512     0  3.401000031E+00  2.337369459E+00 -7.954554378E+02  7.954662108E+02  3.300000131E-01  0.00000E+00  9.000E+00
</event>
<event>
      5  10001  3.52971E+09  1.24979E+01 -1.00000E+00  1.85187E-01
      21    -1     0     0   513   511  0.000000000E+00  0.000000000E+00  5.900603946E+00  5.900603946E+00  0.000000000E+00  0.00000E+00  9.000E+00
      21    -1     0     0   516   513  0.000000000E+00  0.000000000E+00 -6.892078095E+01  6.892078095E+01  0.000000000E+00  0.00000E+00  9.000E+00
      21     1     1     2   516   517 -1.300171009E+01  2.264623635E+00 -5.485948596E+01  5.642460620E+01  6.743495762E-07  0.00000E+00  9.000E+00
      21     1     1     2   517   514  8.060769363E+00 -5.451762809E-01 -9.995876177E+00  1.285265577E+01  1.192092896E-07  0.00000E+00  9.000E+00
      21     1     1     2   514   511  4.940940731E+00 -1.719447355E+00  1.835185129E+00  5.544122921E+00  2.179851955E-07  0.00000E+00  9.000E+00
</event>
<event>
      5  10001  3.52971E+09  1.87255E+01 -1.00000E+00  1.68760E-01
      21    -1     0     0   512   516  0.000000000E+00  0.000000000E+00  1.115218606E+00  1.115218606E+00  0.000000000E+00  0.00000E+00  9.000E+00
      21    -1     0     0   511   512  0.000000000E+00  0.000000000E+00 -1.927254070E+03  1.927254070E+03  0.000000000E+00  0.00000E+00  9.000E+00
      21     1     1     2   511   515  6.990000264E+00 -7.831421923E+00 -1.562917901E+03  1.562953153E+03  0.000000000E+00  0.00000E+00  9.000E+00
      21     1     1     2   515   513 -1.642530300E+01  1.141992320E+01 -9.892643792E+01  1.009289123E+02  4.862803949E-06  0.00000E+00  9.000E+00
      21     1     1     2   513   516  9.435302737E+00 -3.588501279E+00 -2.642945115E+02  2.644872230E+02  5.394796609E-06  0.00000E+00  9.000E+00
</event>
<event>
      5  10001  3.52971E+09  1.61344E+01 -1.00000E+00  1.74448E-01
      21    -1     0     0   514   511  0.000000000E+00  0.000000000E+00  3.217944673E+01  3.217944673E+01  0.000000000E+00  0.00000E+00  9.000E+00
      21    -1     0     0   516   514  0.000000000E+00  0.000000000E+00 -1.042222819E+01  1.042222819E+01  0.000000000E+00  0.00000E+00  9.000E+00
      21     1     1     2   517   511  1.058572194E+01 -7.721117871E+00  1.629205665E+01  2.090703901E+01  0.000000000E+00  0.00000E+00  9.000E+00
      21     1     1     2   516   512 -5.149484188E+00 -1.007250120E+00 -4.838744873E+00  7.137590080E+00  1.976862425E-07  0.00000E+00  9.000E+00
      21     1     1     2   512   517 -5.436237755E+00  8.728367992E+00  1.030390676E+01  1.455704583E+01  1.685873940E-07  0.00000E+00  9.000E+00
</event>
<event>
      5  10001  3.52971E+09  3.01853E+01 -1.00000E+00  1.52852E-01
      21    -1     0     0   513   511  0.000000000E+00  0.000000000E+00  3.926965274E+01  3.926965274E+01  0.000000000E+00  0.00000E+00  9.000E+00
      21    -1     0     0   515   513  0.000000000E+00  0.000000000E+00 -2.161560499E+01  2.161560499E+01  0.000000000E+00  0.00000E+00  9.000E+00
      21     1     1     2   515   517  1.309671644E+01 -2.464217410E+00 -1.511224523E+01  2.014885369E+01  3.769728732E-07  0.00000E+00  9.000E+00
      21     1     1     2   517   514 -7.698354264E+00  6.523816894E+00  3.468828381E+00  1.067040841E+01  5.960464478E-08  0.00000E+00  9.000E+00
      21     1     1     2   514   511 -5.398362177E+00 -4.059599484E+00  2.929746459E+01  3.006599564E+01  0.000000000E+00  0.00000E+00  9.000E+00
</event>
<event>
      5  10001  3.52971E+09  9.36142E+00 -1.00000E+00  1.99125E-01
      21    -1     0     0   512   515  0.000000000E+00  0.000000000E+00  4.611919900E+00  4.611919900E+00  0.000000000E+00  0.00000E+00  9.000E+00
      21    -1     0     0   511   513  0.000000000E+00  0.000000000E+00 -1.058140512E+03  1.058140512E+03  0.000000000E+00  0.00000E+00  9.000E+00
      -4     1     1     2     0   513 -3.933123650E+01  2.057019234E+00 -8.235081037E+02  8.244507410E+02  1.500000000E+00  0.00000E+00  9.000E+00
       4     1     1     2   512     0  2.997880386E+01 -1.743536869E+00 -2.262075386E+02  2.281969963E+02  1.500000000E+00  0.00000E+00  9.000E+00
      21     1     1     2   511   515  9.352432643E+00 -3.134823651E-01 -3.812949880E+00  1.010469467E+01  3.931196320E-07  0.00000E+00  9.000E+00
</event>
<event>
      5  10001  3.52971E+09  3.96200E+01 -1.00000E+00  1.45095E-01
       2    -1     0     0   511     0  0.000000000E+00  0.000000000E+00  4.268248948E+02  4.268248948E+02  0.000000000E+00  0.00000E+00  9.000E+00
      21    -1     0     0   513   512  0.000000000E+00  0.000000000E+00 -7.959743518E+01  7.959743518E+01  0.000000000E+00  0.00000E+00  9.000E+00
      21     1     1     2   511   512  2.221616927E+01  3.681958882E+01  1.530631626E+01  4.564563085E+01  2.437239683E-06  0.00000E+00  9.000E+00
       2     1     1     2   514     0  1.648118362E+01 -4.532004283E+01  3.886232249E+02  3.916039524E+02  3.300000131E-01  0.00000E+00  9.000E+00
      21     1     1     2   513   514 -3.869735290E+01  8.500454000E+00 -5.670208155E+01  6.917274674E+01  1.651812370E-06  0.00000E+00  9.000E+00
</event>
<event>
      5  10001  3.52971E+09  3.95126E+00 -1.00000E+00  2.64723E-01
      21    -1     0     0   515   512  0.000000000E+00  0.000000000E+00  9.954796358E+00  9.954796358E+00  0.000000000E+00  0.00000E+00  9.000E+00
      21    -1     0     0   513   516  0.000000000E+00  0.000000000E+00 -1.550723951E+01  1.550723951E+01  0.000000000E+00  0.00000E+00  9.000E+00
      21     1     1     2   515   516  1.082502764E+01 -1.958531275E+00  2.935167524E+00  1.138561710E+01  2.665600750E-07  0.00000E+00  9.000E+00
      21     1     1     2   513   511 -3.006277280E+00  4.866378844E-01 -1.156192181E+00  3.257499021E+00  2.580956828E-08  0.00000E+00  9.000E+00
      21     1     1     2   511   512 -7.818750365E+00  1.471893390E+00 -7.331418491E+00  1.081891975E+01  3.153981341E-07  0.00000E+00  9.000E+00
</event>
<event>
      5  10001  3.52971E+09  4.59277E+00 -1.00000E+00  2.50079E-01
      21    -1     0     0   514   513  0.000000000E+00  0.000000000E+00  6.121223019E+01  6.121223019E+01  0.000000000E+00  0.00000E+00  9.000E+00
      21    -1     0     0   517   512  0.000000000E+00  0.000000000E+00 -1.693415715E+01  1.693415715E+01  0.000000000E+00  0.00000E+00  9.000E+00
      21     1     1     2   514   512  1.008976884E+01  3.922207208E-02 -1.445054303E+01  1.762450475E+01  2.384185791E-07  0.00000E+00  9.000E+00
      21     1     1     2   517   515 -1.166815932E+01 -2.224642659E+00  4.967473225E+01  5.107517989E+01  6.743495762E-07  0.00000E+00  9.000E+00
      21     1     1     2   515   513  1.578390482E+00  2.185420587E+00  9.053883819E+00  9.446702698E+00  1.192092896E-07  0.00000E+00  9.000E+00
</event>
<event>
      5  10001  3.52971E+09  1.03568E+01 -1.00000E+00  1.94009E-01
      21    -1     0     0   515   513  0.000000000E+00  0.000000000E+00  3.256250736E+00  3.256250736E+00  0.000000000E+00  0.00000E+00  9.000E+00
       4    -1     0     0   513     0  0.000000000E+00  0.000000000E+00 -2.984477652E+02  2.984477652E+02  0.000000000E+00  0.00000E+00  9.000E+00
      21     1     1     2   512   511  2.828247635E+00  7.026955968E+00 -8.607187333E+00  1.146563425E+01  5.196212463E-07  0.00000E+00  9.000E+00
       4     1     1     2   511     0  3.714406272E+00 -1.201386052E+01 -2.782144214E+02  2.785025025E+02  1.500000000E+00  0.00000E+00  9.000E+00
      21     1     1     2   515   512 -6.542653907E+00  4.986904556E+00 -8.369905767E+00  1.173587916E+01  5.057621821E-07  0.00000E+00  9.000E+00
</event>
<event>
      5  10001  3.52971E+09  7.70890E+00 -1.00000E+00  2.09792E-01
      21    -1     0     0   514   511  0.000000000E+00  0.000000000E+00  5.391518202E+01  5.391518202E+01  0.000000000E+00  0.00000E+00  9.000E+00
      21    -1     0     0   513   514  0.000000000E+00  0.000000000E+00 -4.768256002E+00  4.768256002E+00  0.000000000E+00  0.00000E+00  9.000E+00
      21     1     1     2   513   512 -1.788587009E+00 -9.499738188E+00  3.531185471E+00  1.029142070E+01  1.397852826E-07  0.00000E+00  9.000E+00
      21     1     1     2   516   511  6.423071909E+00  7.968765870E+00  3.793656818E+01  3.929300558E+01  9.536743164E-07  0.00000E+00  9.000E+00
      21     1     1     2   512   516 -4.634484900E+00  1.530972318E+00  7.679172371E+00  9.099011750E+00  1.685873940E-07  0.00000E+00  9.000E+00
</event>
<event>
      5  10001  3.52971E+09  9.16559E+00 -1.00000E+00  2.00231E-01
      21    -1     0     0   515   511  0.000000000E+00  0.000000000E+00  3.995088538E-01  3.995088538E-01  0.000000000E+00  0.00000E+00  9.000E+00
       1    -1     0     0   512     0  0.000000000E+00  0.000000000E+00 -1.107107077E+03  1.107107077E+03  0.000000000E+00  0.00000E+00  9.000E+00
      21     1     1     2   513   511 -1.450154241E+00 -4.446860348E-01 -1.695700727E+01  1.702471111E+01  4.129530925E-07  0.00000E+00  9.000E+00
       1     1     1     2   515     0  6.816231363E+00  7.923417774E+00 -1.027617239E+03  1.027670443E+03  3.300000131E-01  0.00000E+00  9.000E+00
      21     1     1     2   512   513 -5.366077122E+00 -7.478731739E+00 -6.213332147E+01  6.281143088E+01  2.939421655E-06  0.00000E+00  9.000E+00
</event>
<event>
      5  10001  3.52971E+09  4.73780E+00 -1.00000E+00  2.47263E-01
      21    -1     0     0   515   514  0.000000000E+00  0.000000000E+00  6.632927206E+01  6.632927206E+01  0.000000000E+00  0.00000E+00  9.000E+00
       3    -1     0     0   511     0  0.000000000E+00  0.000000000E+00 -4.242994813E+01  4.242994813E+01  0.000000000E+00  0.00000E+00  9.000E+00
      21     1     1     2   511   514 -1.553156048E+01 -1.163962027E+01  2.116830196E+00  1.952411588E+01  3.053829302E-07  0.00000E+00  9.000E+00
       3     1     1     2   512     0  1.086799787E+01  1.247432194E+01 -3.158417641E+01  3.565855136E+01  5.000000000E-01  0.00000E+00  9.000E+00
      21     1     1     2   515   512  4.663562608E+00 -8.347016677E-01  5.336667014E+01  5.357655294E+01  9.536743164E-07  0.00000E+00  9.000E+00
</event>
<event>
      5  10001  3.52971E+09  4.91679E+00 -1.00000E+00  2.43990E-01
      21    -1     0     0   513   511  0.000000000E+00  0.000000000E+00  9.813886590E-01  9.813886590E-01  0.000000000E+00  0.00000E+00  9.000E+00
      -4    -1     0     0     0   513  0.000000000E+00  0.000000000E+00 -6.501881115E+02  6.501881115E+02  0.000000000E+00  0.00000E+00  9.000E+00
      -4     1     1     2     0   514  5.870080872E+00  4.055194208E+00 -5.510099476E+02  5.510581773E+02  1.500000000E+00  0.00000E+00  9.000E+00
      21     1     1     2   515   511 -1.006516648E+01 -2.885959584E+00 -2.998400286E+01  3.175967201E+01  1.168007728E-06  0.00000E+00  9.000E+00
      21     1     1     2   514   515  4.195085609E+00 -1.169234624E+00 -6.821277233E+01  6.835165076E+01  1.348699152E-06  0.00000E+00  9.000E+00
</event>
<event>
      5  10001  3.52971E+09  5.34578E+00 -1.00000E+00  2.33545E-01
      21    -1     0     0   515   511  0.000000000E+00  0.000000000E+00  2.967976836E+02  2.967976836E+02  0.000000000E+00  0.00000E+00  9.000E+00
      21    -1     0     0   512   515  0.000000000E+00  0.000000000E+00 -8.586065091E-01  8.586065091E-01  0.000000000E+00  0.00000E+00  9.000E+00
      21     1     1     2   513   511 -2.453323727E+00 -6.278022194E+00  1.956162124E+02  1.957323042E+02  2.697398305E-06  0.00000E+00  9.000E+00
       1     1     1     2   512     0  7.529815010E+00  7.066745372E+00  3.770684480E+01  3.909670125E+01  3.300000131E-01  0.00000E+00  9.000E+00
      -1     1     1     2     0   513 -5.076491283E+00 -7.887231777E-01  6.261601990E+01  6.282728465E+01  3.300000131E-01  0.00000E+00  9.000E+00
</event>
<event>
      5  10001  3.52971E+09  6.37909E+00 -1.00000E+00  2.21411E-01
      21    -1     0     0   514   512  0.000000000E+00  0.000000000E+00  7.649689206E+02  7.649689206E+02  0.000000000E+00  0.00000E+00  9.000E+00
      21    -1     0     0   511   513  0.000000000E+00  0.000000000E+00 -2.423252701E+01  2.423252701E+01  0.000000000E+00  0.00000E+00  9.000E+00
      21     1     1     2   514   513 -1.177140130E+01  9.063808245E+00 -2.185964556E+01  2.643033508E+01  1.936921693E-06  0.00000E+00  9.000E+00
      21     1     1     2   515   512  9.038043467E+00 -6.756249136E+00  4.049670809E+02  4.051242646E+02  5.394796609E-06  0.00000E+00  9.000E+00
      21     1     1     2   511   515  2.733357829E+00 -2.307559109E+00  3.576289583E+02  3.576468480E+02  3.814697266E-06  0.00000E+00  9.000E+00
</event>
<event>
      5  10001  3.52971E+09  7.96570E+00 -1.00000E+00  2.07910E-01
      -4    -1     0     0     0   513  0.000000000E+00  0.000000000E+00  1.087054050E+00  1.087054050E+00  0.000000000E+00  0.00000E+00  9.000E+00
       2    -1     0     0   511     0  0.000000000E+00  0.000000000E+00 -4.809522751E+02  4.809522751E+02  0.000000000E+00  0.00000E+00  9.000E+00
      -4     1     1     2     0   512 -1.138540576E+00  1.615848545E+01 -1.316625512E+02  1.326637491E+02  1.500000000E+00  0.00000E+00  9.000E+00
       2     1     1     2   512     0 -6.688587567E+00 -1.757095432E+01 -2.930142268E+02  2.936169642E+02  3.300000131E-01  0.00000E+00  9.000E+00
      21     1     1     2   511   513  7.827128143E+00  1.412468870E+00 -5.518844299E+01  5.575861586E+01  6.743495762E-07  0.00000E+00  9.000E+00
</event>
<event>
      5  10001  3.52971E+09  1.82481E+01 -1.00000E+00  1.69719E-01
      21    -1     0     0   514   512  0.000000000E+00  0.000000000E+00  1.925005220E+01  1.925005220E+01  0.000000000E+00  0.00000E+00  9.000E+00
      21    -1     0     0   511   513  0.000000000E+00  0.000000000E+00 -3.573856632E+01  3.573856632E+01  0.000000000E+00  0.00000E+00  9.000E+00
      21     1     1     2   514   513 -6.522511926E+00  5.691749423E+00 -2.730756198E+01  2.864685174E+01  3.371747881E-07  0.00000E+00  9.000E+00
      21     1     1     2   511   515 -1.037962728E+00 -1.310192121E+01  8.000724509E+00  1.538665977E+01  3.153981341E-07  0.00000E+00  9.000E+00
      21     1     1     2   515   512  7.560474655E+00  7.410171792E+00  2.818323351E+00  1.095510701E+01  1.812804499E-07  0.00000E+00  9.000E+00
</event>
<event>
      5  10001  3.52971E+09  1.50732E+01 -1.00000E+00  1.77181E-01
      21    -1     0     0   516   511  0.000000000E+00  0.000000000E+00  5.133305593E+01  5.133305593E+01  0.000000000E+00  0.00000E+00  9.000E+00
      21    -1     0     0   517   512  0.000000000E+00  0.000000000E+00 -5.372704678E+00  5.372704678E+00  0.000000000E+00  0.00000E+00  9.000E+00
      21     1     1     2   516   512 -5.508884286E+00 -5.466667448E+00  3.050303642E+01  3.147487077E+01  3.371747881E-07  0.00000E+00  9.000E+00
      21     1     1     2   513   511  1.172428023E+01  1.268996833E-01  8.505646973E+00  1.448519523E+01  0.000000000E+00  0.00000E+00  9.000E+00
      21     1     1     2   517   513 -6.215395947E+00  5.339767765E+00  6.951667858E+00  1.074569461E+01  1.685873940E-07  0.00000E+00  9.000E+00
</event>
<event>
      5  10001  3.52971E+09  3.54493E+00 -1.00000E+00  2.76466E-01
       2    -1     0     0   512     0  0.000000000E+00  0.000000000E+00  9.473539079E+01  9.473539079E+01  0.000000000E+00  0.00000E+00  9.000E+00
      21    -1     0     0   514   513  0.000000000E+00  0.000000000E+00 -1.698784145E+01  1.698784145E+01  0.000000000E+00  0.00000E+00  9.000E+00
      21     1     1     2   511   513  1.039772940E+01  2.976755717E+00 -1.429868365E+01  1.792836316E+01  6.529361695E-07  0.00000E+00  9.000E+00
       2     1     1     2   514     0 -9.256261600E+00 -5.205089279E+00  8.981506164E+01  9.044128222E+01  3.300000131E-01  0.00000E+00  9.000E+00
      21     1     1     2   512   511 -1.141467799E+00  2.228333562E+00  2.231171364E+00  3.353586864E+00  4.214684851E-08  0.00000E+00  9.000E+00
</event>
<event>
      5  10001  3.52971E+09  1.30812E+01 -1.00000E+00  1.83169E-01
      21    -1     0     0   515   513  0.000000000E+00  0.000000000E+00  1.749060667E+01  1.749060667E+01  0.000000000E+00  0.00000E+00  9.000E+00
      21    -1     0     0   514   515  0.000000000E+00  0.000000000E+00 -2.759831644E+02  2.759831644E+02  0.000000000E+00  0.00000E+00  9.000E+00
      21     1     1     2   516   511 -1.621984263E+00 -1.083043435E+01  6.207067098E+00  1.258796342E+01  3.039252468E-07  0.00000E+00  9.000E+00
      21     1     1     2   511   513  1.321531002E+01  1.688957634E+01 -6.575980753E+00  2.243091016E+01  6.019774043E-07  0.00000E+00  9.000E+00
      21     1     1     2   514   516 -1.159332576E+01 -6.059141985E+00 -2.581236440E+02  2.584548975E+02  5.394796609E-06  0.00000E+00  9.000E+00
</event>
<event>
      5  10001  3.52971E+09  6.64320E+00 -1.00000E+00  2.18810E-01
      21    -1     0     0   511   513  0.000000000E+00  0.000000000E+00  1.593031405E+01  1.593031405E+01  0.000000000E+00  0.00000E+00  9.000E+00
       2    -1     0     0   513     0  0.000000000E+00  0.000000000E+00 -8.035154606E+01  8.035154606E+01  0.000000000E+00  0.00000E+00  9.000E+00
      21     1     1     2   515   512  1.014592250E+01 -9.448510329E+00  2.224256924E+00  1.404141766E+01  7.884953353E-08  0.00000E+00  9.000E+00
       2     1     1     2   512     0 -1.486944640E+01  1.110068382E+01 -7.232656174E+01  7.466971307E+01  3.300000131E-01  0.00000E+00  9.000E+00
      21     1     1     2   511   515  4.723523895E+00 -1.652173492E+00  5.681072800E+00  7.570729384E+00  1.685873940E-07  0.00000E+00  9.000E+00
</event>
<event>
      5  10001  3.52971E+09  6.99438E+00 -1.00000E+00  2.15597E-01
      21    -1     0     0   512   513  0.000000000E+00  0.000000000E+00  1.653039294E+01  1.653039294E+01  0.000000000E+00  0.00000E+00  9.000E+00
       1    -1     0     0   513     0  0.000000000E+00  0.000000000E+00 -6.562630788E+02  6.562630788E+02  0.000000000E+00  0.00000E+00  9.000E+00
      21     1     1     2   512   514 -1.328780953E+01  1.703949534E+00  1.361794799E+01  1.910282266E+01  7.907449699E-07  0.00000E+00  9.000E+00
       1     1     1     2   516     0  1.465086010E+01  3.334785621E+00 -5.531604280E+02  5.533645602E+02  3.300000131E-01  0.00000E+00  9.000E+00
      21     1     1     2   514   516 -1.363050570E+00 -5.038735155E+00 -1.001902058E+02  1.003260888E+02  0.000000000E+00  0.00000E+00  9.000E+00
</event>
<event>
      5  10001  3.52971E+09  4.74891E+00 -1.00000E+00  2.47053E-01
      21    -1     0     0   511   514  0.000000000E+00  0.000000000E+00  3.058663293E+01  3.058663293E+01  0.000000000E+00  0.00000E+00  9.000E+00
      21    -1     0     0   512   515  0.000000000E+00  0.000000000E+00 -3.199272574E+01  3.199272574E+01  0.000000000E+00  0.00000E+00  9.000E+00
      21     1     1     2   511   515  1.390880462E+00  1.085015136E+01  7.990589778E+00  1.354658105E+01  3.039252468E-07  0.00000E+00  9.000E+00
      21     1     1     2   513   514 -7.902228561E-01 -1.556092093E+01  1.650601524E+01  2.269835350E+01  3.371747881E-07  0.00000E+00  9.000E+00
      21     1     1     2   512   513 -6.006576061E-01  4.710769566E+00 -2.590269783E+01  2.633442413E+01  3.371747881E-07  0.00000E+00  9.000E+00
</event>
<event>
      5  10001  3.52971E+09  1.99349E+01 -1.00000E+00  1.66483E-01
      21    -1     0     0   516   513  0.000000000E+00  0.000000000E+00  3.899626894E+01  3.899626894E+01  0.000000000E+00  0.00000E+00  9.000E+00
      21    -1     0     0   512   517  0.000000000E+00  0.000000000E+00 -3.908421932E+00  3.908421932E+00  0.000000000E+00  0.00000E+00  9.000E+00
      21     1     1     2   516   517 -8.979314352E-01  5.142108023E+00  8.271550721E+00  9.780905230E+00  2.920019320E-07  0.00000E+00  9.000E+00
      21     1     1     2   511   513 -5.031408317E+00 -5.612387990E-01 -2.210349626E-01  5.067436738E+00  8.182928948E-08  0.00000E+00  9.000E+00
      21     1     1     2   512   511  5.929339752E+00 -4.580869224E+00  2.703733125E+01  2.805634890E+01  4.768371582E-07  0.00000E+00  9.000E+00
</event>
<event>
      5  10001  3.52971E+09  6.16207E+00 -1.00000E+00  2.23683E-01
       1    -1     0     0   515     0  0.000000000E+00  0.000000000E+00  1.086759292E+03  1.086759292E+03  0.000000000E+00  0.00000E+00  9.000E+00
      21    -1     0     0   511   515  0.000000000E+00  0.000000000E+00 -2.233819339E-01  2.233819339E-01  0.000000000E+00  0.00000E+00  9.000E+00
      21     1     1     2   511   514 -8.500119195E+00  4.042905715E+00  1.257633706E+02  1.261151161E+02  2.336015456E-06  0.00000E+00  9.000E+00
       1     1     1     2   513     0  4.816282791E+00 -8.516561421E-01  8.127813652E+02  8.127961482E+02  3.300000131E-01  0.00000E+00  9.000E+00
      21     1     1     2   514   513  3.683836404E+00 -3.191249573E+00  1.479911747E+02  1.480714102E+02  2.697398305E-06  0.00000E+00  9.000E+00
</event>
<event>
      5  10001  3.52971E+09  7.50645E+00 -1.00000E+00  2.11348E-01
      21    -1     0     0   512   511  0.000000000E+00  0.000000000E+00  3.978574189E+02  3.978574189E+02  0.000000000E+00  0.00000E+00  9.000E+00
      21    -1     0     0   516   512  0.000000000E+00  0.000000000E+00 -9.622218374E-01  9.622218374E-01  0.000000000E+00  0.00000E+00  9.000E+00
      21     1     1     2   513   511  1.167355557E+01  1.754749692E+00  3.259239727E+02  3.261376811E+02  0.000000000E+00  0.00000E+00  9.000E+00
      21     1     1     2   515   513 -1.087336845E+01  2.368108666E+00  5.765539573E+01  5.871952602E+01  9.536743164E-07  0.00000E+00  9.000E+00
      21     1     1     2   516   515 -8.001871255E-01 -4.122858358E+00  1.331582867E+01  1.396243365E+01  5.331201500E-07  0.00000E+00  9.000E+00
</event>
<event>
      5  10001  3.52971E+09  3.94762E+00 -1.00000E+00  2.64818E-01
      21    -1     0     0   514   515  0.000000000E+00  0.000000000E+00  5.941232640E+01  5.941232640E+01  0.000000000E+00  0.00000E+00  9.000E+00
      21    -1     0     0   512   517  0.000000000E+00  0.000000000E+00 -4.634153432E+00  4.634153432E+00  0.000000000E+00  0.00000E+00  9.000E+00
      21     1     1     2   514   517 -1.277323726E+01 -2.058368157E+00  2.717899815E+01  3.010133569E+01  5.840038640E-07  0.00000E+00  9.000E+00
      21     1     1     2   511   515  1.328033137E+01  5.973278824E+00  2.575812750E+01  2.958932905E+01  0.000000000E+00  0.00000E+00  9.000E+00
      21     1     1     2   512   511 -5.070941040E-01 -3.914910667E+00  1.841047323E+00  4.355815102E+00  7.598131170E-08  0.00000E+00  9.000E+00
</event>
<event>
      5  10001  3.52971E+09  1.84915E+01 -1.00000E+00  1.69226E-01
      21    -1     0     0   513   512  0.000000000E+00  0.000000000E+00  7.337045109E+00  7.337045109E+00  0.000000000E+00  0.00000E+00  9.000E+00
      -2    -1     0     0     0   513  0.000000000E+00  0.000000000E+00 -6.078061005E+01  6.078061005E+01  0.000000000E+00  0.00000E+00  9.000E+00
      -2     1     1     2     0   515  7.030694342E+00 -6.961135016E+00 -5.497914392E+01  5.586325474E+01  3.300000131E-01  0.00000E+00  9.000E+00
      21     1     1     2   514   512 -2.122901922E+00  6.900451005E+00  4.909351024E-01  7.236294212E+00  1.495693617E-07  0.00000E+00  9.000E+00
      21     1     1     2   515   514 -4.907792420E+00  6.068401096E-02  1.044643886E+00  5.018106200E+00  2.107342426E-07  0.00000E+00  9.000E+00
</event>
<event>
      5  10001  3.52971E+09  4.24810E+00 -1.00000E+00  2.57452E-01
      21    -1     0     0   511   514  0.000000000E+00  0.000000000E+00  2.871295624E+01  2.871295624E+01  0.000000000E+00  0.00000E+00  9.000E+00
      21    -1     0     0   515   516  0.000000000E+00  0.000000000E+00 -1.051522097E+01  1.051522097E+01  0.000000000E+00  0.00000E+00  9.000E+00
      21     1     1     2   511   516  9.119512261E+00 -3.224171894E+00  2.303168280E+01  2.498037632E+01  3.371747881E-07  0.00000E+00  9.000E+00
      -3     1     1     2     0   514 -7.582392791E+00  3.672785209E-01 -6.981162458E+00  1.032541540E+01  5.000000000E-01  0.00000E+00  9.000E+00
       3     1     1     2   515     0 -1.537119470E+00  2.856893373E+00  2.147214925E+00  3.922385491E+00  5.000000000E-01  0.00000E+00  9.000E+00
</event>
<event>
      5  10001  3.52971E+09  1.00506E+01 -1.00000E+00  1.95500E-01
      21    -1     0     0   512   516  0.000000000E+00  0.000000000E+00  1.059503904E+02  1.059503904E+02  0.000000000E+00  0.00000E+00  9.000E+00
      21    -1     0     0   515   513  0.000000000E+00  0.000000000E+00 -8.689886663E+01  8.689886663E+01  0.000000000E+00  0.00000E+00  9.000E+00
      21     1     1     2   512   513 -8.938137676E+00  1.065292751E+01 -8.525169347E+01  8.637839087E+01  9.536743164E-07  0.00000E+00  9.000E+00
      21     1     1     2   515   511  9.702928731E+00 -1.282620221E+00  7.644584464E+01  7.706983264E+01  2.132480600E-06  0.00000E+00  9.000E+00
      21     1     1     2   511   516 -7.647910555E-01 -9.370307286E+00  2.785737257E+01  2.940103349E+01  5.840038640E-07  0.00000E+00  9.000E+00
</event>
<event>
      5  10001  3.52971E+09  2.58586E+01 -1.00000E+00  1.57657E-01
      21    -1     0     0   514   511  0.000000000E+00  0.000000000E+00  1.066458514E+02  1.066458514E+02  0.000000000E+00  0.00000E+00  9.000E+00
      21    -1     0     0   516   514  0.000000000E+00  0.000000000E+00 -3.143835484E+00  3.143835484E+00  0.000000000E+00  0.00000E+00  9.000E+00
      21     1     1     2   515   511 -8.537044668E+00 -7.262855282E+00  5.358479716E+01  5.474450369E+01  9.536743164E-07  0.00000E+00  9.000E+00
      21     1     1     2   516   512 -1.818223476E+00  7.649662597E+00  3.977717776E+01  4.054685123E+01  4.768371582E-07  0.00000E+00  9.000E+00
      21     1     1     2   512   515  1.035526814E+01 -3.868073145E-01  1.014004103E+01  1.449833198E+01  6.529361695E-07  0.00000E+00  9.000E+00
</event>
<event>
      5  10001  3.52971E+09  5.24123E+00 -1.00000E+00  2.34989E-01
      21    -1     0     0   513   516  0.000000000E+00  0.000000000E+00  2.216423181E+01  2.216423181E+01  0.000000000E+00  0.00000E+00  9.000E+00
      21    -1     0     0   511   515  0.000000000E+00  0.000000000E+00 -1.455583755E+01  1.455583755E+01  0.000000000E+00  0.00000E+00  9.000E+00
      21     1     1     2   513   515  1.266598759E+00 -1.084173045E+01 -1.004468112E+01  1.483384678E+01  1.192092896E-07  0.00000E+00  9.000E+00
      21     1     1     2   514   516 -1.918964573E+00  4.659916914E+00  1.350103642E+01  1.441094150E+01  2.920019320E-07  0.00000E+00  9.000E+00
      21     1     1     2   511   514  6.523658137E-01  6.181813537E+00  4.152038959E+00  7.475281084E+00  8.429369702E-08  0.00000E+00  9.000E+00
</event>
<event>
      5  10001  3.52971E+09  4.87068E+00 -1.00000E+00  2.44813E-01
      21    -1     0     0   513   514  0.000000000E+00  0.000000000E+00  2.609850190E+02  2.609850190E+02  0.000000000E+00  0.00000E+00  9.000E+00
      21    -1     0     0   511   517  0.000000000E+00  0.000000000E+00 -7.299380439E+01  7.299380439E+01  0.000000000E+00  0.00000E+00  9.000E+00
      21     1     1     2   512   517 -7.719907668E+00 -1.250428085E+01  2.405768732E+02  2.410252807E+02  2.697398305E-06  0.00000E+00  9.000E+00
      21     1     1     2   511   514  6.342791446E+00  1.717622624E+01 -7.130117645E+01  7.361461482E+01  1.651812370E-06  0.00000E+00  9.000E+00
      21     1     1     2   513   512  1.377116222E+00 -4.671945394E+00  1.871551785E+01  1.933892787E+01  3.371747881E-07  0.00000E+00  9.000E+00
</event>
<event>
      5  10001  3.52971E+09  4.09570E+01 -1.00000E+00  1.44204E-01
      21    -1     0     0   515   512  0.000000000E+00  0.000000000E+00  1.323630595E+01  1.323630595E+01  0.000000000E+00  0.00000E+00  9.000E+00
      21    -1     0     0   516   515  0.000000000E+00  0.000000000E+00 -5.403624981E+01  5.403624981E+01  0.000000000E+00  0.00000E+00  9.000E+00
      21     1     1     2   511   512 -8.270683091E-01  7.124515903E+00  5.533488457E+00  9.058822404E+00  1.192092896E-07  0.00000E+00  9.000E+00
      -5     1     1     2     0   511 -1.927324414E+00 -1.308124804E+01 -3.339492829E+00  1.445772610E+01  4.800000191E+00  0.00000E+00  9.000E+00
       5     1     1     2   516     0  2.754392723E+00  5.956732140E+00 -4.299393949E+01  4.375600727E+01  4.800000191E+00  0.00000E+00  9.000E+00
</event>
<event>
      5  10001  3.52971E+09  9.79377E+00 -1.00000E+00  1.96804E-01
      21    -1     0     0   513   516  0.000000000E+00  0.000000000E+00  3.443846772E+02  3.443846772E+02  0.000000000E+00  0.00000E+00  9.000E+00
      21    -1     0     0   512   514  0.000000000E+00  0.000000000E+00 -2.205683148E+01  2.205683148E+01  0.000000000E+00  0.00000E+00  9.000E+00
      21     1     1     2   513   514 -1.041113443E+01 -3.814504958E+00  3.389346488E+02  3.391159659E+02  3.814697266E-06  0.00000E+00  9.000E+00
      -5     1     1     2     0   516  2.521801593E+00 -2.017334840E+00 -1.526111747E+01  1.632087103E+01  4.800000191E+00  0.00000E+00  9.000E+00
       5     1     1     2   512     0  7.889332841E+00  5.831839797E+00 -1.345685643E+00  1.100467173E+01  4.800000191E+00  0.00000E+00  9.000E+00
</event>
<event>
      5  10001  3.52971E+09  2.31723E+01 -1.00000E+00  1.61258E-01
       1    -1     0     0   512     0  0.000000000E+00  0.000000000E+00  1.824392854E+01  1.824392854E+01  0.000000000E+00  0.00000E+00  9.000E+00
      21    -1     0     0   511   515  0.000000000E+00  0.000000000E+00 -1.710119904E+02  1.710119904E+02  0.000000000E+00  0.00000E+00  9.000E+00
      21     1     1     2   512   515 -2.504477285E+01  8.741772952E+00 -1.466975906E+02  1.490766324E+02  2.697398305E-06  0.00000E+00  9.000E+00
       1     1     1     2   513     0  9.900994516E+00  5.392440839E+00  9.109065141E+00  1.449800256E+01  3.300000131E-01  0.00000E+00  9.000E+00
      21     1     1     2   511   513  1.514377833E+01 -1.413421379E+01 -1.517953642E+01  2.568128399E+01  4.460403188E-07  0.00000E+00  9.000E+00
</event>
<event>
      5  10001  3.52971E+09  1.45534E+01 -1.00000E+00  1.78625E-01
      21    -1     0     0   514   513  0.000000000E+00  0.000000000E+00  6.872838610E+00  6.872838610E+00  0.000000000E+00  0.00000E+00  9.000E+00
      21    -1     0     0   511   516  0.000000000E+00  0.000000000E+00 -8.165672628E+01  8.165672628E+01  0.000000000E+00  0.00000E+00  9.000E+00
      21     1     1     2   514   516  4.008400229E+00  8.649512050E+00 -4.024519816E-01  9.541661213E+00  1.805132842E-07  0.00000E+00  9.000E+00
      21     1     1     2   512   513 -3.692938291E-01 -7.772262595E+00 -7.481589261E+01  7.521942722E+01  1.348699152E-06  0.00000E+00  9.000E+00
      21     1     1     2   511   512 -3.639106400E+00 -8.772494549E-01  4.344569238E-01  3.768476458E+00  1.161430573E-07  0.00000E+00  9.000E+00
</event>
<event>
      5  10001  3.52971E+09  2.06493E+00 -1.00000E+00  3.56703E-01
      21    -1     0     0   515   512  0.000000000E+00  0.000000000E+00  3.194919092E+01  3.194919092E+01  0.000000000E+00  0.00000E+00  9.000E+00
      21    -1     0     0   511   517  0.000000000E+00  0.000000000E+00 -8.673526903E+00  8.673526903E+00  0.000000000E+00  0.00000E+00  9.000E+00
      21     1     1     2   515   517  6.238892200E+00  7.830060239E+00  2.770941137E+01  2.946260507E+01  3.371747881E-07  0.00000E+00  9.000E+00
      -3     1     1     2     0   512 -2.929770303E+00 -4.418186428E+00 -1.423393548E+00  5.511803202E+00  5.000000000E-01  0.00000E+00  9.000E+00
       3     1     1     2   511     0 -3.309121897E+00 -3.411873811E+00 -3.010353810E+00  5.648309543E+00  5.000000000E-01  0.00000E+00  9.000E+00
</event>
<event>
      5  10001  3.52971E+09  3.01657E+01 -1.00000E+00  1.52871E-01
      21    -1     0     0   513   511  0.000000000E+00  0.000000000E+00  2.056446044E+01  2.056446044E+01  0.000000000E+00  0.00000E+00  9.000E+00
      -2    -1     0     0     0   513  0.000000000E+00  0.000000000E+00 -3.215157661E+01  3.215157661E+01  0.000000000E+00  0.00000E+00  9.000E+00
      -2     1     1     2     0   512  7.020917233E+00 -1.513016698E+01 -2.088628928E+01  2.673127778E+01  3.300000131E-01  0.00000E+00  9.000E+00
      21     1     1     2   512   514 -1.996928894E+00  6.154289684E+00 -5.135139738E+00  8.260306692E+00  5.960464478E-08  0.00000E+00  9.000E+00
      21     1     1     2   514   511 -5.023988338E+00  8.975877299E+00  1.443431285E+01  1.772445258E+01  2.920019320E-07  0.00000E+00  9.000E+00
</event>
<event>
      5  10001  3.52971E+09  5.20035E+00 -1.00000E+00  2.35566E-01
      21    -1     0     0   515   512  0.000000000E+00  0.000000000E+00  1.445697706E+02  1.445697706E+02  0.000000000E+00  0.00000E+00  9.000E+00
       4    -1     0     0   516     0  0.000000000E+00  0.000000000E+00 -2.474878995E+00  2.474878995E+00  0.000000000E+00  0.00000E+00  9.000E+00
      21     1     1     2   515   511 -6.073900847E+00  9.462177199E+00  5.765280259E+01  5.873900506E+01  6.743495762E-07  0.00000E+00  9.000E+00
      21     1     1     2   516   512  1.444307750E+00 -1.180249475E+01  8.107408613E+01  8.194139582E+01  1.651812370E-06  0.00000E+00  9.000E+00
       4     1     1     2   511     0  4.629593096E+00  2.340317551E+00  3.368002919E+00  6.364248749E+00  1.500000000E+00  0.00000E+00  9.000E+00
</event>
<event>
      5  10001  3.52971E+09  1.99268E+01 -1.00000E+00  1.66497E-01
       2    -1     0     0   511     0  0.000000000E+00  0.000000000E+00  1.688661492E+03  1.688661492E+03  0.000000000E+00  0.00000E+00  9.000E+00
      21    -1     0     0   513   514  0.000000000E+00  0.000000000E+00 -8.510492716E+00  8.510492716E+00  0.000000000E+00  0.00000E+00  9.000E+00
      21     1     1     2   512   514 -1.117010540E+01  6.562185667E+00  1.461795872E+00  1.303726898E+01  1.232930398E-06  0.00000E+00  9.000E+00
       2     1     1     2   513     0  2.984866808E+01  3.935040904E+00  1.636863189E+03  1.637140078E+03  3.300000131E-01  0.00000E+00  9.000E+00
      21     1     1     2   511   512 -1.867856268E+01 -1.049722657E+01  4.182601462E+01  4.699463766E+01  4.768371582E-07  0.00000E+00  9.000E+00
</event>
<event>
      5  10001  3.52971E+09  1.26245E+01 -1.00000E+00  1.84737E-01
      21    -1     0     0   515   513  0.000000000E+00  0.000000000E+00  2.534392098E+00  2.534392098E+00  0.000000000E+00  0.00000E+00  9.000E+00
      21    -1     0     0   516   515  0.000000000E+00  0.000000000E+00 -4.254345233E+01  4.254345233E+01  0.000000000E+00  0.00000E+00  9.000E+00
      21     1     1     2   516   512  2.456057566E+00 -4.702923075E+00 -1.304031202E+01  1.407833235E+01  1.685873940E-07  0.00000E+00  9.000E+00
      21     1     1     2   514   513 -8.431797064E+00  1.715592316E+00 -1.506690445E+01  1.735079446E+01  2.920019320E-07  0.00000E+00  9.000E+00
      21     1     1     2   512   514  5.975739498E+00  2.987330759E+00 -1.190184376E+01  1.364871761E+01  2.384185791E-07  0.00000E+00  9.000E+00
</event>
<event>
      5  10001  3.52971E+09  4.46021E+00 -1.00000E+00  2.52794E-01
      21    -1     0     0   515   513  0.000000000E+00  0.000000000E+00  2.943860122E+02  2.943860122E+02  0.000000000E+00  0.00000E+00  9.000E+00
       1    -1     0     0   513     0  0.000000000E+00  0.000000000E+00 -3.500724358E+00  3.500724358E+00  0.000000000E+00  0.00000E+00  9.000E+00
      21     1     1     2   512   511 -8.072022433E+00  7.211565964E+00  1.290567195E+02  1.295098494E+02  1.907348633E-06  0.00000E+00  9.000E+00
       1     1     1     2   511     0  1.041242847E+01 -3.414867744E+00  6.025160361E+00  1.250965410E+01  3.300000131E-01  0.00000E+00  9.000E+00
      21     1     1     2   515   512 -2.340406040E+00 -3.796698220E+00  1.558034080E+02  1.558672331E+02  0.000000000E+00  0.00000E+00  9.000E+00
</event>
<event>
      5  10001  3.52971E+09  5.17982E+00 -1.00000E+00  2.35859E-01
      21    -1     0     0   514   512  0.000000000E+00  0.000000000E+00  7.574249466E+00  7.574249466E+00  0.000000000E+00  0.00000E+00  9.000E+00
      21    -1     0     0   513   514  0.000000000E+00  0.000000000E+00 -4.200094723E+01  4.200094723E+01  0.000000000E+00  0.00000E+00  9.000E+00
      21     1     1     2   516   512 -8.440927423E+00  7.181352825E+00  1.962479871E+00  1.125488389E+01  2.402740046E-07  0.00000E+00  9.000E+00
      21     1     1     2   511   516  1.719805135E+00 -3.400051103E+00 -1.764522702E+01  1.805192825E+01  2.384185791E-07  0.00000E+00  9.000E+00
      21     1     1     2   513   511  6.721122288E+00 -3.781301722E+00 -1.874395062E+01  2.026838455E+01  2.384185791E-07  0.00000E+00  9.000E+00
</event>
<event>
      5  10001  3.52971E+09  5.63527E+00 -1.00000E+00  2.29780E-01
      21    -1     0     0   515   511  0.000000000E+00  0.000000000E+00  6.423778727E+02  6.423778727E+02  0.000000000E+00  0.00000E+00  9.000E+00
      21    -1     0     0   513   515  0.000000000E+00  0.000000000E+00 -1.922087130E+00  1.922087130E+00  0.000000000E+00  0.00000E+00  9.000E+00
      21     1     1     2   513   517 -6.723979200E+00 -9.812672772E+00  1.723768050E+01  2.094368813E+01  8.920806376E-07  0.00000E+00  9.000E+00
      21     1     1     2   517   512  5.927421643E+00  3.970682202E+00  3.038680412E+02  3.039517842E+02  5.394796609E-06  0.00000E+00  9.000E+00
      21     1     1     2   512   511  7.965575570E-01  5.841990570E+00  3.193500639E+02  3.194044876E+02  5.394796609E-06  0.00000E+00  9.000E+00
</event>
<event>
      5  10001  3.52971E+09  1.23372E+01 -1.00000E+00  1.85767E-01
       1    -1     0     0   515     0  0.000000000E+00  0.000000000E+00  5.676409865E+02  5.676409865E+02  0.000000000E+00  0.00000E+00  9.000E+00
      21    -1     0     0   513   514  0.000000000E+00  0.000000000E+00 -4.837717037E+00  4.837717037E+00  0.000000000E+00  0.00000E+00  9.000E+00
      21     1     1     2   515   514  7.100813644E+00 -2.077373536E+00  1.259420745E+02  1.261591977E+02  2.336015456E-06  0.00000E+00  9.000E+00
       1     1     1     2   512     0 -1.942420948E+01  1.498093764E+00  4.329343936E+02  4.333726367E+02  3.300000131E-01  0.00000E+00  9.000E+00
      21     1     1     2   513   512  1.232339584E+01  5.792797717E-01  3.926801320E+00  1.294686907E+01  6.899736466E-07  0.00000E+00  9.000E+00
</event>
<event>
      5  10001  3.52971E+09  4.07683E+00 -1.00000E+00  2.61530E-01
      21    -1     0     0   513   512  0.000000000E+00  0.000000000E+00  6.769475081E+01  6.769475081E+01  0.000000000E+00  0.00000E+00  9.000E+00
      21    -1     0     0   514   511  0.000000000E+00  0.000000000E+00 -4.584031535E+00  4.584031535E+00  0.000000000E+00  0.00000E+00  9.000E+00
      -1     1     1     2     0   512  9.290762588E+00  7.562689861E+00  4.155072621E+01  4.324447128E+01  3.300000131E-01  0.00000E+00  9.000E+00
      21     1     1     2   513   511 -9.885956393E+00 -3.530609159E+00  2.250900606E+01  2.483651926E+01  3.371747881E-07  0.00000E+00  9.000E+00
       1     1     1     2   514     0  5.951938051E-01 -4.032080702E+00 -9.490129944E-01  4.197791815E+00  3.300000131E-01  0.00000E+00  9.000E+00
</event>
<event>
      5  10001  3.52971E+09  4.71000E+00 -1.00000E+00  2.47791E-01
      21    -1     0     0   515   514  0.000000000E+00  0.000000000E+00  3.018224936E+01  3.018224936E+01  0.000000000E+00  0.00000E+00  9.000E+00
      21    -1     0     0   511   516  0.000000000E+00  0.000000000E+00 -1.476278348E+01  1.476278348E+01  0.000000000E+00  0.00000E+00  9.000E+00
      21     1     1     2   515   516  1.034615429E+01  6.617708771E+00 -3.884971970E+00  1.288138134E+01  3.009887021E-07  0.00000E+00  9.000E+00
      21     1     1     2   512   514 -7.615301167E+00 -1.045523064E+01  2.278962048E+01  2.620441683E+01  3.371747881E-07  0.00000E+00  9.000E+00
      21     1     1     2   511   512 -2.730853125E+00  3.837521867E+00 -3.485182639E+00  5.859234668E+00  1.332800375E-07  0.00000E+00  9.000E+00
</event>
<event>
      5  10001  3.52971E+09  3.46084E+00 -1.00000E+00  2.79214E-01
       2    -1     0     0   511     0  0.000000000E+00  0.000000000E+00  2.523005631E+02  2.523005631E+02  0.000000000E+00  0.00000E+00  9.000E+00
      21    -1     0     0   513   512  0.000000000E+00  0.000000000E+00 -8.508707357E-01  8.508707357E-01  0.000000000E+00  0.00000E+00  9.000E+00
      21     1     1     2   511   512 -4.319567930E+00 -1.138160431E+01  5.687954274E+01  5.816770552E+01  6.743495762E-07  0.00000E+00  9.000E+00
       2     1     1     2   514     0  1.384365975E+00  6.958085437E+00  9.049147220E+01  9.076974641E+01  3.300000131E-01  0.00000E+00  9.000E+00
      21     1     1     2   513   514  2.935201955E+00  4.423518868E+00  1.040786774E+02  1.042139819E+02  1.907348633E-06  0.00000E+00  9.000E+00
</event>
<event>
      5  10001  3.52971E+09  3.43465E+00 -1.00000E+00  2.80096E-01
       2    -1     0     0   512     0  0.000000000E+00  0.000000000E+00  5.613823640E+01  5.613823640E+01  0.000000000E+00  0.00000E+00  9.000E+00
      21    -1     0     0   515   514  0.000000000E+00  0.000000000E+00 -4.472112336E+00  4.472112336E+00  0.000000000E+00  0.00000E+00  9.000E+00
      21     1     1     2   511   514  5.298986354E+00  3.506716655E-01  1.420468739E+01  1.516493887E+01  1.685873940E-07  0.00000E+00  9.000E+00
       2     1     1     2   515     0 -1.387485745E+01 -4.286071522E+00  1.407042895E+01  2.022295600E+01  3.300000131E-01  0.00000E+00  9.000E+00
      21     1     1     2   512   511  8.575871095E+00  3.935399857E+00  2.339100772E+01  2.522245387E+01  0.000000000E+00  0.00000E+00  9.000E+00
</event>
<event>
      5  10001  3.52971E+09  2.99235E+01 -1.00000E+00  1.53114E-01
      21    -1     0     0   513   511  0.000000000E+00  0.000000000E+00  3.754957396E+02  3.754957396E+02  0.000000000E+00  0.00000E+00  9.000E+00
      21    -1     0     0   516   513  0.000000000E+00  0.000000000E+00 -1.556928821E+00  1.556928821E+00  0.000000000E+00  0.00000E+00  9.000E+00
      21     1     1     2   515   511  8.954702234E+00 -1.640888961E+00  3.219978490E+02  3.221265185E+02  0.000000000E+00  0.00000E+00  9.000E+00
      21     1     1     2   516   514 -5.101325598E+00  1.975134139E+00  5.050493816E+01  5.080032929E+01  6.743495762E-07  0.00000E+00  9.000E+00
      21     1     1     2   514   515 -3.853376636E+00 -3.342451783E-01  1.436023609E+00  4.125820542E+00  4.583166986E-07  0.00000E+00  9.000E+00
</event>
<event>
      5  10001  3.52971E+09  4.37674E+00 -1.00000E+00  2.54579E-01
       1    -1     0     0   512     0  0.000000000E+00  0.000000000E+00  5.942742995E+02  5.942742995E+02  0.000000000E+00  0.00000E+00  9.000E+00
      21    -1     0     0   511   515  0.000000000E+00  0.000000000E+00 -2.049848426E+01  2.049848426E+01  0.000000000E+00  0.00000E+00  9.000E+00
      21     1     1     2   512   515 -1.096705553E+01  4.644824697E+00 -8.571628206E-01  1.194091419E+01  2.787751993E-08  0.00000E+00  9.000E+00
      21     1     1     2   511   516  9.429974568E+00 -5.468826305E-01 -1.250828307E+01  1.567420321E+01  1.685873940E-07  0.00000E+00  9.000E+00
       1     1     1     2   516     0  1.537080967E+00 -4.097942066E+00  5.871412611E+02  5.871576664E+02  3.300000131E-01  0.00000E+00  9.000E+00
</event>
<event>
      5  10001  3.52971E+09  5.90811E+00 -1.00000E+00  2.26511E-01
      21    -1     0     0   513   511  0.000000000E+00  0.000000000E+00  2.973190318E+00  2.973190318E+00  0.000000000E+00  0.00000E+00  9.000E+00
      21    -1     0     0   517   514  0.000000000E+00  0.000000000E+00 -9.040059012E+01  9.040059012E+01  0.000000000E+00  0.00000E+00  9.000E+00
      21     1     1     2   513   514 -1.012613567E+01 -1.071485741E+01 -6.134785672E+01  6.309442382E+01  0.000000000E+00  0.00000E+00  9.000E+00
      21     1     1     2   517   512  1.870508520E+00  4.847486657E+00 -7.601586632E+00  9.207662480E+00  8.429369702E-08  0.00000E+00  9.000E+00
      21     1     1     2   512   511  8.255627155E+00  5.867370752E+00 -1.847795645E+01  2.107169413E+01  4.129530925E-07  0.00000E+00  9.000E+00
</event>
<event>
      5  10001  3.52971E+09  5.26857E+00 -1.00000E+00  2.34607E-01
      21    -1     0     0   515   513  0.000000000E+00  0.000000000E+00  1.255107055E+01  1.255107055E+01  0.000000000E+00  0.00000E+00  9.000E+00
      21    -1     0     0   511   515  0.000000000E+00  0.000000000E+00 -8.179980633E+01  8.179980633E+01  0.000000000E+00  0.00000E+00  9.000E+00
      21     1     1     2   511   516  1.269335453E+01  1.254757481E+01 -6.851199269E+01  7.079870073E+01  0.000000000E+00  0.00000E+00  9.000E+00
      21     1     1     2   516   514 -1.549005754E+01 -8.082563734E+00 -3.155975496E+00  1.775471488E+01  2.731427965E-07  0.00000E+00  9.000E+00
      21     1     1     2   514   513  2.796703010E+00 -4.465011072E+00  2.419232405E+00  5.797461257E+00  1.115100797E-07  0.00000E+00  9.000E+00
</event>
<event>
      5  10001  3.52971E+09  2.10903E+01 -1.00000E+00  1.64486E-01
       2    -1     0     0   515     0  0.000000000E+00  0.000000000E+00  1.963270411E+02  1.963270411E+02  0.000000000E+00  0.00000E+00  9.000E+00
      21    -1     0     0   512   514  0.000000000E+00  0.000000000E+00 -6.076194509E-01  6.076194509E-01  0.000000000E+00  0.00000E+00  9.000E+00
      21     1     1     2   515   514 -2.110148667E+00  9.003487539E-01  3.047410197E+01  3.056033780E+01  3.371747881E-07  0.00000E+00  9.000E+00
       2     1     1     2   511     0 -1.737110412E+00  4.201602605E+00  1.464795291E+02  1.465504430E+02  3.300000131E-01  0.00000E+00  9.000E+00
      21     1     1     2   512   511  3.847259078E+00 -5.101951359E+00  1.876579064E+01  1.982387975E+01  6.307962682E-07  0.00000E+00  9.000E+00
</event>
<event>
      5  10001  3.52971E+09  6.84890E+00 -1.00000E+00  2.16896E-01
      21    -1     0     0   513   511  0.000000000E+00  0.000000000E+00  3.307930893E+00  3.307930893E+00  0.000000000E+00  0.00000E+00  9.000E+00
      21    -1     0     0   512   516  0.000000000E+00  0.000000000E+00 -1.057899496E+02  1.057899496E+02  0.000000000E+00  0.00000E+00  9.000E+00
      21     1     1     2   513   516 -7.858832452E+00  5.911504022E+00 -8.134377987E+01  8.193605831E+01  9.536743164E-07  0.00000E+00  9.000E+00
      21     1     1     2   514   511  6.316053077E+00 -3.321138630E+00 -1.498027508E+00  7.291541311E+00  3.338658288E-07  0.00000E+00  9.000E+00
      21     1     1     2   512   514  1.542779374E+00 -2.590365392E+00 -1.964021137E+01  1.987028092E+01  3.371747881E-07  0.00000E+00  9.000E+00
</event>
<event>
      5  10001  3.52971E+09  2.27335E+00 -1.00000E+00  3.38943E-01
       2    -1     0     0   512     0  0.000000000E+00  0.000000000E+00  4.660334236E+00  4.660334236E+00  0.000000000E+00  0.00000E+00  9.000E+00
      21    -1     0     0   515   511  0.000000000E+00  0.000000000E+00 -6.756511179E+01  6.756511179E+01  0.000000000E+00  0.00000E+00  9.000E+00
      21     1     1     2   512   514 -4.322328505E+00 -1.061465504E+01 -3.509715413E+01  3.692104621E+01  0.000000000E+00  0.00000E+00  9.000E+00
       2     1     1     2   515     0  2.128160405E+00  1.120861916E+01 -5.130647013E+00  1.251377836E+01  3.300000131E-01  0.00000E+00  9.000E+00
      21     1     1     2   514   511  2.194168100E+00 -5.939641139E-01 -2.267697641E+01  2.279062145E+01  4.768371582E-07  0.00000E+00  9.000E+00
</event>
<event>
      5  10001  3.52971E+09  2.94545E+01 -1.00000E+00  1.53593E-01
      21    -1     0     0   513   511  0.000000000E+00  0.000000000E+00  1.903252774E+02  1.903252774E+02  0.000000000E+00  0.00000E+00  9.000E+00
      21    -1     0     0   514   516  0.000000000E+00  0.000000000E+00 -1.079591390E+01  1.079591390E+01  0.000000000E+00  0.00000E+00  9.000E+00
      21     1     1     2   513   516 -4.503282831E+00  8.238642128E+00 -7.115479865E+00  1.178069752E+01  3.475518164E-07  0.00000E+00  9.000E+00
      21     1     1     2   514   512 -1.257821428E+01 -2.529404344E+00  1.017884059E+02  1.025938055E+02  0.000000000E+00  0.00000E+00  9.000E+00
      21     1     1     2   512   511  1.708149711E+01 -5.709237784E+00  8.485643743E+01  8.674668820E+01  1.348699152E-06  0.00000E+00  9.000E+00
</event>
<event>
      5  10001  3.52971E+09  1.09908E+01 -1.00000E+00  1.91126E-01
      21    -1     0     0   513   511  0.000000000E+00  0.000000000E+00  3.119915610E+01  3.119915610E+01  0.000000000E+00  0.00000E+00  9.000E+00
      -1    -1     0     0     0   515  0.000000000E+00  0.000000000E+00 -9.409404649E+01  9.409404649E+01  0.000000000E+00  0.00000E+00  9.000E+00
      -1     1     1     2     0   512  5.046799036E+00 -3.404053689E+00 -8.383723671E+01  8.405860409E+01  3.300000131E-01  0.00000E+00  9.000E+00
      21     1     1     2   512   511 -1.599892771E+01  2.483824839E+00  2.477378041E+01  2.959518998E+01  0.000000000E+00  0.00000E+00  9.000E+00
      21     1     1     2   513   515  1.095212867E+01  9.202288493E-01 -3.831434094E+00  1.163940852E+01  9.424321831E-08  0.00000E+00  9.000E+00
</event>
<event>
      5  10001  3.52971E+09  4.79038E+00 -1.00000E+00  2.46279E-01
      -1    -1     0     0     0   514  0.000000000E+00  0.000000000E+00  4.955051468E+02  4.955051468E+02  0.000000000E+00  0.00000E+00  9.000E+00
      21    -1     0     0   514   513  0.000000000E+00  0.000000000E+00 -1.280838990E+00  1.280838990E+00  0.000000000E+00  0.00000E+00  9.000E+00
      -1     1     1     2     0   511  3.563387929E+00  1.030056220E+01  4.613140700E+02  4.614429319E+02  3.300000131E-01  0.00000E+00  9.000E+00
      21     1     1     2   512   513 -3.011210012E+00 -4.173932135E+00  6.858177084E+00  8.574595508E+00  1.884864366E-07  0.00000E+00  9.000E+00
      21     1     1     2   511   512 -5.521779171E-01 -6.126630063E+00  2.605206070E+01  2.676845836E+01  8.259061849E-07  0.00000E+00  9.000E+00
</event>
<event>
      5  10001  3.52971E+09  8.44563E+00 -1.00000E+00  2.04634E-01
       4    -1     0     0   511     0  0.000000000E+00  0.000000000E+00  3.991456567E+00  3.991456567E+00  0.000000000E+00  0.00000E+00  9.000E+00
      21    -1     0     0   515   512  0.000000000E+00  0.000000000E+00 -8.168844238E+01  8.168844238E+01  0.000000000E+00  0.00000E+00  9.000E+00
      21     1     1     2   511   512  5.599967898E+00 -8.349300592E+00 -5.696790709E+01  5.784818838E+01  9.536743164E-07  0.00000E+00  9.000E+00
       4     1     1     2   513     0 -5.842615778E+00  5.306358239E+00 -1.268812935E+00  8.133479155E+00  1.500000000E+00  0.00000E+00  9.000E+00
      21     1     1     2   515   513  2.426478805E-01  3.042942352E+00 -1.946026579E+01  1.969823141E+01  3.371747881E-07  0.00000E+00  9.000E+00
</event>
<event>
      5  10001  3.52971E+09  7.67183E+00 -1.00000E+00  2.10072E-01
       1    -1     0     0   511     0  0.000000000E+00  0.000000000E+00  3.667342553E+02  3.667342553E+02  0.000000000E+00  0.00000E+00  9.000E+00
      21    -1     0     0   512   511  0.000000000E+00  0.000000000E+00 -3.494459266E+00  3.494459266E+00  0.000000000E+00  0.00000E+00  9.000E+00
      21     1     1     2   513   514  4.414348892E+00  1.132659924E+01  6.011123551E+01  6.132812537E+01  1.507891493E-06  0.00000E+00  9.000E+00
       1     1     1     2   514     0  2.847678068E+00 -8.853356260E+00  3.007139889E+02  3.008579452E+02  3.300000131E-01  0.00000E+00  9.000E+00
      21     1     1     2   512   513 -7.262026961E+00 -2.473242984E+00  2.414571673E+00  8.042644018E+00  3.998401125E-07  0.00000E+00  9.000E+00
</event>
<event>
      5  10001  3.52971E+09  1.29359E+01 -1.00000E+00  1.83659E-01
      21    -1     0     0   515   511  0.000000000E+00  0.000000000E+00  6.071995098E+01  6.071995098E+01  0.000000000E+00  0.00000E+00  9.000E+00
      21    -1     0     0   512   513  0.000000000E+00  0.000000000E+00 -7.924285593E+01  7.924285593E+01  0.000000000E+00  0.00000E+00  9.000E+00
      21     1     1     2   515   513 -1.943750592E+01  2.662187801E+00 -3.247013277E+00  1.988584863E+01  5.331201500E-07  0.00000E+00  9.000E+00
      21     1     1     2   512   514  1.650122528E+01  9.936093667E+00 -6.546898620E+01  6.824371434E+01  1.907348633E-06  0.00000E+00  9.000E+00
      21     1     1     2   514   511  2.936280641E+00 -1.259828147E+01  5.019309453E+01  5.183324395E+01  6.743495762E-07  0.00000E+00  9.000E+00
</event>
<event>
      5  10001  3.52971E+09  4.74461E+00 -1.00000E+00  2.47134E-01
      21    -1     0     0   512   511  0.000000000E+00  0.000000000E+00  8.065020219E+01  8.065020219E+01  0.000000000E+00  0.00000E+00  9.000E+00
       1    -1     0     0   513     0  0.000000000E+00  0.000000000E+00 -3.167478497E+01  3.167478497E+01  0.000000000E+00  0.00000E+00  9.000E+00
      21     1     1     2   512   514  7.287524087E+00  8.068053108E+00  7.811253340E+01  7.886551441E+01  1.651812370E-06  0.00000E+00  9.000E+00
       1     1     1     2   514     0 -3.515002263E+00 -1.094534899E+01 -2.287113340E+01  2.559987399E+01  3.300000131E-01  0.00000E+00  9.000E+00
      21     1     1     2   513   511 -3.772521824E+00  2.877295881E+00 -6.265982773E+00  7.859598757E+00  0.000000000E+00  0.00000E+00  9.000E+00
</event>
<event>
      5  10001  3.52971E+09  5.42869E+00 -1.00000E+00  2.32433E-01
      21    -1     0     0   515   514  0.000000000E+00  0.000000000E+00  6.311020641E-01  6.311020641E-01  0.000000000E+00  0.00000E+00  9.000E+00
      21    -1     0     0   513   511  0.000000000E+00  0.000000000E+00 -4.514542453E+02  4.514542453E+02  0.000000000E+00  0.00000E+00  9.000E+00
      21     1     1     2   515   511  1.407794796E+00 -1.291295757E+01 -9.819885530E+01  9.905423536E+01  2.336015456E-06  0.00000E+00  9.000E+00
      -5     1     1     2     0   514  6.513315617E-01  2.888619035E+00 -1.177910124E+02  1.179259554E+02  4.800000191E+00  0.00000E+00  9.000E+00
       5     1     1     2   513     0 -2.059126357E+00  1.002433853E+01 -2.348332755E+02  2.351051566E+02  4.800000191E+00  0.00000E+00  9.000E+00
</event>
<event>
      5  10001  3.52971E+09  4.83246E+00 -1.00000E+00  2.45505E-01
      -2    -1     0     0     0   512  0.000000000E+00  0.000000000E+00  3.017243979E+02  3.017243979E+02  0.000000000E+00  0.00000E+00  9.000E+00
      21    -1     0     0   511   515  0.000000000E+00  0.000000000E+00 -9.999504558E+00  9.999504558E+00  0.000000000E+00  0.00000E+00  9.000E+00
      -2     1     1     2     0   515  1.235608771E+01  6.227072151E+00  2.484212450E+02  2.488064975E+02  3.300000131E-01  0.00000E+00  9.000E+00
      21     1     1     2   514   512 -7.680741948E+00 -7.449079700E+00  5.193481092E+01  5.302553319E+01  1.168007728E-06  0.00000E+00  9.000E+00
      21     1     1     2   511   514 -4.675345764E+00  1.222007549E+00 -8.631162553E+00  9.891871788E+00  7.152557373E-07  0.00000E+00  9.000E+00
</event>
<event>
      5  10001  3.52971E+09  1.15690E+01 -1.00000E+00  1.88709E-01
      21    -1     0     0   513   512  0.000000000E+00  0.000000000E+00  2.427250185E+02  2.427250185E+02  0.000000000E+00  0.00000E+00  9.000E+00
      21    -1     0     0   515   513  0.000000000E+00  0.000000000E+00 -2.734672056E+01  2.734672056E+01  0.000000000E+00  0.00000E+00  9.000E+00
      21     1     1     2   514   512 -4.239010695E+00  3.155149101E+01  2.097021645E+02  2.121048410E+02  2.697398305E-06  0.00000E+00  9.000E+00
      21     1     1     2   511   514 -5.813382049E+00 -2.582507486E+01  2.437119127E+01  3.598172962E+01  8.920806376E-07  0.00000E+00  9.000E+00
      21     1     1     2   515   511  1.005239274E+01 -5.726416151E+00 -1.869505784E+01  2.198516840E+01  4.129530925E-07  0.00000E+00  9.000E+00
</event>
<event>
      5  10001  3.52971E+09  1.47747E+01 -1.00000E+00  1.78001E-01
      21    -1     0     0   516   514  0.000000000E+00  0.000000000E+00  5.506516105E+02  5.506516105E+02  0.000000000E+00  0.00000E+00  9.000E+00
      21    -1     0     0   515   516  0.000000000E+00  0.000000000E+00 -2.467756630E-01  2.467756630E-01  0.000000000E+00  0.00000E+00  9.000E+00
      21     1     1     2   511   514  8.405590893E+00 -4.995298479E+00  2.923193524E+02  2.924828384E+02  0.000000000E+00  0.00000E+00  9.000E+00
      21     1     1     2   512   511  9.212866177E-01  3.235096556E+00  8.938342149E+01  8.944669170E+01  0.000000000E+00  0.00000E+00  9.000E+00
      21     1     1     2   515   512 -9.326877510E+00  1.760201924E+00  1.687020609E+02  1.689688560E+02  0.000000000E+00  0.00000E+00  9.000E+00
</event>
<event>
      5  10001  3.52971E+09  1.21322E+01 -1.00000E+00  1.86525E-01
      21    -1     0     0   513   511  0.000000000E+00  0.000000000E+00  3.938878860E+00  3.938878860E+00  0.000000000E+00  0.00000E+00  9.000E+00
      21    -1     0     0   514   513  0.000000000E+00  0.000000000E+00 -2.112441674E+02  2.112441674E+02  0.000000000E+00  0.00000E+00  9.000E+00
      21     1     1     2   512   511 -1.755925927E+01 -6.458813586E+00 -2.616663531E+01  3.216732290E+01  3.371747881E-07  0.00000E+00  9.000E+00
      21     1     1     2   515   512  5.634599784E+00  8.693409565E+00 -3.874297297E+01  4.010413992E+01  9.536743164E-07  0.00000E+00  9.000E+00
      21     1     1     2   514   515  1.192465949E+01 -2.234595980E+00 -1.423956802E+02  1.429115834E+02  2.697398305E-06  0.00000E+00  9.000E+00
</event>
<event>
      5  10001  3.52971E+09  4.28445E+00 -1.00000E+00  2.56625E-01
      21    -1     0     0   516   511  0.000000000E+00  0.000000000E+00  3.652797827E+00  3.652797827E+00  0.000000000E+00  0.00000E+00  9.000E+00
      21    -1     0     0   514   516  0.000000000E+00  0.000000000E+00 -3.307829107E+02  3.307829107E+02  0.000000000E+00  0.00000E+00  9.000E+00
      21     1     1     2   514   517  8.133122112E+00 -8.580812080E+00 -3.155273600E+02  3.157487814E+02  3.814697266E-06  0.00000E+00  9.000E+00
      21     1     1     2   512   511 -3.559533696E+00  6.275746250E+00 -1.513231222E+00  7.371915617E+00  3.686343693E-07  0.00000E+00  9.000E+00
      21     1     1     2   517   512 -4.573588416E+00  2.305065830E+00 -1.008952160E+01  1.131501152E+01  3.153981341E-07  0.00000E+00  9.000E+00
</event>
<event>
      5  10001  3.52971E+09  5.62702E+00 -1.00000E+00  2.29883E-01
      21    -1     0     0   513   511  0.000000000E+00  0.000000000E+00  4.100096314E-01  4.100096314E-01  0.000000000E+00  0.00000E+00  9.000E+00
      21    -1     0     0   514   513  0.000000000E+00  0.000000000E+00 -1.151940882E+03  1.151940882E+03  0.000000000E+00  0.00000E+00  9.000E+00
      21     1     1     2   512   511 -6.696786135E+00  5.420663908E+00 -6.134932850E+01  6.195135712E+01  3.234066955E-06  0.00000E+00  9.000E+00
      21     1     1     2   515   512  1.227271211E+01 -6.177229911E+00 -4.928264053E+02  4.930178936E+02  7.629394531E-06  0.00000E+00  9.000E+00
      21     1     1     2   514   515 -5.575925979E+00  7.565660028E-01 -5.973551391E+02  5.973816414E+02  7.629394531E-06  0.00000E+00  9.000E+00
</event>
<event>
      5  10001  3.52971E+09  7.02142E+00 -1.00000E+00  2.15361E-01
      21    -1     0     0   516   511  0.000000000E+00  0.000000000E+00  2.050676911E+00  2.050676911E+00  0.000000000E+00  0.00000E+00  9.000E+00
      21    -1     0     0   514   516  0.000000000E+00  0.000000000E+00 -3.987484220E+02  3.987484220E+02  0.000000000E+00  0.00000E+00  9.000E+00
      21     1     1     2   514   517  1.000012009E+01  3.149426095E+00 -3.812631907E+02  3.814073175E+02  5.394796609E-06  0.00000E+00  9.000E+00
      21     1     1     2   517   512 -5.933869231E+00 -1.126924766E+00 -1.277001126E+01  1.412635661E+01  1.685873940E-07  0.00000E+00  9.000E+00
      21     1     1     2   512   511 -4.066250863E+00 -2.022501329E+00 -2.664543095E+00  5.265424732E+00  1.632340424E-07  0.00000E+00  9.000E+00
</event>
<event>
      5  10001  3.52971E+09  4.80978E+00 -1.00000E+00  2.45921E-01
      21    -1     0     0   513   512  0.000000000E+00  0.000000000E+00  1.526930890E+02  1.526930890E+02  0.000000000E+00  0.00000E+00  9.000E+00
       2    -1     0     0   511     0  0.000000000E+00  0.000000000E+00 -1.263776458E+01  1.263776458E+01  0.000000000E+00  0.00000E+00  9.000E+00
      21     1     1     2   515   512 -1.013300509E+01 -6.131098374E+00  1.394224730E+02  1.399246016E+02  1.907348633E-06  0.00000E+00  9.000E+00
      21     1     1     2   511   515  8.528607501E+00  1.596882365E+00  1.097795939E+01  1.399295436E+01  2.064765462E-07  0.00000E+00  9.000E+00
       2     1     1     2   513     0  1.604397585E+00  4.534216009E+00 -1.034510791E+01  1.141329768E+01  3.300000131E-01  0.00000E+00  9.000E+00
</event>
<event>
      5  10001  3.52971E+09  9.50477E+00 -1.00000E+00  1.98337E-01
      21    -1     0     0   514   511  0.000000000E+00  0.000000000E+00  1.342435392E+02  1.342435392E+02  0.000000000E+00  0.00000E+00  9.000E+00
      21    -1     0     0   516   514  0.000000000E+00  0.000000000E+00 -2.756905864E+00  2.756905864E+00  0.000000000E+00  0.00000E+00  9.000E+00
      21     1     1     2   516   517  6.821078339E+00 -7.638429576E+00  1.054981779E+01  1.470276748E+01  3.371747881E-07  0.00000E+00  9.000E+00
      21     1     1     2   512   511 -6.261559378E+00  1.591785968E+00  1.056726377E+02  1.058699545E+02  1.348699152E-06  0.00000E+00  9.000E+00
      21     1     1     2   517   512 -5.595189608E-01  6.046643608E+00  1.526417785E+01  1.642772309E+01  0.000000000E+00  0.00000E+00  9.000E+00
</event>
<event>
      5  10001  3.52971E+09  1.46006E+01 -1.00000E+00  1.78491E-01
      21    -1     0     0   513   512  0.000000000E+00  0.000000000E+00  3.070342858E+01  3.070342858E+01  0.000000000E+00  0.00000E+00  9.000E+00
      21    -1     0     0   511   515  0.000000000E+00  0.000000000E+00 -2.230760760E+02  2.230760760E+02  0.000000000E+00  0.00000E+00  9.000E+00
      21     1     1     2   513   515  8.578254490E+00  1.973156560E+00 -1.727457417E+02  1.729698560E+02  1.907348633E-06  0.00000E+00  9.000E+00
      21     1     1     2   516   512 -1.798044254E+01 -1.314353625E+01  2.521953040E+01  3.364630102E+01  1.815741803E-06  0.00000E+00  9.000E+00
      21     1     1     2   511   516  9.402188047E+00  1.117037969E+01 -4.484643613E+01  4.716334759E+01  8.259061849E-07  0.00000E+00  9.000E+00
</event>
<event>
      5  10001  3.52971E+09  1.01556E+01 -1.00000E+00  1.94981E-01
      21    -1     0     0   514   515  0.000000000E+00  0.000000000E+00  7.393397068E+00  7.393397068E+00  0.000000000E+00  0.00000E+00  9.000E+00
      21    -1     0     0   512   514  0.000000000E+00  0.000000000E+00 -8.617395736E+02  8.617395736E+02  0.000000000E+00  0.00000E+00  9.000E+00
      21     1     1     2   511   517  7.190518449E+00  8.245730711E+00 -5.432162652E+01  5.541240600E+01  0.000000000E+00  0.00000E+00  9.000E+00
      21     1     1     2   517   515 -1.312671516E+01 -5.764052033E-03  4.955331752E-01  1.313606628E+01  3.798700273E-07  0.00000E+00  9.000E+00
      21     1     1     2   512   511  5.936196711E+00 -8.239966659E+00 -8.005200832E+02  8.005844984E+02  1.525878906E-05  0.00000E+00  9.000E+00
</event>
<event>
      5  10001  3.52971E+09  6.07792E+00 -1.00000E+00  2.24599E-01
      -1    -1     0     0     0   511  0.000000000E+00  0.000000000E+00  2.444997540E+02  2.444997540E+02  0.000000000E+00  0.00000E+00  9.000E+00
      21    -1     0     0   513   514  0.000000000E+00  0.000000000E+00 -3.050632662E+01  3.050632662E+01  0.000000000E+00  0.00000E+00  9.000E+00
      -1     1     1     2     0   514 -1.394642716E+01 -6.376546642E+00  2.364365126E+02  2.369335277E+02  3.300000131E-01  0.00000E+00  9.000E+00
      21     1     1     2   515   511  1.144444670E+01  2.809237638E+00 -2.836782793E+01  3.071808650E+01  1.507891493E-06  0.00000E+00  9.000E+00
      21     1     1     2   513   515  2.501980454E+00  3.567309004E+00  5.924742732E+00  7.354466409E+00  1.192092896E-07  0.00000E+00  9.000E+00
</event>
<event>
      5  10001  3.52971E+09  1.24224E+01 -1.00000E+00  1.85458E-01
      21    -1     0     0   512   514  0.000000000E+00  0.000000000E+00  4.718646198E+01  4.718646198E+01  0.000000000E+00  0.00000E+00  9.000E+00
      21    -1     0     0   513   512  0.000000000E+00  0.000000000E+00 -4.927467811E+01  4.927467811E+01  0.000000000E+00  0.00000E+00  9.000E+00
      21     1     1     2   513   516  3.309456010E+00  9.582308201E+00 -4.785006094E+01  4.891218111E+01  0.000000000E+00  0.00000E+00  9.000E+00
      21     1     1     2   516   511 -3.214424643E+00 -5.498352962E+00  1.242027398E+01  1.395806637E+01  2.384185791E-07  0.00000E+00  9.000E+00
      21     1     1     2   511   514 -9.503136616E-02 -4.083955239E+00  3.334157083E+01  3.359089261E+01  9.536743164E-07  0.00000E+00  9.000E+00
</event>
<event>
      5  10001  3.52971E+09  1.84846E+01 -1.00000E+00  1.69240E-01
      21    -1     0     0   515   511  0.000000000E+00  0.000000000E+00  2.327844723E+00  2.327844723E+00  0.000000000E+00  0.00000E+00  9.000E+00
      21    -1     0     0   514   515  0.000000000E+00  0.000000000E+00 -8.292797957E+01  8.292797957E+01  0.000000000E+00  0.00000E+00  9.000E+00
      21     1     1     2   517   511 -7.005275199E+00 -2.136290256E+00 -1.573747312E+01  1.735815880E+01  2.384185791E-07  0.00000E+00  9.000E+00
      21     1     1     2   512   517  1.275730207E-01  7.399047004E+00 -5.112727954E+01  5.166005115E+01  9.536743164E-07  0.00000E+00  9.000E+00
      21     1     1     2   514   512  6.877702178E+00 -5.262756749E+00 -1.373538219E+01  1.623761435E+01  2.920019320E-07  0.00000E+00  9.000E+00
</event>
<event>
      5  10001  3.52971E+09  7.98117E+00 -1.00000E+00  2.07799E-01
      21    -1     0     0   513   512  0.000000000E+00  0.000000000E+00  2.750069782E+01  2.750069782E+01  0.000000000E+00  0.00000E+00  9.000E+00
      21    -1     0     0   515   516  0.000000000E+00  0.000000000E+00 -2.244024887E+02  2.244024887E+02  0.000000000E+00  0.00000E+00  9.000E+00
      21     1     1     2   513   516  1.415502388E+01  2.007345167E+00 -2.045919744E+02  2.050908826E+02  3.814697266E-06  0.00000E+00  9.000E+00
      21     1     1     2   511   512 -7.296594194E+00  2.074446292E+00  2.586918642E+01  2.695845731E+01  2.023048729E-06  0.00000E+00  9.000E+00
      21     1     1     2   515   511 -6.858429684E+00 -4.081791459E+00 -1.817900290E+01  1.985384662E+01  0.000000000E+00  0.00000E+00  9.000E+00
</event>
<event>
      5  10001  3.52971E+09  2.95581E+00 -1.00000E+00  2.98827E-01
      21    -1     0     0   514   511  0.000000000E+00  0.000000000E+00  1.150477358E+02  1.150477358E+02  0.000000000E+00  0.00000E+00  9.000E+00
      21    -1     0     0   515   514  0.000000000E+00  0.000000000E+00 -5.337179129E+01  5.337179129E+01  0.000000000E+00  0.00000E+00  9.000E+00
      21     1     1     2   515   517 -5.955853328E+00 -8.985016804E+00 -5.254546026E+01  5.363979968E+01  6.743495762E-07  0.00000E+00  9.000E+00
      21     1     1     2   512   511  4.131392272E+00  3.616134661E+00  6.542129323E+01  6.565127905E+01  9.536743164E-07  0.00000E+00  9.000E+00
      21     1     1     2   517   512  1.824461056E+00  5.368882142E+00  4.880011151E+01  4.912844835E+01  9.536743164E-07  0.00000E+00  9.000E+00
</event>
<event>
      5  10001  3.52971E+09  8.89634E+00 -1.00000E+00  2.01813E-01
      -2    -1     0     0     0   513  0.000000000E+00  0.000000000E+00  6.827463045E+02  6.827463045E+02  0.000000000E+00  0.00000E+00  9.000E+00
      21    -1     0     0   511   512  0.000000000E+00  0.000000000E+00 -4.827083206E-01  4.827083206E-01  0.000000000E+00  0.00000E+00  9.000E+00
      -2     1     1     2     0   512  1.106485443E+01  1.290480868E+00  5.491045917E+02  5.492176781E+02  3.300000131E-01  0.00000E+00  9.000E+00
      21     1     1     2   511   514 -3.227909432E+00  1.301296231E+00  1.023600111E+01  1.081149805E+01  6.848052319E-07  0.00000E+00  9.000E+00
      21     1     1     2   514   513 -7.836944998E+00 -2.591777099E+00  1.229230033E+02  1.231998367E+02  1.348699152E-06  0.00000E+00  9.000E+00
</event>
<event>
      5  10001  3.52971E+09  6.86575E+00 -1.00000E+00  2.16744E-01
      21    -1     0     0   514   512  0.000000000E+00  0.000000000E+00  5.983516201E+00  5.983516201E+00  0.000000000E+00  0.00000E+00  9.000E+00
      -2    -1     0     0     0   515  0.000000000E+00  0.000000000E+00 -6.156540044E+02  6.156540044E+02  0.000000000E+00  0.00000E+00  9.000E+00
      -2     1     1     2     0   511 -9.146117025E+00 -6.853694320E+00 -2.361837852E+02  2.364603854E+02  3.300000131E-01  0.00000E+00  9.000E+00
      21     1     1     2   514   515  1.367313741E+01  1.692021761E+00 -3.771457578E+02  3.773973242E+02  7.629394531E-06  0.00000E+00  9.000E+00
      21     1     1     2   511   512 -4.527020382E+00  5.161672560E+00  3.659054844E+00  7.779811019E+00  2.858538343E-07  0.00000E+00  9.000E+00
</event>
<event>
      5  10001  3.52971E+09  1.31521E+01 -1.00000E+00  1.82933E-01
      21    -1     0     0   513   511  0.000000000E+00  0.000000000E+00  1.493642747E+02  1.493642747E+02  0.000000000E+00  0.00000E+00  9.000E+00
      21    -1     0     0   514   513  0.000000000E+00  0.000000000E+00 -2.469636252E+02  2.469636252E+02  0.000000000E+00  0.00000E+00  9.000E+00
      21     1     1     2   512   516 -8.506098208E+00  1.166149705E+01  3.377405427E+00  1.482400376E+01  3.769728732E-07  0.00000E+00  9.000E+00
      21     1     1     2   516   511 -4.571647943E+00 -1.026461941E+01  1.398588096E+02  1.403094758E+02  1.907348633E-06  0.00000E+00  9.000E+00
      21     1     1     2   514   512  1.307774615E+01 -1.396877639E+00 -2.408355656E+02  2.411944202E+02  4.672030912E-06  0.00000E+00  9.000E+00
</event>
<event>
      5  10001  3.52971E+09  5.84286E+00 -1.00000E+00  2.27271E-01
      21    -1     0     0   515   511  0.000000000E+00  0.000000000E+00  5.203210242E-01  5.203210242E-01  0.000000000E+00  0.00000E+00  9.000E+00
       1    -1     0     0   511     0  0.000000000E+00  0.000000000E+00 -1.119911036E+03  1.119911036E+03  0.000000000E+00  0.00000E+00  9.000E+00
      21     1     1     2   513   514 -8.113686204E+00 -5.137857130E+00 -6.446402302E+01  6.517545353E+01  1.651812370E-06  0.00000E+00  9.000E+00
       1     1     1     2   514     0  1.342396862E+01  2.215937014E+00 -9.766784537E+02  9.767732716E+02  3.300000131E-01  0.00000E+00  9.000E+00
      21     1     1     2   515   513 -5.310282420E+00  2.921920117E+00 -7.824823871E+01  7.848263233E+01  2.132480600E-06  0.00000E+00  9.000E+00
</event>
<event>
      5  10001  3.52971E+09  5.22934E+00 -1.00000E+00  2.35156E-01
       2    -1     0     0   512     0  0.000000000E+00  0.000000000E+00  1.432586839E+03  1.432586839E+03  0.000000000E+00  0.00000E+00  9.000E+00
      21    -1     0     0   511   512  0.000000000E+00  0.000000000E+00 -1.115513307E+01  1.115513307E+01  0.000000000E+00  0.00000E+00  9.000E+00
      21     1     1     2   511   513 -3.137682773E+00  1.140497853E+01 -7.157748414E+00  1.382577126E+01  3.953724850E-07  0.00000E+00  9.000E+00
      21     1     1     2   513   514  5.722727318E+00 -6.859276786E+00  2.963891076E+01  3.095584464E+01  0.000000000E+00  0.00000E+00  9.000E+00
       2     1     1     2   514     0 -2.585044545E+00 -4.545701748E+00  1.398950544E+03  1.398960356E+03  3.300000131E-01  0.00000E+00  9.000E+00
</event>
<event>
      5  10001  3.52971E+09  8.00245E+00 -1.00000E+00  2.07648E-01
      21    -1     0     0   515   511  0.000000000E+00  0.000000000E+00  6.095724445E+01  6.095724445E+01  0.000000000E+00  0.00000E+00  9.000E+00
      21    -1     0     0   516   515  0.000000000E+00  0.000000000E+00 -1.877818614E+01  1.877818614E+01  0.000000000E+00  0.00000E+00  9.000E+00
      21     1     1     2   517   511 -1.838300256E+01  2.379813396E+00  5.099528492E+01  5.425972152E+01  0.000000000E+00  0.00000E+00  9.000E+00
      21     1     1     2   516   512  1.561057532E+01  3.898879720E+00 -9.318676885E+00  1.859379100E+01  5.840038640E-07  0.00000E+00  9.000E+00
      21     1     1     2   512   517  2.772427241E+00 -6.278693117E+00  5.024502697E-01  6.881918071E+00  5.053229617E-08  0.00000E+00  9.000E+00
</event>
<event>
      5  10001  3.52971E+09  1.22819E+01 -1.00000E+00  1.85970E-01
       2    -1     0     0   514     0  0.000000000E+00  0.000000000E+00  1.107262750E+03  1.107262750E+03  0.000000000E+00  0.00000E+00  9.000E+00
      21    -1     0     0   512   513  0.000000000E+00  0.000000000E+00 -3.850938488E+01  3.850938488E+01  0.000000000E+00  0.00000E+00  9.000E+00
      21     1     1     2   514   511  1.263978134E+01 -9.805985647E+00 -3.335757364E+01  3.699525843E+01  3.662655710E-06  0.00000E+00  9.000E+00
       2     1     1     2   512     0 -3.066211139E+00  1.539436639E+01  1.096012282E+03  1.096124728E+03  3.300000131E-01  0.00000E+00  9.000E+00
      21     1     1     2   511   513 -9.573570198E+00 -5.588380748E+00  6.098656759E+00  1.265214843E+01  5.397430145E-07  0.00000E+00  9.000E+00
</event>
<event>
      5  10001  3.52971E+09  9.62811E+00 -1.00000E+00  1.97674E-01
      21    -1     0     0   515   511  0.000000000E+00  0.000000000E+00  1.461510858E+02  1.461510858E+02  0.000000000E+00  0.00000E+00  9.000E+00
      21    -1     0     0   516   512  0.000000000E+00  0.000000000E+00 -3.959353245E+00  3.959353245E+00  0.000000000E+00  0.00000E+00  9.000E+00
      21     1     1     2   516   513 -1.269355848E+01  9.907772978E+00  5.873126491E+01  6.089870171E+01  0.000000000E+00  0.00000E+00  9.000E+00
      21     1     1     2   513   511  3.074606761E+00 -9.487918077E+00  7.693932256E+01  7.758307259E+01  9.536743164E-07  0.00000E+00  9.000E+00
      21     1     1     2   515   512  9.618951716E+00 -4.198549008E-01  6.521145056E+00  1.162866472E+01  8.429369702E-08  0.00000E+00  9.000E+00
</event>
<event>
      5  10001  3.52971E+09  2.72768E+01 -1.00000E+00  1.55964E-01
      21    -1     0     0   514   512  0.000000000E+00  0.000000000E+00  1.848008139E+01  1.848008139E+01  0.000000000E+00  0.00000E+00  9.000E+00
      21    -1     0     0   516   517  0.000000000E+00  0.000000000E+00 -2.569159359E+01  2.569159359E+01  0.000000000E+00  0.00000E+00  9.000E+00
      21     1     1     2   514   517  2.775130327E+00  1.747198439E+01 -5.967009713E+00  1.867021135E+01  8.429369702E-08  0.00000E+00  9.000E+00
       4     1     1     2   516     0  6.558692780E+00 -3.472202503E+00 -3.707384146E+00  8.430144626E+00  1.500000000E+00  0.00000E+00  9.000E+00
      -4     1     1     2     0   512 -9.333823107E+00 -1.399978189E+01  2.462881661E+00  1.707131901E+01  1.500000000E+00  0.00000E+00  9.000E+00
</event>
<event>
      5  10001  3.52971E+09  3.03850E+00 -1.00000E+00  2.95187E-01
      21    -1     0     0   511   515  0.000000000E+00  0.000000000E+00  1.993149357E+01  1.993149357E+01  0.000000000E+00  0.00000E+00  9.000E+00
      21    -1     0     0   513   512  0.000000000E+00  0.000000000E+00 -6.560935199E+00  6.560935199E+00  0.000000000E+00  0.00000E+00  9.000E+00
      21     1     1     2   511   512  3.649906636E+00  9.555367208E+00  2.201428252E+00  1.046294162E+01  1.074538015E-07  0.00000E+00  9.000E+00
      21     1     1     2   514   515 -4.096751687E+00 -6.697862412E+00  1.041072043E+01  1.303947220E+01  1.192092896E-07  0.00000E+00  9.000E+00
      21     1     1     2   513   514  4.468450507E-01 -2.857504796E+00  7.584096817E-01  2.990014950E+00  3.942476677E-08  0.00000E+00  9.000E+00
</event>
<event>
      5  10001  3.52971E+09  6.05477E+00 -1.00000E+00  2.24854E-01
       3    -1     0     0   513     0  0.000000000E+00  0.000000000E+00  8.102984121E+00  8.102984121E+00  0.000000000E+00  0.00000E+00  9.000E+00
       1    -1     0     0   512     0  0.000000000E+00  0.000000000E+00 -5.797897161E+02  5.797897161E+02  0.000000000E+00  0.00000E+00  9.000E+00
       1     1     1     2   513     0 -8.525828425E+00  9.095147165E+00 -3.907719235E+02  3.909708641E+02  3.300000131E-01  0.00000E+00  9.000E+00
       3     1     1     2   511     0  8.355614231E+00 -3.042898227E+00  5.461205970E+00  1.044750159E+01  5.000000000E-01  0.00000E+00  9.000E+00
      21     1     1     2   512   511  1.702141948E-01 -6.052248938E+00 -1.863760145E+02  1.864743346E+02  2.697398305E-06  0.00000E+00  9.000E+00
</event>
<event>
      5  10001  3.52971E+09  5.54369E+00 -1.00000E+00  2.30936E-01
       2    -1     0     0   513     0  0.000000000E+00  0.000000000E+00  1.989526525E+02  1.989526525E+02  0.000000000E+00  0.00000E+00  9.000E+00
      21    -1     0     0   515   513  0.000000000E+00  0.000000000E+00 -2.103432401E+01  2.103432401E+01  0.000000000E+00  0.00000E+00  9.000E+00
      21     1     1     2   511   514  7.340786517E+00  6.823117032E+00  9.321970081E+01  9.375689143E+01  1.907348633E-06  0.00000E+00  9.000E+00
       2     1     1     2   514     0 -8.426166702E+00 -1.225945393E+01  1.045580194E+02  1.056114710E+02  3.300000131E-01  0.00000E+00  9.000E+00
      21     1     1     2   515   511  1.085380185E+00  5.436336900E+00 -1.985939167E+01  2.061861408E+01  8.259061849E-07  0.00000E+00  9.000E+00
</event>
<event>
      5  10001  3.52971E+09  1.12773E+01 -1.00000E+00  1.89905E-01
      21    -1     0     0   514   511  0.000000000E+00  0.000000000E+00  4.134116984E+00  4.134116984E+00  0.000000000E+00  0.00000E+00  9.000E+00
       1    -1     0     0   511     0  0.000000000E+00  0.000000000E+00 -1.581540234E+02  1.581540234E+02  0.000000000E+00  0.00000E+00  9.000E+00
      21     1     1     2   514   513 -3.842549461E+00 -6.238177412E+00 -7.323130080E+00  1.035897089E+01  8.429369702E-08  0.00000E+00  9.000E+00
       1     1     1     2   512     0 -9.077524031E-01  1.857068610E+01 -1.260545677E+02  1.274188265E+02  3.300000131E-01  0.00000E+00  9.000E+00
      21     1     1     2   513   512  4.750301864E+00 -1.233250869E+01 -2.064220863E+01  2.451034303E+01  3.371747881E-07  0.00000E+00  9.000E+00
</event>
<event>
      5  10001  3.52971E+09  1.58817E+01 -1.00000E+00  1.75075E-01
      21    -1     0     0   515   512  0.000000000E+00  0.000000000E+00  7.082661302E+01  7.082661302E+01  0.000000000E+00  0.00000E+00  9.000E+00
      21    -1     0     0   511   516  0.000000000E+00  0.000000000E+00 -1.870232540E+01  1.870232540E+01  0.000000000E+00  0.00000E+00  9.000E+00
      21     1     1     2   515   516  1.263512752E+01 -2.277467747E-02  6.450610029E+01  6.573190961E+01  0.000000000E+00  0.00000E+00  9.000E+00
      21     1     1     2   514   512 -1.863851682E+00  6.359702182E+00 -8.361239317E+00  1.066911795E+01  2.064765462E-07  0.00000E+00  9.000E+00
      21     1     1     2   511   514 -1.077127584E+01 -6.336927505E+00 -4.020573355E+00  1.312791086E+01  3.526258339E-07  0.00000E+00  9.000E+00
</event>
<event>
      5  10001  3.52971E+09  7.65818E+00 -1.00000E+00  2.10176E-01
      21    -1     0     0   513   512  0.000000000E+00  0.000000000E+00  8.281301885E+00  8.281301885E+00  0.000000000E+00  0.00000E+00  9.000E+00
      21    -1     0     0   511   513  0.000000000E+00  0.000000000E+00 -6.095222597E+01  6.095222597E+01  0.000000000E+00  0.00000E+00  9.000E+00
      21     1     1     2   514   512  1.289335391E+01 -1.422691951E+01 -1.285951732E+01  2.310867801E+01  5.591411304E-07  0.00000E+00  9.000E+00
      21     1     1     2   515   514 -6.981874189E+00  1.426702167E+01 -3.523211582E+01  3.864707569E+01  4.768371582E-07  0.00000E+00  9.000E+00
      21     1     1     2   511   515 -5.911479718E+00 -4.010215930E-02 -4.579290947E+00  7.477774149E+00  2.149076030E-07  0.00000E+00  9.000E+00
</event>
<event>
      5  10001  3.52971E+09  3.72442E+01 -1.00000E+00  1.46787E-01
      21    -1     0     0   516   514  0.000000000E+00  0.000000000E+00  5.919943424E+01  5.919943424E+01  0.000000000E+00  0.00000E+00  9.000E+00
      21    -1     0     0   511   516  0.000000000E+00  0.000000000E+00 -4.682506269E+01  4.682506269E+01  0.000000000E+00  0.00000E+00  9.000E+00
      21     1     1     2   515   514  4.021286855E+00  1.374993548E+01  5.587059108E+01  5.767802372E+01  0.000000000E+00  0.00000E+00  9.000E+00
      21     1     1     2   511   512 -6.429416610E-01 -6.639409745E+00 -3.404247062E+00  7.488927413E+00  1.837138534E-07  0.00000E+00  9.000E+00
      21     1     1     2   512   515 -3.378345194E+00 -7.110525733E+00 -4.009197246E+01  4.085754579E+01  1.261592536E-06  0.00000E+00  9.000E+00
</event>
<event>
      5  10001  3.52971E+09  5.71993E+00 -1.00000E+00  2.28739E-01
      21    -1     0     0   513   511  0.000000000E+00  0.000000000E+00  9.214495354E+01  9.214495354E+01  0.000000000E+00  0.00000E+00  9.000E+00
      21    -1     0     0   514   515  0.000000000E+00  0.000000000E+00 -1.342622788E+01  1.342622788E+01  0.000000000E+00  0.00000E+00  9.000E+00
      21     1     1     2   513   515 -7.408608456E+00 -7.284422102E+00 -1.058329828E+01  1.483093008E+01  3.576278687E-07  0.00000E+00  9.000E+00
      21     1     1     2   514   516  2.110502343E+00  7.356157449E+00  7.654488781E+01  7.692650468E+01  9.536743164E-07  0.00000E+00  9.000E+00
      21     1     1     2   516   511  5.298106113E+00 -7.173534703E-02  1.275713613E+01  1.381374665E+01  2.384185791E-07  0.00000E+00  9.000E+00
</event>
<event>
      5  10001  3.52971E+09  8.02737E+00 -1.00000E+00  2.07472E-01
      21    -1     0     0   512   514  0.000000000E+00  0.000000000E+00  2.861095503E+01  2.861095503E+01  0.000000000E+00  0.00000E+00  9.000E+00
      21    -1     0     0   517   511  0.000000000E+00  0.000000000E+00 -4.612120762E+01  4.612120762E+01  0.000000000E+00  0.00000E+00  9.000E+00
      21     1     1     2   512   511 -4.210361977E+00  1.394301826E+01 -3.960158206E+01  4.219502587E+01  6.743495762E-07  0.00000E+00  9.000E+00
      21     1     1     2   513   514  6.096843264E-01 -1.767066668E+01  2.059314351E+01  2.714225000E+01  7.152557373E-07  0.00000E+00  9.000E+00
      21     1     1     2   517   513  3.600677650E+00  3.727648417E+00  1.498185962E+00  5.394886787E+00  9.185692672E-08  0.00000E+00  9.000E+00
</event>
<event>
      5  10001  3.52971E+09  1.03036E+01 -1.00000E+00  1.94263E-01
      21    -1     0     0   516   513  0.000000000E+00  0.000000000E+00  2.168407707E+01  2.168407707E+01  0.000000000E+00  0.00000E+00  9.000E+00
      -3    -1     0     0     0   515  0.000000000E+00  0.000000000E+00 -9.123523995E+00  9.123523995E+00  0.000000000E+00  0.00000E+00  9.000E+00
      -3     1     1     2     0   511 -2.017678825E+00 -7.229703680E-01 -3.570298951E+00  4.194132639E+00  5.000000000E-01  0.00000E+00  9.000E+00
      21     1     1     2   516   515  8.401594859E+00  7.266085720E+00  1.264253482E+01  1.682903695E+01  2.384185791E-07  0.00000E+00  9.000E+00
      21     1     1     2   511   513 -6.383916034E+00 -6.543115352E+00  3.488317206E+00  9.784431479E+00  1.976862425E-07  0.00000E+00  9.000E+00
</event>
<event>
      5  10001  3.52971E+09  5.48228E+00 -1.00000E+00  2.31729E-01
      21    -1     0     0   515   511  0.000000000E+00  0.000000000E+00  1.829717394E+03  1.829717394E+03  0.000000000E+00  0.00000E+00  9.000E+00
      21    -1     0     0   513   512  0.000000000E+00  0.000000000E+00 -2.085287064E-01  2.085287064E-01  0.000000000E+00  0.00000E+00  9.000E+00
      21     1     1     2   513   514  7.672990250E+00 -7.517503602E-02  9.574838382E+01  9.605536651E+01  1.907348633E-06  0.00000E+00  9.000E+00
      21     1     1     2   514   511 -1.281222357E+01 -1.833676564E+00  9.126033975E+02  9.126951718E+02  1.078959322E-05  0.00000E+00  9.000E+00
      21     1     1     2   515   512  5.139233323E+00  1.908851600E+00  8.211570841E+02  8.211753846E+02  1.525878906E-05  0.00000E+00  9.000E+00
</event>
<event>
      5  10001  3.52971E+09  9.33692E+00 -1.00000E+00  1.99261E-01
      21    -1     0     0   513   511  0.000000000E+00  0.000000000E+00  5.629643713E+00  5.629643713E+00  0.000000000E+00  0.00000E+00  9.000E+00
       2    -1     0     0   511     0  0.000000000E+00  0.000000000E+00 -5.013232366E+02  5.013232366E+02  0.000000000E+00  0.00000E+00  9.000E+00
      21     1     1     2   514   516 -5.849145457E+00  7.258499008E+00 -5.036962945E-02  9.322062407E+00  1.133423782E-06  0.00000E+00  9.000E+00
       2     1     1     2   516     0  1.388880051E+01 -2.510835579E+00 -4.719955478E+02  4.722066382E+02  3.300000131E-01  0.00000E+00  9.000E+00
      21     1     1     2   513   514 -8.039655054E+00 -4.747663429E+00 -2.364767546E+01  2.542417975E+01  4.768371582E-07  0.00000E+00  9.000E+00
</event>
<event>
      5  10001  3.52971E+09  9.90966E+00 -1.00000E+00  1.96209E-01
      21    -1     0     0   512   516  0.000000000E+00  0.000000000E+00  6.612031234E+01  6.612031234E+01  0.000000000E+00  0.00000E+00  9.000E+00
      21    -1     0     0   511   512  0.000000000E+00  0.000000000E+00 -2.151808472E+01  2.151808472E+01  0.000000000E+00  0.00000E+00  9.000E+00
      21     1     1     2   511   514  1.506593376E+01  3.491968056E+00 -1.645813274E+01  2.258420542E+01  5.840038640E-07  0.00000E+00  9.000E+00
      21     1     1     2   514   515 -7.681063369E+00  3.115980029E+00  4.772753064E+01  4.844197815E+01  1.168007728E-06  0.00000E+00  9.000E+00
      21     1     1     2   515   516 -7.384870395E+00 -6.607948085E+00  1.333282973E+01  1.661221349E+01  3.371747881E-07  0.00000E+00  9.000E+00
</event>
<event>
      5  10001  3.52971E+09  6.22878E+00 -1.00000E+00  2.22971E-01
       2    -1     0     0   512     0  0.000000000E+00  0.000000000E+00  4.470765655E+02  4.470765655E+02  0.000000000E+00  0.00000E+00  9.000E+00
      21    -1     0     0   514   512  0.000000000E+00  0.000000000E+00 -1.168769890E+00  1.168769890E+00  0.000000000E+00  0.00000E+00  9.000E+00
      21     1     1     2   514   511 -4.528755200E+00  7.740759252E-01  2.718017753E+01  2.756575534E+01  5.840038640E-07  0.00000E+00  9.000E+00
       2     1     1     2   513     0  1.679271497E+01 -1.166645236E+00  3.715866622E+02  3.719678921E+02  3.300000131E-01  0.00000E+00  9.000E+00
      21     1     1     2   511   513 -1.226395977E+01  3.925693106E-01  4.714095590E+01  4.871168796E+01  0.000000000E+00  0.00000E+00  9.000E+00
</event>
<event>
      5  10001  3.52971E+09  1.02768E+01 -1.00000E+00  1.94392E-01
      21    -1     0     0   515   513  0.000000000E+00  0.000000000E+00  9.528473240E+01  9.528473240E+01  0.000000000E+00  0.00000E+00  9.000E+00
      21    -1     0     0   512   516  0.000000000E+00  0.000000000E+00 -7.933151736E+01  7.933151736E+01  0.000000000E+00  0.00000E+00  9.000E+00
      21     1     1     2   515   516 -9.698739027E+00  1.633020413E+01  8.898665937E+01  9.099102511E+01  1.348699152E-06  0.00000E+00  9.000E+00
      21     1     1     2   511   513  3.234446893E-01 -2.053926706E+01 -6.993808089E+01  7.289239513E+01  1.348699152E-06  0.00000E+00  9.000E+00
      21     1     1     2   512   511  9.375294338E+00  4.209062936E+00 -3.095363439E+00  1.073282952E+01  1.397852826E-07  0.00000E+00  9.000E+00
</event>
<event>
      5  10001  3.52971E+09  9.25601E+00 -1.00000E+00  1.99716E-01
      21    -1     0     0   514   511  0.000000000E+00  0.000000000E+00  4.178424855E+01  4.178424855E+01  0.000000000E+00  0.00000E+00  9.000E+00
      21    -1     0     0   512   514  0.000000000E+00  0.000000000E+00 -6.629844087E+00  6.629844087E+00  0.000000000E+00  0.00000E+00  9.000E+00
      21     1     1     2   512   517 -1.418878917E+01 -4.180099425E+00  2.376701119E+01  2.799403134E+01  3.371747881E-07  0.00000E+00  9.000E+00
      21     1     1     2   513   511  5.059408403E+00  5.747611746E+00  5.759090281E+00  9.581219914E+00  8.429369702E-08  0.00000E+00  9.000E+00
      21     1     1     2   517   513  9.129380769E+00 -1.567512321E+00  5.628302992E+00  1.083884139E+01  1.192092896E-07  0.00000E+00  9.000E+00
</event>
<event>
      5  10001  3.52971E+09  4.73778E+00 -1.00000E+00  2.47263E-01
      21    -1     0     0   515   511  0.000000000E+00  0.000000000E+00  2.815472252E+00  2.815472252E+00  0.000000000E+00  0.00000E+00  9.000E+00
      21    -1     0     0   516   515  0.000000000E+00  0.000000000E+00 -4.303542212E+01  4.303542212E+01  0.000000000E+00  0.00000E+00  9.000E+00
      21     1     1     2   513   511 -7.100750404E+00 -8.064250152E+00 -1.570830940E+01  1.903165182E+01  2.920019320E-07  0.00000E+00  9.000E+00
      21     1     1     2   516   512  6.443459386E-01  8.467852302E-01 -3.958521128E+00  4.099038477E+00  5.960464478E-08  0.00000E+00  9.000E+00
      21     1     1     2   512   513  6.456404466E+00  7.217464922E+00 -2.055311934E+01  2.272020407E+01  2.384185791E-07  0.00000E+00  9.000E+00
</event>
<event>
      5  10001  3.52971E+09  1.22204E+01 -1.00000E+00  1.86197E-01
      21    -1     0     0   513   514  0.000000000E+00  0.000000000E+00  4.806575084E+01  4.806575084E+01  0.000000000E+00  0.00000E+00  9.000E+00
      -2    -1     0     0     0   513  0.000000000E+00  0.000000000E+00 -8.984755099E+00  8.984755099E+00  0.000000000E+00  0.00000E+00  9.000E+00
      -2     1     1     2     0   512 -6.412807244E+00 -6.826326490E+00 -4.441214441E+00  1.037092647E+01  3.300000131E-01  0.00000E+00  9.000E+00
      21     1     1     2   511   514  2.692601870E+00  1.057251148E+01  2.251452996E+01  2.501863632E+01  4.129530925E-07  0.00000E+00  9.000E+00
      21     1     1     2   512   511  3.720205374E+00 -3.746184992E+00  2.100768021E+01  2.166094315E+01  0.000000000E+00  0.00000E+00  9.000E+00
</event>
<event>
      5  10001  3.52971E+09  2.73949E+00 -1.00000E+00  3.09365E-01
      21    -1     0     0   513   515  0.000000000E+00  0.000000000E+00  1.347019139E+03  1.347019139E+03  0.000000000E+00  0.00000E+00  9.000E+00
      21    -1     0     0   514   511  0.000000000E+00  0.000000000E+00 -1.921239173E+00  1.921239173E+00  0.000000000E+00  0.00000E+00  9.000E+00
      -1     1     1     2     0   511 -6.443537219E+00 -9.203154611E+00  2.526621974E+02  2.529120640E+02  3.300000131E-01  0.00000E+00  9.000E+00
      21     1     1     2   514   515  4.833106102E+00  1.141912096E+01  1.962543365E+01  2.321449729E+01  7.539457465E-07  0.00000E+00  9.000E+00
       1     1     1     2   513     0  1.610431117E+00 -2.215966353E+00  1.072810269E+03  1.072813817E+03  3.300000131E-01  0.00000E+00  9.000E+00
</event>
<event>
      5  10001  3.52971E+09  1.03826E+01 -1.00000E+00  1.93886E-01
      -1    -1     0     0     0   512  0.000000000E+00  0.000000000E+00  6.571480449E+00  6.571480449E+00  0.000000000E+00  0.00000E+00  9.000E+00
      21    -1     0     0   513   515  0.000000000E+00  0.000000000E+00 -1.916854015E+02  1.916854015E+02  0.000000000E+00  0.00000E+00  9.000E+00
      -1     1     1     2     0   511 -3.960916692E+00  8.712195520E+00 -1.761849299E+00  9.736746109E+00  3.300000131E-01  0.00000E+00  9.000E+00
      21     1     1     2   513   512  1.402457015E+01 -7.708973323E+00 -1.740344155E+02  1.747686889E+02  3.303624740E-06  0.00000E+00  9.000E+00
      21     1     1     2   511   515 -1.006365346E+01 -1.003222197E+00 -9.317656297E+00  1.375144700E+01  3.371747881E-07  0.00000E+00  9.000E+00
</event>
<event>
      5  10001  3.52971E+09  5.48690E+00 -1.00000E+00  2.31669E-01
      21    -1     0     0   511   512  0.000000000E+00  0.000000000E+00  1.621812843E+02  1.621812843E+02  0.000000000E+00  0.00000E+00  9.000E+00
      21    -1     0     0   514   515  0.000000000E+00  0.000000000E+00 -9.017123567E+00  9.017123567E+00  0.000000000E+00  0.00000E+00  9.000E+00
      21     1     1     2   511   515  1.192038676E+01  1.144796025E+01  7.332409823E+00  1.808080884E+01  1.884864366E-07  0.00000E+00  9.000E+00
       5     1     1     2   514     0 -1.338540588E+01 -6.233326647E+00  1.346061161E+01  2.054875953E+01  4.800000191E+00  0.00000E+00  9.000E+00
      -5     1     1     2     0   512  1.465019114E+00 -5.214633601E+00  1.323711393E+02  1.325688395E+02  4.800000191E+00  0.00000E+00  9.000E+00
</event>
<event>
      5  10001  3.52971E+09  1.40170E+01 -1.00000E+00  1.80199E-01
      21    -1     0     0   513   514  0.000000000E+00  0.000000000E+00  9.147990570E+01  9.147990570E+01  0.000000000E+00  0.00000E+00  9.000E+00
      21    -1     0     0   516   512  0.000000000E+00  0.000000000E+00 -5.402084008E+00  5.402084008E+00  0.000000000E+00  0.00000E+00  9.000E+00
      21     1     1     2   513   512  1.162829242E+01 -2.296336250E+00  5.747914478E+01  5.868852042E+01  9.536743164E-07  0.00000E+00  9.000E+00
      21     1     1     2   511   514 -7.561074249E+00  2.564485294E+00 -1.238099925E+00  8.079561873E+00  1.144579909E-07  0.00000E+00  9.000E+00
      21     1     1     2   516   511 -4.067218173E+00 -2.681490440E-01  2.983677684E+01  3.011390742E+01  4.768371582E-07  0.00000E+00  9.000E+00
</event>
<event>
      5  10001  3.52971E+09  6.53601E+00 -1.00000E+00  2.19845E-01
      21    -1     0     0   515   511  0.000000000E+00  0.000000000E+00  3.205736232E+00  3.205736232E+00  0.000000000E+00  0.00000E+00  9.000E+00
      21    -1     0     0   511   513  0.000000000E+00  0.000000000E+00 -3.014496230E+02  3.014496230E+02  0.000000000E+00  0.00000E+00  9.000E+00
      -4     1     1     2     0   513  3.996397183E+00 -9.545332200E+00 -2.755850225E+02  2.757833192E+02  1.500000000E+00  0.00000E+00  9.000E+00
      21     1     1     2   515   512 -3.322889969E+00  3.998004457E+00  2.883808531E-01  5.206611269E+00  2.981628895E-07  0.00000E+00  9.000E+00
       4     1     1     2   512     0 -6.735072140E-01  5.547327743E+00 -2.294724520E+01  2.366542878E+01  1.500000000E+00  0.00000E+00  9.000E+00
</event>
<event>
      5  10001  3.52971E+09  3.05457E+00 -1.00000E+00  2.94502E-01
      21    -1     0     0   514   513  0.000000000E+00  0.000000000E+00  1.040123894E+03  1.040123894E+03  0.000000000E+00  0.00000E+00  9.000E+00
      21    -1     0     0   511   516  0.000000000E+00  0.000000000E+00 -3.393899166E+00  3.393899166E+00  0.000000000E+00  0.00000E+00  9.000E+00
      21     1     1     2   514   516 -5.053939891E+00 -1.076815637E+01  7.293246999E+00  1.395302662E+01  1.052827938E-06  0.00000E+00  9.000E+00
      21     1     1     2   515   513  2.156434457E+00  1.080778996E+01  9.649618879E+02  9.650248202E+02  1.078959322E-05  0.00000E+00  9.000E+00
      21     1     1     2   511   515  2.897505434E+00 -3.963358847E-02  6.447485966E+01  6.453994605E+01  9.536743164E-07  0.00000E+00  9.000E+00
</event>
<event>
      5  10001  3.52971E+09  5.12448E+00 -1.00000E+00  2.36658E-01
      21    -1     0     0   513   515  0.000000000E+00  0.000000000E+00  3.112356758E+01  3.112356758E+01  0.000000000E+00  0.00000E+00  9.000E+00
      21    -1     0     0   511   512  0.000000000E+00  0.000000000E+00 -1.737258926E+01  1.737258926E+01  0.000000000E+00  0.00000E+00  9.000E+00
      21     1     1     2   511   517  5.362293495E-01  1.281056819E+01 -1.624888126E-01  1.282281568E+01  2.156248098E-07  0.00000E+00  9.000E+00
      21     1     1     2   517   515  3.841425279E+00 -1.014666187E+01 -7.800680172E+00  1.336270581E+01  2.795705652E-07  0.00000E+00  9.000E+00
      21     1     1     2   513   512 -4.377654628E+00 -2.663906321E+00  2.171414730E+01  2.231063536E+01  0.000000000E+00  0.00000E+00  9.000E+00
</event>
<event>
      5  10001  3.52971E+09  1.37577E+01 -1.00000E+00  1.80991E-01
      21    -1     0     0   512   511  0.000000000E+00  0.000000000E+00  1.380658337E+02  1.380658337E+02  0.000000000E+00  0.00000E+00  9.000E+00
      -4    -1     0     0     0   514  0.000000000E+00  0.000000000E+00 -3.652992690E+01  3.652992690E+01  0.000000000E+00  0.00000E+00  9.000E+00
      -4     1     1     2     0   513 -3.286573703E+00 -7.371243274E+00 -1.963975611E+01  2.128630579E+01  1.500000000E+00  0.00000E+00  9.000E+00
      21     1     1     2   513   511  4.192722348E-01  2.082408544E+01  1.333341175E+02  1.349511216E+02  1.907348633E-06  0.00000E+00  9.000E+00
      21     1     1     2   512   514  2.867301469E+00 -1.345284217E+01 -1.215845460E+01  1.835833321E+01  0.000000000E+00  0.00000E+00  9.000E+00
</event>
<event>
      5  10001  3.52971E+09  4.47280E+00 -1.00000E+00  2.52530E-01
       1    -1     0     0   514     0  0.000000000E+00  0.000000000E+00  1.638474733E+03  1.638474733E+03  0.000000000E+00  0.00000E+00  9.000E+00
      -4    -1     0     0     0   514  0.000000000E+00  0.000000000E+00 -3.724513111E+00  3.724513111E+00  0.000000000E+00  0.00000E+00  9.000E+00
      -4     1     1     2     0   511  1.014654052E+01  1.702267885E+00  4.229991806E+00  1.122465283E+01  1.500000000E+00  0.00000E+00  9.000E+00
      21     1     1     2   511   515 -1.444175747E+01 -4.560998017E-01  2.332143318E+02  2.336615007E+02  2.697398305E-06  0.00000E+00  9.000E+00
       1     1     1     2   515     0  4.295216957E+00 -1.246168084E+00  1.397305896E+03  1.397313092E+03  3.300000131E-01  0.00000E+00  9.000E+00
</event>
<event>
      5  10001  3.52971E+09  7.35649E+00 -1.00000E+00  2.12544E-01
      21    -1     0     0   511   513  0.000000000E+00  0.000000000E+00  2.357910335E+02  2.357910335E+02  0.000000000E+00  0.00000E+00  9.000E+00
       2    -1     0     0   513     0  0.000000000E+00  0.000000000E+00 -1.114520932E+02  1.114520932E+02  0.000000000E+00  0.00000E+00  9.000E+00
      21     1     1     2   514   512 -1.986745600E-01 -7.644278119E+00  2.237402509E+02  2.238708877E+02  3.814697266E-06  0.00000E+00  9.000E+00
       2     1     1     2   512     0 -6.496718104E+00  9.002156585E+00 -1.101106653E+02  1.106693891E+02  3.300000131E-01  0.00000E+00  9.000E+00
      21     1     1     2   511   514  6.695392664E+00 -1.357878466E+00  1.070935466E+01  1.270284984E+01  2.920019320E-07  0.00000E+00  9.000E+00
</event>
<event>
      5  10001  3.52971E+09  9.09640E+00 -1.00000E+00  2.00630E-01
      21    -1     0     0   514   513  0.000000000E+00  0.000000000E+00  3.535080398E+00  3.535080398E+00  0.000000000E+00  0.00000E+00  9.000E+00
      -3    -1     0     0     0   512  0.000000000E+00  0.000000000E+00 -2.037923357E+02  2.037923357E+02  0.000000000E+00  0.00000E+00  9.000E+00
      -3     1     1     2     0   511 -1.172140660E+01  1.317625252E+01 -4.473900748E+01  4.809193065E+01  5.000000000E-01  0.00000E+00  9.000E+00
      21     1     1     2   511   513  6.271580046E+00 -5.894532819E+00 -9.065050159E+00  1.250013471E+01  4.129530925E-07  0.00000E+00  9.000E+00
      21     1     1     2   514   512  5.449826550E+00 -7.281719698E+00 -1.464531977E+02  1.467353508E+02  1.907348633E-06  0.00000E+00  9.000E+00
</event>
<event>
      5  10001  3.52971E+09  1.13029E+01 -1.00000E+00  1.89799E-01
      21    -1     0     0   515   513  0.000000000E+00  0.000000000E+00  4.726653494E+02  4.726653494E+02  0.000000000E+00  0.00000E+00  9.000E+00
      21    -1     0     0   516   515  0.000000000E+00  0.000000000E+00 -1.262361967E+01  1.262361967E+01  0.000000000E+00  0.00000E+00  9.000E+00
      21     1     1     2   512   513 -9.629482991E+00 -1.066603571E+01  4.626306906E+02  4.628538076E+02  7.629394531E-06  0.00000E+00  9.000E+00
      21     1     1     2   516   511  4.221144800E+00  2.530903132E-01 -8.352802696E+00  9.362234296E+00  7.633118912E-07  0.00000E+00  9.000E+00
      21     1     1     2   511   512  5.408338191E+00  1.041294539E+01  5.763841811E+00  1.307292722E+01  3.039252468E-07  0.00000E+00  9.000E+00
</event>
<event>
      5  10001  3.52971E+09  5.63774E+00 -1.00000E+00  2.29749E-01
      21    -1     0     0   514   511  0.000000000E+00  0.000000000E+00  1.958372603E+01  1.958372603E+01  0.000000000E+00  0.00000E+00  9.000E+00
      21    -1     0     0   517   514  0.000000000E+00  0.000000000E+00 -1.780456671E+01  1.780456671E+01  0.000000000E+00  0.00000E+00  9.000E+00
      21     1     1     2   516   511 -1.346091849E+01 -2.502592054E+00  1.265101054E+01  1.864154932E+01  1.685873940E-07  0.00000E+00  9.000E+00
      21     1     1     2   513   516  6.415984183E+00 -1.759176237E-01 -8.869711271E+00  1.094840528E+01  0.000000000E+00  0.00000E+00  9.000E+00
      21     1     1     2   517   513  7.044934302E+00  2.678509678E+00 -2.002139947E+00  7.798338143E+00  1.115100797E-07  0.00000E+00  9.000E+00
</event>
<event>
      5  10001  3.52971E+09  4.44298E+00 -1.00000E+00  2.53158E-01
      21    -1     0     0   512   514  0.000000000E+00  0.000000000E+00  2.667371415E+00  2.667371415E+00  0.000000000E+00  0.00000E+00  9.000E+00
       3    -1     0     0   511     0  0.000000000E+00  0.000000000E+00 -1.394197438E+02  1.394197438E+02  0.000000000E+00  0.00000E+00  9.000E+00
      21     1     1     2   511   513  8.689598297E+00 -1.150362448E+01 -3.369102616E+01  3.664597848E+01  9.536743164E-07  0.00000E+00  9.000E+00
       3     1     1     2   512     0 -4.272220298E+00  1.103573205E+01 -9.797410266E+01  9.868745635E+01  5.000000000E-01  0.00000E+00  9.000E+00
      21     1     1     2   513   514 -4.417377998E+00  4.678924266E-01 -5.087243545E+00  6.753680374E+00  1.032382731E-07  0.00000E+00  9.000E+00
</event>
<event>
      5  10001  3.52971E+09  7.77081E+00 -1.00000E+00  2.09330E-01
      21    -1     0     0   515   513  0.000000000E+00  0.000000000E+00  5.430984113E+02  5.430984113E+02  0.000000000E+00  0.00000E+00  9.000E+00
      21    -1     0     0   514   515  0.000000000E+00  0.000000000E+00 -4.695698273E+01  4.695698273E+01  0.000000000E+00  0.00000E+00  9.000E+00
      21     1     1     2   514   511  2.807312385E+00  9.822707849E+00 -4.628619782E+01  4.740019727E+01  2.523185073E-06  0.00000E+00  9.000E+00
      21     1     1     2   511   512  1.787369653E+00 -2.972724988E+00  3.819410205E+02  3.819567711E+02  0.000000000E+00  0.00000E+00  9.000E+00
      21     1     1     2   512   513 -4.594682038E+00 -6.849982861E+00  1.604866058E+02  1.606984257E+02  1.907348633E-06  0.00000E+00  9.000E+00
</event>
<event>
      5  10001  3.52971E+09  1.25264E+01 -1.00000E+00  1.85085E-01
       1    -1     0     0   512     0  0.000000000E+00  0.000000000E+00  4.935137045E+02  4.935137045E+02  0.000000000E+00  0.00000E+00  9.000E+00
      -4    -1     0     0     0   512  0.000000000E+00  0.000000000E+00 -1.163708902E+00  1.163708902E+00  0.000000000E+00  0.00000E+00  9.000E+00
      -4     1     1     2     0   513  1.342548824E+01 -1.072694092E+01  8.923522715E+01  9.088722000E+01  1.500000000E+00  0.00000E+00  9.000E+00
       1     1     1     2   511     0 -3.300821692E+00  9.287365437E+00  3.016944148E+02  3.018555605E+02  3.300000131E-01  0.00000E+00  9.000E+00
      21     1     1     2   513   511 -1.012466655E+01  1.439575483E+00  1.014203536E+02  1.019346328E+02  1.348699152E-06  0.00000E+00  9.000E+00
</event>
<event>
      5  10001  3.52971E+09  4.75756E+00 -1.00000E+00  2.46891E-01
      21    -1     0     0   514   511  0.000000000E+00  0.000000000E+00  3.164303911E+01  3.164303911E+01  0.000000000E+00  0.00000E+00  9.000E+00
      21    -1     0     0   513   515  0.000000000E+00  0.000000000E+00 -3.972004089E+00  3.972004089E+00  0.000000000E+00  0.00000E+00  9.000E+00
      21     1     1     2   514   515  9.965859002E+00  6.302138863E-01  1.852078779E+01  2.104127124E+01  4.129530925E-07  0.00000E+00  9.000E+00
      21     1     1     2   512   511 -5.719353395E+00 -2.999862160E+00  5.665624229E+00  8.591244039E+00  1.460009660E-07  0.00000E+00  9.000E+00
      21     1     1     2   513   512 -4.246505607E+00  2.369648274E+00  3.484623002E+00  5.982527917E+00  7.300048300E-08  0.00000E+00  9.000E+00
</event>
<event>
      5  10001  3.52971E+09  5.27338E+00 -1.00000E+00  2.34540E-01
       4    -1     0     0   514     0  0.000000000E+00  0.000000000E+00  7.257940335E-01  7.257940335E-01  0.000000000E+00  0.00000E+00  9.000E+00
      -1    -1     0     0     0   515  0.000000000E+00  0.000000000E+00 -1.448065453E+03  1.448065453E+03  0.000000000E+00  0.00000E+00  9.000E+00
      -1     1     1     2     0   511 -1.095695163E+00 -1.221457275E+01 -9.163801181E+02  9.164622338E+02  3.300000131E-01  0.00000E+00  9.000E+00
       4     1     1     2   511     0 -3.873313986E+00  1.045835643E+01 -4.655119000E+01  4.789199380E+01  1.500000000E+00  0.00000E+00  9.000E+00
      21     1     1     2   514   515  4.969009149E+00  1.756216321E+00 -4.844083512E+02  4.844370197E+02  7.629394531E-06  0.00000E+00  9.000E+00
</event>
<event>
      5  10001  3.52971E+09  1.17186E+01 -1.00000E+00  1.88114E-01
       2    -1     0     0   511     0  0.000000000E+00  0.000000000E+00  1.932127355E+02  1.932127355E+02  0.000000000E+00  0.00000E+00  9.000E+00
      -2    -1     0     0     0   512  0.000000000E+00  0.000000000E+00 -1.771472080E+00  1.771472080E+00  0.000000000E+00  0.00000E+00  9.000E+00
      21     1     1     2   511   513 -1.369773202E+01  4.965915794E+00  8.106045560E+01  8.235949031E+01  0.000000000E+00  0.00000E+00  9.000E+00
       2     1     1     2   513     0  1.420498087E+01 -1.229584120E+00  1.054428713E+02  1.064030139E+02  3.300000131E-01  0.00000E+00  9.000E+00
      -2     1     1     2     0   512 -5.072488446E-01 -3.736331674E+00  4.937936527E+00  6.221703378E+00  3.300000131E-01  0.00000E+00  9.000E+00
</event>
<event>
      5  10001  3.52971E+09  1.03555E+01 -1.00000E+00  1.94015E-01
      21    -1     0     0   514   512  0.000000000E+00  0.000000000E+00  9.984546694E+01  9.984546694E+01  0.000000000E+00  0.00000E+00  9.000E+00
      21    -1     0     0   516   515  0.000000000E+00  0.000000000E+00 -3.925242464E+01  3.925242464E+01  0.000000000E+00  0.00000E+00  9.000E+00
      21     1     1     2   514   515 -6.798073028E-01  1.180288447E+01  9.585043634E+01  9.657679000E+01  1.348699152E-06  0.00000E+00  9.000E+00
      21     1     1     2   516   511 -7.435589170E+00 -9.756617106E+00 -3.054505952E+01  3.291626080E+01  4.768371582E-07  0.00000E+00  9.000E+00
      21     1     1     2   511   512  8.115396473E+00 -2.046267363E+00 -4.712334519E+00  9.604840793E+00  0.000000000E+00  0.00000E+00  9.000E+00
</event>
<event>
      5  10001  3.52971E+09  8.43923E+00 -1.00000E+00  2.04676E-01
      21    -1     0     0   511   512  0.000000000E+00  0.000000000E+00  3.209532561E-01  3.209532561E-01  0.000000000E+00  0.00000E+00  9.000E+00
       2    -1     0     0   513     0  0.000000000E+00  0.000000000E+00 -3.712499854E+02  3.712499854E+02  0.000000000E+00  0.00000E+00  9.000E+00
      21     1     1     2   513   512  5.849136252E-01 -7.459906574E+00 -1.243962430E+02  1.246210961E+02  1.348699152E-06  0.00000E+00  9.000E+00
      21     1     1     2   511   514  9.183598974E-01  8.804335650E+00 -9.699722009E+01  9.740031014E+01  1.348699152E-06  0.00000E+00  9.000E+00
       2     1     1     2   514     0 -1.503273523E+00 -1.344429076E+00 -1.495355691E+02  1.495495324E+02  3.300000131E-01  0.00000E+00  9.000E+00
</event>
<event>
      5  10001  3.52971E+09  3.89705E+00 -1.00000E+00  2.66159E-01
      21    -1     0     0   515   513  0.000000000E+00  0.000000000E+00  1.797948942E+01  1.797948942E+01  0.000000000E+00  0.00000E+00  9.000E+00
      21    -1     0     0   512   516  0.000000000E+00  0.000000000E+00 -8.927740309E+00  8.927740309E+00  0.000000000E+00  0.00000E+00  9.000E+00
      21     1     1     2   515   516  1.875960705E+00 -1.077930323E+01  6.656675774E+00  1.280718310E+01  1.685873940E-07  0.00000E+00  9.000E+00
      21     1     1     2   511   513 -4.281491362E+00  1.055560049E+01  1.360104351E+00  1.147178076E+01  7.742870484E-08  0.00000E+00  9.000E+00
      21     1     1     2   512   511  2.405530656E+00  2.237027365E-01  1.034968985E+00  2.628265864E+00  4.942156062E-08  0.00000E+00  9.000E+00
</event>
<event>
      5  10001  3.52971E+09  2.29376E+01 -1.00000E+00  1.61600E-01
      21    -1     0     0   514   512  0.000000000E+00  0.000000000E+00  9.048711998E+01  9.048711998E+01  0.000000000E+00  0.00000E+00  9.000E+00
      -1    -1     0     0     0   514  0.000000000E+00  0.000000000E+00 -3.815081043E+01  3.815081043E+01  0.000000000E+00  0.00000E+00  9.000E+00
      -1     1     1     2     0   515  3.438465930E+00 -1.850386107E+01 -2.778829616E+01  3.356358482E+01  3.300000131E-01  0.00000E+00  9.000E+00
      21     1     1     2   513   512 -1.688074440E+01  9.642245856E+00  7.600972268E+01  7.845642344E+01  9.536743164E-07  0.00000E+00  9.000E+00
      21     1     1     2   515   513  1.344227847E+01  8.861615211E+00  4.114883036E+00  1.661792216E+01  2.731427965E-07  0.00000E+00  9.000E+00
</event>
<event>
      5  10001  3.52971E+09  4.34980E+00 -1.00000E+00  2.55168E-01
      21    -1     0     0   511   512  0.000000000E+00  0.000000000E+00  5.064816202E+01  5.064816202E+01  0.000000000E+00  0.00000E+00  9.000E+00
      21    -1     0     0   514   511  0.000000000E+00  0.000000000E+00 -7.714895536E+01  7.714895536E+01  0.000000000E+00  0.00000E+00  9.000E+00
      21     1     1     2   513   512 -6.416531141E+00 -1.064958912E+01  4.513186041E+01  4.681314393E+01  6.743495762E-07  0.00000E+00  9.000E+00
      21     1     1     2   516   513  9.234265917E+00  1.396336473E+01 -1.063856064E+01  1.983497401E+01  3.576278687E-07  0.00000E+00  9.000E+00
      21     1     1     2   514   516 -2.817734776E+00 -3.313775607E+00 -6.099409310E+01  6.114899943E+01  6.743495762E-07  0.00000E+00  9.000E+00
</event>
<event>
      5  10001  3.52971E+09  7.83976E+00 -1.00000E+00  2.08821E-01
      21    -1     0     0   515   514  0.000000000E+00  0.000000000E+00  1.655093957E+02  1.655093957E+02  0.000000000E+00  0.00000E+00  9.000E+00
      21    -1     0     0   512   517  0.000000000E+00  0.000000000E+00 -9.923227465E+01  9.923227465E+01  0.000000000E+00  0.00000E+00  9.000E+00
      21     1     1     2   515   517  5.857145204E+00  9.179374666E+00  1.646328755E+02  1.649925779E+02  2.697398305E-06  0.00000E+00  9.000E+00
      21     1     1     2   512   511 -8.253485725E+00 -2.686514934E+00 -7.112205600E+01  7.164973300E+01  1.348699152E-06  0.00000E+00  9.000E+00
      21     1     1     2   511   514  2.396340520E+00 -6.492859732E+00 -2.723369840E+01  2.809935950E+01  3.371747881E-07  0.00000E+00  9.000E+00
</event>
<event>
      5  10001  3.52971E+09  5.52312E+00 -1.00000E+00  2.31200E-01
      21    -1     0     0   513   515  0.000000000E+00  0.000000000E+00  2.409977605E+00  2.409977605E+00  0.000000000E+00  0.00000E+00  9.000E+00
      21    -1     0     0   516   514  0.000000000E+00  0.000000000E+00 -1.310719576E+03  1.310719576E+03  0.000000000E+00  0.00000E+00  9.000E+00
      21     1     1     2   513   514 -2.856506000E+00  1.573751685E+01 -8.284381390E+01  8.437373148E+01  3.303624740E-06  0.00000E+00  9.000E+00
      21     1     1     2   516   512 -4.739856339E-02 -2.043561698E+01 -1.222135528E+03  1.222306372E+03  0.000000000E+00  0.00000E+00  9.000E+00
      21     1     1     2   512   515  2.903904563E+00  4.698100132E+00 -3.330256477E+00  6.449450734E+00  1.576990671E-07  0.00000E+00  9.000E+00
</event>
<event>
      5  10001  3.52971E+09  1.60031E+01 -1.00000E+00  1.74772E-01
      21    -1     0     0   511   514  0.000000000E+00  0.000000000E+00  1.492522046E+01  1.492522046E+01  0.000000000E+00  0.00000E+00  9.000E+00
      21    -1     0     0   515   511  0.000000000E+00  0.000000000E+00 -6.045268207E+02  6.045268207E+02  0.000000000E+00  0.00000E+00  9.000E+00
      21     1     1     2   515   517  1.054159809E+01 -1.677565883E+00 -5.604396236E+02  5.605412663E+02  7.629394531E-06  0.00000E+00  9.000E+00
      21     1     1     2   513   514 -1.204469357E+01 -6.990887233E+00  1.103113121E+01  1.776606325E+01  2.770173559E-06  0.00000E+00  9.000E+00
      21     1     1     2   517   513  1.503095473E+00  8.668453116E+00 -4.019310784E+01  4.114471161E+01  4.768371582E-07  0.00000E+00  9.000E+00
</event>
<event>
      5  10001  3.52971E+09  4.69029E+00 -1.00000E+00  2.48168E-01
      21    -1     0     0   512   514  0.000000000E+00  0.000000000E+00  9.642795310E+01  9.642795310E+01  0.000000000E+00  0.00000E+00  9.000E+00
      21    -1     0     0   511   512  0.000000000E+00  0.000000000E+00 -1.145870548E+01  1.145870548E+01  0.000000000E+00  0.00000E+00  9.000E+00
      21     1     1     2   513   514  7.599210233E+00  3.497801393E+00  8.953717880E+01  8.992713161E+01  2.132480600E-06  0.00000E+00  9.000E+00
      21     1     1     2   516   513 -9.898982188E+00 -7.585573810E+00 -2.057928970E+00  1.263985166E+01  3.111453804E-07  0.00000E+00  9.000E+00
      21     1     1     2   511   516  2.299771955E+00  4.087772416E+00 -2.510002207E+00  5.319675315E+00  1.264405455E-07  0.00000E+00  9.000E+00
</event>
<event>
      5  10001  3.52971E+09  1.20582E+01 -1.00000E+00  1.86803E-01
      21    -1     0     0   515   514  0.000000000E+00  0.000000000E+00  7.328675568E+01  7.328675568E+01  0.000000000E+00  0.00000E+00  9.000E+00
      21    -1     0     0   511   512  0.000000000E+00  0.000000000E+00 -1.681745919E+02  1.681745919E+02  0.000000000E+00  0.00000E+00  9.000E+00
      21     1     1     2   515   517 -2.577926648E+01  8.317538028E+00 -6.597830658E+00  2.787980252E+01  6.419616708E-07  0.00000E+00  9.000E+00
      21     1     1     2   511   514  3.168826786E+01 -1.882865115E+01  5.695220597E+01  6.783965057E+01  1.168007728E-06  0.00000E+00  9.000E+00
      21     1     1     2   517   512 -5.909001378E+00  1.051111312E+01 -1.452422115E+02  1.457418945E+02  1.907348633E-06  0.00000E+00  9.000E+00
</event>
<event>
      5  10001  3.52971E+09  1.09285E+01 -1.00000E+00  1.91398E-01
      21    -1     0     0   513   511  0.000000000E+00  0.000000000E+00  1.721792322E+01  1.721792322E+01  0.000000000E+00  0.00000E+00  9.000E+00
      21    -1     0     0   516   513  0.000000000E+00  0.000000000E+00 -1.740398988E+02  1.740398988E+02  0.000000000E+00  0.00000E+00  9.000E+00
      21     1     1     2   516   512 -2.246876947E+00 -9.735859858E+00 -1.718306154E+02  1.721208756E+02  1.907348633E-06  0.00000E+00  9.000E+00
      21     1     1     2   512   514 -2.097508595E+00  3.295540801E+00  3.459273461E+00  5.217921459E+00  4.256623047E-07  0.00000E+00  9.000E+00
      21     1     1     2   514   511  4.344385541E+00  6.440319058E+00  1.154936631E+01  1.391902502E+01  1.011524364E-06  0.00000E+00  9.000E+00
</event>
<event>
      5  10001  3.52971E+09  7.02232E+00 -1.00000E+00  2.15353E-01
      21    -1     0     0   514   511  0.000000000E+00  0.000000000E+00  2.249950302E+01  2.249950302E+01  0.000000000E+00  0.00000E+00  9.000E+00
      -1    -1     0     0     0   515  0.000000000E+00  0.000000000E+00 -4.908056543E+01  4.908056543E+01  0.000000000E+00  0.00000E+00  9.000E+00
      -1     1     1     2     0   511 -6.747046525E+00 -8.128699415E+00 -4.415029105E+01  4.539774764E+01  3.300000131E-01  0.00000E+00  9.000E+00
      21     1     1     2   512   515  1.669285296E+00  9.787821695E+00  1.827083290E+01  2.079450172E+01  0.000000000E+00  0.00000E+00  9.000E+00
      21     1     1     2   514   512  5.077761228E+00 -1.659122280E+00 -7.016042599E-01  5.387819074E+00  7.884953353E-08  0.00000E+00  9.000E+00
</event>
<event>
      5  10001  3.52971E+09  8.10127E+00 -1.00000E+00  2.06954E-01
      21    -1     0     0   513   512  0.000000000E+00  0.000000000E+00  1.032812906E+01  1.032812906E+01  0.000000000E+00  0.00000E+00  9.000E+00
      21    -1     0     0   511   516  0.000000000E+00  0.000000000E+00 -2.026122885E+01  2.026122885E+01  0.000000000E+00  0.00000E+00  9.000E+00
      21     1     1     2   513   516 -4.540490599E+00 -1.075709620E+01 -9.260457888E+00  1.490259219E+01  2.064765462E-07  0.00000E+00  9.000E+00
      21     1     1     2   511   515  5.261383779E+00  8.695376685E+00 -4.628833743E+00  1.116771404E+01  1.032382731E-07  0.00000E+00  9.000E+00
      21     1     1     2   515   512 -7.208931794E-01  2.061719515E+00  3.956191838E+00  4.519051692E+00  4.214684851E-08  0.00000E+00  9.000E+00
</event>
<event>
      5  10001  3.52971E+09  3.12229E+00 -1.00000E+00  2.91690E-01
      21    -1     0     0   513   511  0.000000000E+00  0.000000000E+00  4.387739808E+02  4.387739808E+02  0.000000000E+00  0.00000E+00  9.000E+00
       2    -1     0     0   512     0  0.000000000E+00  0.000000000E+00 -4.232949119E+00  4.232949119E+00  0.000000000E+00  0.00000E+00  9.000E+00
      21     1     1     2   512   511  7.878119642E+00 -1.267214103E+01  3.218214504E+01  3.547306565E+01  4.768371582E-07  0.00000E+00  9.000E+00
       2     1     1     2   514     0 -4.789211005E+00  1.221726610E+01  1.410736704E+01  1.926979081E+01  3.300000131E-01  0.00000E+00  9.000E+00
      21     1     1     2   513   514 -3.088908637E+00  4.548749366E-01  3.882515196E+02  3.882640734E+02  7.629394531E-06  0.00000E+00  9.000E+00
</event>
<event>
      5  10001  3.52971E+09  2.32792E+01 -1.00000E+00  1.61103E-01
       2    -1     0     0   515     0  0.000000000E+00  0.000000000E+00  7.492694605E+02  7.492694605E+02  0.000000000E+00  0.00000E+00  9.000E+00
      21    -1     0     0   513   514  0.000000000E+00  0.000000000E+00 -3.055859400E-01  3.055859400E-01  0.000000000E+00  0.00000E+00  9.000E+00
      21     1     1     2   515   511  1.553140776E+00 -5.316017050E-01  2.173882135E+00  2.724079694E+00  4.558878702E-07  0.00000E+00  9.000E+00
       2     1     1     2   513     0 -2.210802637E+00  3.613295417E+00  1.724601852E+02  1.725125153E+02  3.300000131E-01  0.00000E+00  9.000E+00
      21     1     1     2   511   514  6.576618615E-01 -3.081693712E+00  5.743298072E+02  5.743384514E+02  0.000000000E+00  0.00000E+00  9.000E+00
</event>
<event>
      5  10001  3.52971E+09  5.10577E+00 -1.00000E+00  2.36932E-01
       2    -1     0     0   514     0  0.000000000E+00  0.000000000E+00  7.333411441E+02  7.333411441E+02  0.000000000E+00  0.00000E+00  9.000E+00
      21    -1     0     0   513   514  0.000000000E+00  0.000000000E+00 -4.263294478E-01  4.263294478E-01  0.000000000E+00  0.00000E+00  9.000E+00
      21     1     1     2   511   512  7.821951154E+00  7.727091744E+00  1.925756335E+02  1.928892570E+02  2.697398305E-06  0.00000E+00  9.000E+00
       2     1     1     2   512     0 -1.236250031E+01 -5.393147021E+00  5.041719728E+02  5.043524605E+02  3.300000131E-01  0.00000E+00  9.000E+00
      21     1     1     2   513   511  4.540549158E+00 -2.333944723E+00  3.616720839E+01  3.652575595E+01  4.768371582E-07  0.00000E+00  9.000E+00
</event>
<event>
      5  10001  3.52971E+09  4.40819E+00 -1.00000E+00  2.53900E-01
      21    -1     0     0   515   512  0.000000000E+00  0.000000000E+00  2.908120455E+02  2.908120455E+02  0.000000000E+00  0.00000E+00  9.000E+00
      21    -1     0     0   513   515  0.000000000E+00  0.000000000E+00 -1.254900418E+01  1.254900418E+01  0.000000000E+00  0.00000E+00  9.000E+00
      21     1     1     2   513   511 -3.197558432E+00 -1.082222832E+01 -9.614644761E+00  1.482519476E+01  3.769728732E-07  0.00000E+00  9.000E+00
      21     1     1     2   511   514  1.016448945E+00  1.338572626E+01  2.706346906E+02  2.709674272E+02  5.394796609E-06  0.00000E+00  9.000E+00
      21     1     1     2   514   512  2.181109487E+00 -2.563497937E+00  1.724299551E+01  1.756842777E+01  2.384185791E-07  0.00000E+00  9.000E+00
</event>
<event>
      5  10001  3.52971E+09  3.47401E+00 -1.00000E+00  2.78775E-01
      21    -1     0     0   516   511  0.000000000E+00  0.000000000E+00  3.256731287E+01  3.256731287E+01  0.000000000E+00  0.00000E+00  9.000E+00
      21    -1     0     0   513   512  0.000000000E+00  0.000000000E+00 -4.884217202E+00  4.884217202E+00  0.000000000E+00  0.00000E+00  9.000E+00
      21     1     1     2   516   512  1.954415722E+00 -9.133381005E+00  2.481413788E+00  9.664150443E+00  4.214684851E-08  0.00000E+00  9.000E+00
      21     1     1     2   513   515 -4.337648631E-01  7.321130489E+00  2.407456561E+01  2.516687928E+01  0.000000000E+00  0.00000E+00  9.000E+00
      21     1     1     2   515   511 -1.520650859E+00  1.812250517E+00  1.127116270E+00  2.620500344E+00  0.000000000E+00  0.00000E+00  9.000E+00
</event>
<event>
      5  10001  3.52971E+09  4.03240E+00 -1.00000E+00  2.62639E-01
      21    -1     0     0   514   515  0.000000000E+00  0.000000000E+00  1.106717369E+03  1.106717369E+03  0.000000000E+00  0.00000E+00  9.000E+00
      21    -1     0     0   512   514  0.000000000E+00  0.000000000E+00 -9.167339810E-01  9.167339810E-01  0.000000000E+00  0.00000E+00  9.000E+00
      21     1     1     2   513   515 -4.475233269E+00 -6.944537254E+00  1.005878167E+03  1.005912094E+03  1.868812365E-05  0.00000E+00  9.000E+00
      21     1     1     2   511   513  6.707741095E+00  1.030253859E+01  9.214365263E+01  9.296014636E+01  3.814697266E-06  0.00000E+00  9.000E+00
      21     1     1     2   512   511 -2.232507826E+00 -3.358001340E+00  7.778814968E+00  8.761862046E+00  1.183118417E-06  0.00000E+00  9.000E+00
</event>
<event>
      5  10001  3.52971E+09  1.35885E+01 -1.00000E+00  1.81521E-01
      21    -1     0     0   516   513  0.000000000E+00  0.000000000E+00  3.695136965E-01  3.695136965E-01  0.000000000E+00  0.00000E+00  9.000E+00
      21    -1     0     0   512   516  0.000000000E+00  0.000000000E+00 -4.476625867E+02  4.476625867E+02  0.000000000E+00  0.00000E+00  9.000E+00
      21     1     1     2   511   513 -9.691790488E+00  3.079938421E+00 -1.338010094E+02  1.341869105E+02  3.303624740E-06  0.00000E+00  9.000E+00
      21     1     1     2   512   514  2.912201671E+00 -3.893616319E+00 -4.421039138E+01  4.447695890E+01  0.000000000E+00  0.00000E+00  9.000E+00
      21     1     1     2   514   511  6.779588817E+00  8.136778987E-01 -2.692816722E+02  2.693682310E+02  3.814697266E-06  0.00000E+00  9.000E+00
</event>
<event>
      5  10001  3.52971E+09  5.56980E+00 -1.00000E+00  2.30603E-01
      21    -1     0     0   515   511  0.000000000E+00  0.000000000E+00  5.882659665E+01  5.882659665E+01  0.000000000E+00  0.00000E+00  9.000E+00
      21    -1     0     0   517   515  0.000000000E+00  0.000000000E+00 -4.092285465E+00  4.092285465E+00  0.000000000E+00  0.00000E+00  9.000E+00
      21     1     1     2   512   511 -6.949130596E+00  7.632208167E+00  4.841542649E+01  4.950348007E+01  1.168007728E-06  0.00000E+00  9.000E+00
      21     1     1     2   513   512  1.343861635E+00 -3.602949057E+00 -2.930322199E-01  3.856562444E+00  1.523274802E-07  0.00000E+00  9.000E+00
      21     1     1     2   517   513  5.605268961E+00 -4.029259110E+00  6.611916917E+00  9.558839596E+00  1.884864366E-07  0.00000E+00  9.000E+00
</event>
<event>
      5  10001  3.52971E+09  1.55508E+01 -1.00000E+00  1.75917E-01
      -3    -1     0     0     0   514  0.000000000E+00  0.000000000E+00  1.130372351E+02  1.130372351E+02  0.000000000E+00  0.00000E+00  9.000E+00
      21    -1     0     0   514   515  0.000000000E+00  0.000000000E+00 -1.965034596E+01  1.965034596E+01  0.000000000E+00  0.00000E+00  9.000E+00
      -3     1     1     2     0   512  6.199514761E-01 -1.759563468E+01  9.758312660E+01  9.916000856E+01  5.000000000E-01  0.00000E+00  9.000E+00
      21     1     1     2   512   511 -4.548250175E+00  6.310833243E+00 -1.533296908E+01  1.719340387E+01  1.685873940E-07  0.00000E+00  9.000E+00
      21     1     1     2   511   515  3.928298699E+00  1.128480143E+01  1.113673165E+01  1.633416866E+01  3.769728732E-07  0.00000E+00  9.000E+00
</event>
<event>
      5  10001  3.52971E+09  4.94871E+00 -1.00000E+00  2.43428E-01
      21    -1     0     0   513   512  0.000000000E+00  0.000000000E+00  6.299295081E+02  6.299295081E+02  0.000000000E+00  0.00000E+00  9.000E+00
      21    -1     0     0   517   516  0.000000000E+00  0.000000000E+00 -2.270319483E+00  2.270319483E+00  0.000000000E+00  0.00000E+00  9.000E+00
      21     1     1     2   513   516 -4.793765171E+00 -1.041903050E+01  5.963721901E+02  5.964824604E+02  1.321449896E-05  0.00000E+00  9.000E+00
      21     1     1     2   514   512 -1.013581841E-01  1.114530622E+01  2.684742078E+01  2.906909229E+01  8.920806376E-07  0.00000E+00  9.000E+00
      21     1     1     2   517   514  4.895123355E+00 -7.262757201E-01  4.439577718E+00  6.648274918E+00  5.623090942E-07  0.00000E+00  9.000E+00
</event>
<event>
      5  10001  3.52971E+09  9.04191E+00 -1.00000E+00  2.00948E-01
      21    -1     0     0   511   514  0.000000000E+00  0.000000000E+00  3.525867226E+01  3.525867226E+01  0.000000000E+00  0.00000E+00  9.000E+00
      21    -1     0     0   517   515  0.000000000E+00  0.000000000E+00 -2.414312175E+01  2.414312175E+01  0.000000000E+00  0.00000E+00  9.000E+00
      21     1     1     2   511   515 -8.785993160E+00  1.095027148E+01 -1.838978927E+01  2.313625879E+01  2.384185791E-07  0.00000E+00  9.000E+00
      21     1     1     2   517   512  9.886606052E+00 -3.543152459E+00  2.591227492E+01  2.795970136E+01  4.768371582E-07  0.00000E+00  9.000E+00
      21     1     1     2   512   514 -1.100612892E+00 -7.407119021E+00  3.593064858E+00  8.305833853E+00  1.032382731E-07  0.00000E+00  9.000E+00
</event>
<event>
      5  10001  3.52971E+09  7.05357E+00 -1.00000E+00  2.15081E-01
       1    -1     0     0   513     0  0.000000000E+00  0.000000000E+00  1.155870313E+01  1.155870313E+01  0.000000000E+00  0.00000E+00  9.000E+00
      21    -1     0     0   514   513  0.000000000E+00  0.000000000E+00 -2.616334457E+02  2.616334457E+02  0.000000000E+00  0.00000E+00  9.000E+00
      21     1     1     2   516   512  4.933430838E+00 -8.918336385E+00 -4.685370611E+00  1.121731525E+01  5.022376641E-07  0.00000E+00  9.000E+00
      21     1     1     2   514   516  1.031356804E+00  1.268303254E+01 -2.519887459E+02  2.523098315E+02  0.000000000E+00  0.00000E+00  9.000E+00
       1     1     1     2   512     0 -5.964787642E+00 -3.764696157E+00  6.599373945E+00  9.665002082E+00  3.300000131E-01  0.00000E+00  9.000E+00
</event>
<event>
      5  10001  3.52971E+09  5.71990E+00 -1.00000E+00  2.28739E-01
      21    -1     0     0   511   516  0.000000000E+00  0.000000000E+00  7.246198494E+02  7.246198494E+02  0.000000000E+00  0.00000E+00  9.000E+00
      21    -1     0     0   515   511  0.000000000E+00  0.000000000E+00 -7.562708781E+00  7.562708781E+00  0.000000000E+00  0.00000E+00  9.000E+00
      21     1     1     2   514   516 -7.013141588E+00 -7.389309086E+00  7.099663779E+02  7.100394664E+02  1.321449896E-05  0.00000E+00  9.000E+00
      21     1     1     2   513   514  5.521509230E+00  2.222842223E+00 -5.716514673E+00  8.252674217E+00  8.596304120E-07  0.00000E+00  9.000E+00
      21     1     1     2   515   513  1.491632358E+00  5.166466863E+00  1.280727738E+01  1.389041759E+01  0.000000000E+00  0.00000E+00  9.000E+00
</event>
<event>
      5  10001  3.52971E+09  1.01451E+01 -1.00000E+00  1.95032E-01
      21    -1     0     0   512   513  0.000000000E+00  0.000000000E+00  3.470389612E+02  3.470389612E+02  0.000000000E+00  0.00000E+00  9.000E+00
      21    -1     0     0   515   512  0.000000000E+00  0.000000000E+00 -2.533727448E+00  2.533727448E+00  0.000000000E+00  0.00000E+00  9.000E+00
      21     1     1     2   515   517  2.113044403E+00  2.085669429E+01  5.204162149E+01  5.610523167E+01  9.536743164E-07  0.00000E+00  9.000E+00
      -5     1     1     2     0   513 -6.856047632E-01 -3.902028823E+00  1.000515997E+02  1.002449923E+02  4.800000191E+00  0.00000E+00  9.000E+00
       5     1     1     2   517     0 -1.427439640E+00 -1.695466547E+01  1.924120126E+02  1.932224647E+02  4.800000191E+00  0.00000E+00  9.000E+00
</event>
<event>
      5  10001  3.52971E+09  7.67631E+00 -1.00000E+00  2.10038E-01
      -1    -1     0     0     0   511  0.000000000E+00  0.000000000E+00  4.097630519E+02  4.097630519E+02  0.000000000E+00  0.00000E+00  9.000E+00
      21    -1     0     0   513   512  0.000000000E+00  0.000000000E+00 -3.282153412E+00  3.282153412E+00  0.000000000E+00  0.00000E+00  9.000E+00
      -1     1     1     2     0   512 -1.059634290E+01  7.440131281E+00  3.940629804E+02  3.942757657E+02  3.300000131E-01  0.00000E+00  9.000E+00
      21     1     1     2   514   511  4.112367155E+00 -4.964005940E+00  8.896937260E+00  1.098673797E+01  3.576278687E-07  0.00000E+00  9.000E+00
      21     1     1     2   513   514  6.483975741E+00 -2.476125341E+00  3.520980830E+00  7.782701595E+00  2.980232239E-07  0.00000E+00  9.000E+00
</event>
<event>
      5  10001  3.52971E+09  6.75282E+00 -1.00000E+00  2.17778E-01
      21    -1     0     0   515   511  0.000000000E+00  0.000000000E+00  8.599882858E+00  8.599882858E+00  0.000000000E+00  0.00000E+00  9.000E+00
      21    -1     0     0   513   512  0.000000000E+00  0.000000000E+00 -2.476648944E+02  2.476648944E+02  0.000000000E+00  0.00000E+00  9.000E+00
      21     1     1     2   514   511  1.075536098E+01 -3.117170153E+00  4.237546300E+00  1.197294192E+01  5.230286352E-07  0.00000E+00  9.000E+00
      21     1     1     2   513   514 -1.161738029E+01  9.814745088E+00 -1.670782674E+02  1.677690084E+02  3.814697266E-06  0.00000E+00  9.000E+00
      21     1     1     2   515   512  8.620193136E-01 -6.697574935E+00 -7.622429044E+01  7.652282692E+01  9.536743164E-07  0.00000E+00  9.000E+00
</event>
<event>
      5  10001  3.52971E+09  3.20420E+00 -1.00000E+00  2.88441E-01
      21    -1     0     0   516   513  0.000000000E+00  0.000000000E+00  6.353197104E+00  6.353197104E+00  0.000000000E+00  0.00000E+00  9.000E+00
       1    -1     0     0   514     0  0.000000000E+00  0.000000000E+00 -1.664275841E+02  1.664275841E+02  0.000000000E+00  0.00000E+00  9.000E+00
      21     1     1     2   511   513 -5.711022896E+00 -7.606559794E+00  2.001955268E+00  9.720255106E+00  6.931843370E-07  0.00000E+00  9.000E+00
       1     1     1     2   516     0  8.242249850E+00  9.571047682E+00 -1.510648691E+02  1.515923586E+02  3.300000131E-01  0.00000E+00  9.000E+00
      21     1     1     2   514   511 -2.531226953E+00 -1.964487888E+00 -1.101147321E+01  1.146816745E+01  1.685873940E-07  0.00000E+00  9.000E+00
</event>
<event>
      5  10001  3.52971E+09  3.92079E+00 -1.00000E+00  2.65525E-01
       1    -1     0     0   514     0  0.000000000E+00  0.000000000E+00  4.308351321E+02  4.308351321E+02  0.000000000E+00  0.00000E+00  9.000E+00
      21    -1     0     0   512   513  0.000000000E+00  0.000000000E+00 -2.259215114E+00  2.259215114E+00  0.000000000E+00  0.00000E+00  9.000E+00
      21     1     1     2   514   515 -6.956983186E+00 -8.166869276E+00  1.855830671E+02  1.858929051E+02  2.697398305E-06  0.00000E+00  9.000E+00
       1     1     1     2   512     0  1.027751350E+01  1.025143280E+01  2.428443074E+02  2.432780009E+02  3.300000131E-01  0.00000E+00  9.000E+00
      21     1     1     2   515   513 -3.320530315E+00 -2.084563522E+00  1.485424935E-01  3.923441286E+00  2.804007968E-07  0.00000E+00  9.000E+00
</event>
<event>
      5  10001  3.52971E+09  1.93374E+01 -1.00000E+00  1.67582E-01
      21    -1     0     0   511   513  0.000000000E+00  0.000000000E+00  3.104855323E+01  3.104855323E+01  0.000000000E+00  0.00000E+00  9.000E+00
      -2    -1     0     0     0   511  0.000000000E+00  0.000000000E+00 -2.315925072E+01  2.315925072E+01  0.000000000E+00  0.00000E+00  9.000E+00
      21     1     1     2   512   514 -1.371305684E+01  5.151026011E-01  9.289049080E+00  1.657104979E+01  4.915124924E-07  0.00000E+00  9.000E+00
      21     1     1     2   514   513  2.108683330E+01  9.693863321E+00  4.637399960E+00  2.366708691E+01  3.209808354E-07  0.00000E+00  9.000E+00
      -2     1     1     2     0   512 -7.373776461E+00 -1.020896592E+01 -6.037146539E+00  1.396966724E+01  3.300000131E-01  0.00000E+00  9.000E+00
</event>
<event>
      5  10001  3.52971E+09  2.67834E+01 -1.00000E+00  1.56539E-01
      21    -1     0     0   515   514  0.000000000E+00  0.000000000E+00  9.450183719E+01  9.450183719E+01  0.000000000E+00  0.00000E+00  9.000E+00
      21    -1     0     0   516   515  0.000000000E+00  0.000000000E+00 -1.489176392E+01  1.489176392E+01  0.000000000E+00  0.00000E+00  9.000E+00
      21     1     1     2   516   512  1.183084585E+01  4.493691488E+00 -1.140278791E+01  1.703483927E+01  6.529361695E-07  0.00000E+00  9.000E+00
      21     1     1     2   512   511 -3.237689084E+00  1.057996229E+00  7.695169110E+00  8.415320211E+00  0.000000000E+00  0.00000E+00  9.000E+00
      21     1     1     2   511   514 -8.593156761E+00 -5.551687717E+00  8.331769208E+01  8.394344163E+01  0.000000000E+00  0.00000E+00  9.000E+00
</event>
<event>
      5  10001  3.52971E+09  5.29587E+00 -1.00000E+00  2.34228E-01
      21    -1     0     0   511   513  0.000000000E+00  0.000000000E+00  1.338225141E+02  1.338225141E+02  0.000000000E+00  0.00000E+00  9.000E+00
      21    -1     0     0   513   514  0.000000000E+00  0.000000000E+00 -1.181108939E+00  1.181108939E+00  0.000000000E+00  0.00000E+00  9.000E+00
      -4     1     1     2     0   514 -9.105865559E+00  5.194209710E+00  3.368401452E+01  3.530948083E+01  1.500000000E+00  0.00000E+00  9.000E+00
       4     1     1     2   512     0  6.635040074E+00 -2.354584997E+00  4.199217310E+01  4.260469961E+01  1.500000000E+00  0.00000E+00  9.000E+00
      21     1     1     2   511   512  2.470825485E+00 -2.839624713E+00  5.696521759E+01  5.708944265E+01  6.743495762E-07  0.00000E+00  9.000E+00
</event>
<event>
      5  10001  3.52971E+09  7.76553E+00 -1.00000E+00  2.09369E-01
      21    -1     0     0   515   512  0.000000000E+00  0.000000000E+00  1.366444881E+02  1.366444881E+02  0.000000000E+00  0.00000E+00  9.000E+00
      21    -1     0     0   513   516  0.000000000E+00  0.000000000E+00 -4.984079783E+00  4.984079783E+00  0.000000000E+00  0.00000E+00  9.000E+00
      21     1     1     2   515   516  2.252619005E+01 -9.659110510E+00  5.430661935E+01  5.958134405E+01  1.168007728E-06  0.00000E+00  9.000E+00
      21     1     1     2   513   514 -1.699301101E+01  9.192153464E+00  4.163197229E+01  4.589639665E+01  4.768371582E-07  0.00000E+00  9.000E+00
      21     1     1     2   514   512 -5.533179032E+00  4.669570457E-01  3.572181663E+01  3.615082713E+01  4.768371582E-07  0.00000E+00  9.000E+00
</event>
<event>
      5  10001  3.52971E+09  3.24261E+00 -1.00000E+00  2.86972E-01
      21    -1     0     0   511   512  0.000000000E+00  0.000000000E+00  3.498091460E+00  3.498091460E+00  0.000000000E+00  0.00000E+00  9.000E+00
       2    -1     0     0   513     0  0.000000000E+00  0.000000000E+00 -1.390733597E+02  1.390733597E+02  0.000000000E+00  0.00000E+00  9.000E+00
      21     1     1     2   513   512  8.405066929E+00  1.031987704E+01 -1.139899883E+01  1.752376063E+01  3.371747881E-07  0.00000E+00  9.000E+00
       2     1     1     2   515     0 -9.165292870E+00 -7.745448796E+00 -9.730487779E+01  9.804255562E+01  3.300000131E-01  0.00000E+00  9.000E+00
      21     1     1     2   511   515  7.602259410E-01 -2.574428241E+00 -2.687139163E+01  2.700513492E+01  3.371747881E-07  0.00000E+00  9.000E+00
</event>
<event>
      5  10001  3.52971E+09  8.17558E+00 -1.00000E+00  2.06440E-01
      21    -1     0     0   514   513  0.000000000E+00  0.000000000E+00  1.810996509E+00  1.810996509E+00  0.000000000E+00  0.00000E+00  9.000E+00
      21    -1     0     0   512   516  0.000000000E+00  0.000000000E+00 -4.105271920E+02  4.105271920E+02  0.000000000E+00  0.00000E+00  9.000E+00
      21     1     1     2   514   516 -8.974550549E+00 -4.962526358E+00 -1.360354532E+01  1.703601099E+01  9.078709013E-07  0.00000E+00  9.000E+00
      21     1     1     2   512   517  5.944205974E+00 -2.137500262E-01 -1.537528657E+02  1.538678751E+02  0.000000000E+00  0.00000E+00  9.000E+00
      21     1     1     2   517   513  3.030344575E+00  5.176276384E+00 -2.413597845E+02  2.414343024E+02  2.697398305E-06  0.00000E+00  9.000E+00
</event>
<event>
      5  10001  3.52971E+09  6.06860E+00 -1.00000E+00  2.24702E-01
      21    -1     0     0   511   512  0.000000000E+00  0.000000000E+00  3.744758362E+01  3.744758362E+01  0.000000000E+00  0.00000E+00  9.000E+00
      21    -1     0     0   515   514  0.000000000E+00  0.000000000E+00 -3.943084541E+01  3.943084541E+01  0.000000000E+00  0.00000E+00  9.000E+00
      21     1     1     2   511   513 -1.358648423E+01 -9.307925705E+00 -1.992244643E+01  2.584828634E+01  4.129530925E-07  0.00000E+00  9.000E+00
      21     1     1     2   515   512  1.313141800E+01  3.256414163E+00  3.252804657E+01  3.522942216E+01  4.768371582E-07  0.00000E+00  9.000E+00
      21     1     1     2   513   514  4.550662316E-01  6.051511542E+00 -1.458886192E+01  1.580072053E+01  1.685873940E-07  0.00000E+00  9.000E+00
</event>
<event>
      5  10001  3.52971E+09  2.33664E+00 -1.00000E+00  3.34214E-01
       4    -1     0     0   513     0  0.000000000E+00  0.000000000E+00  9.761370862E+01  9.761370862E+01  0.000000000E+00  0.00000E+00  9.000E+00
      21    -1     0     0   516   514  0.000000000E+00  0.000000000E+00 -3.445154088E+00  3.445154088E+00  0.000000000E+00  0.00000E+00  9.000E+00
      21     1     1     2   511   514  2.176156064E+00  9.609595013E+00  9.823847513E+00  1.391358874E+01  3.371747881E-07  0.00000E+00  9.000E+00
       4     1     1     2   516     0 -4.355594724E+00 -1.179853979E+01  8.266397454E+01  8.362869982E+01  1.500000000E+00  0.00000E+00  9.000E+00
      21     1     1     2   513   511  2.179438659E+00  2.188944780E+00  1.680732479E+00  3.516574155E+00  9.185692672E-08  0.00000E+00  9.000E+00
</event>
<event>
      5  10001  3.52971E+09  6.53680E+00 -1.00000E+00  2.19838E-01
      21    -1     0     0   511   512  0.000000000E+00  0.000000000E+00  3.679977026E+01  3.679977026E+01  0.000000000E+00  0.00000E+00  9.000E+00
      -3    -1     0     0     0   511  0.000000000E+00  0.000000000E+00 -3.220579944E+01  3.220579944E+01  0.000000000E+00  0.00000E+00  9.000E+00
      21     1     1     2   514   513 -1.376031191E+00 -4.729928671E+00 -9.013934983E+00  1.027213274E+01  1.192092896E-07  0.00000E+00  9.000E+00
      21     1     1     2   513   512 -1.542945475E+00  1.242559967E+01  3.427053150E+01  3.648623764E+01  4.768371582E-07  0.00000E+00  9.000E+00
      -3     1     1     2     0   514  2.918976667E+00 -7.695670997E+00 -2.066262570E+01  2.224719933E+01  5.000000000E-01  0.00000E+00  9.000E+00
</event>
<event>
      5  10001  3.52971E+09  6.49343E+00 -1.00000E+00  2.20264E-01
      21    -1     0     0   515   512  0.000000000E+00  0.000000000E+00  1.258309066E+01  1.258309066E+01  0.000000000E+00  0.00000E+00  9.000E+00
      21    -1     0     0   514   515  0.000000000E+00  0.000000000E+00 -1.241435770E+01  1.241435770E+01  0.000000000E+00  0.00000E+00  9.000E+00
      -5     1     1     2     0   511 -1.826424516E+00 -4.990302967E+00  1.194160540E-02  7.160942301E+00  4.800000191E+00  0.00000E+00  9.000E+00
       5     1     1     2   514     0  2.854312222E+00  8.587759514E+00  5.254708146E+00  1.151297838E+01  4.800000191E+00  0.00000E+00  9.000E+00
      21     1     1     2   511   512 -1.027887706E+00 -3.597456547E+00 -5.097916790E+00  6.323527682E+00  1.192092896E-07  0.00000E+00  9.000E+00
</event>
<event>
      5  10001  3.52971E+09  5.04198E+00 -1.00000E+00  2.37877E-01
      21    -1     0     0   515   514  0.000000000E+00  0.000000000E+00  2.085085634E+02  2.085085634E+02  0.000000000E+00  0.00000E+00  9.000E+00
      21    -1     0     0   511   512  0.000000000E+00  0.000000000E+00 -1.386702982E+02  1.386702982E+02  0.000000000E+00  0.00000E+00  9.000E+00
      21     1     1     2   513   512  2.154982709E+00  1.225372908E+01 -1.633314729E+01  2.053215837E+01  7.907449699E-07  0.00000E+00  9.000E+00
      21     1     1     2   511   514  2.886998555E+00 -1.224904768E+01 -1.198774278E+02  1.205361839E+02  0.000000000E+00  0.00000E+00  9.000E+00
      21     1     1     2   515   513 -5.041981263E+00 -4.681400298E-03  2.060488403E+02  2.061105193E+02  2.697398305E-06  0.00000E+00  9.000E+00
</event>
<event>
      5  10001  3.52971E+09  1.72787E+01 -1.00000E+00  1.71783E-01
      21    -1     0     0   516   511  0.000000000E+00  0.000000000E+00  1.198965484E+01  1.198965484E+01  0.000000000E+00  0.00000E+00  9.000E+00
       4    -1     0     0   514     0  0.000000000E+00  0.000000000E+00 -2.572659974E+02  2.572659974E+02  0.000000000E+00  0.00000E+00  9.000E+00
      21     1     1     2   514   511 -7.659798261E+00  8.700538977E+00  9.000615567E+00  1.467593160E+01  4.915124924E-07  0.00000E+00  9.000E+00
      21     1     1     2   516   512  6.918291498E-01 -1.327054714E+00 -1.316939146E+01  1.325415305E+01  0.000000000E+00  0.00000E+00  9.000E+00
       4     1     1     2   512     0  6.967969111E+00 -7.373484263E+00 -2.411075666E+02  2.413255675E+02  1.500000000E+00  0.00000E+00  9.000E+00
</event>
<event>
      5  10001  3.52971E+09  8.78276E+00 -1.00000E+00  2.02502E-01
      21    -1     0     0   513   511  0.000000000E+00  0.000000000E+00  1.065307711E+01  1.065307711E+01  0.000000000E+00  0.00000E+00  9.000E+00
      21    -1     0     0   515   513  0.000000000E+00  0.000000000E+00 -8.420177177E+01  8.420177177E+01  0.000000000E+00  0.00000E+00  9.000E+00
      21     1     1     2   515   514  2.624549514E+00 -1.958390606E+01 -6.340200063E+01  6.640957251E+01  9.536743164E-07  0.00000E+00  9.000E+00
      21     1     1     2   516   511 -1.199407408E-01  1.449182350E+01  2.386264087E+00  1.468746371E+01  1.460009660E-07  0.00000E+00  9.000E+00
      21     1     1     2   514   516 -2.504608774E+00  5.092082558E+00 -1.253295812E+01  1.375781266E+01  2.384185791E-07  0.00000E+00  9.000E+00
</event>
<event>
      5  10001  3.52971E+09  1.26192E+01 -1.00000E+00  1.84756E-01
      21    -1     0     0   512   515  0.000000000E+00  0.000000000E+00  3.228451528E+01  3.228451528E+01  0.000000000E+00  0.00000E+00  9.000E+00
      -4    -1     0     0     0   512  0.000000000E+00  0.000000000E+00 -3.414213277E+00  3.414213277E+00  0.000000000E+00  0.00000E+00  9.000E+00
      -4     1     1     2     0   511 -1.557046261E+00  8.665483294E+00  1.137591110E+01  1.446293010E+01  1.500000000E+00  0.00000E+00  9.000E+00
      21     1     1     2   511   513  2.737329529E+00 -4.997344200E-01  8.888236791E+00  9.313616950E+00  1.685873940E-07  0.00000E+00  9.000E+00
      21     1     1     2   513   515 -1.180283268E+00 -8.165748874E+00  8.606154120E+00  1.192218151E+01  1.685873940E-07  0.00000E+00  9.000E+00
</event>
<event>
      5  10001  3.52971E+09  4.11245E+00 -1.00000E+00  2.60657E-01
       1    -1     0     0   512     0  0.000000000E+00  0.000000000E+00  3.319416808E+02  3.319416808E+02  0.000000000E+00  0.00000E+00  9.000E+00
      21    -1     0     0   511   512  0.000000000E+00  0.000000000E+00 -2.269472967E+00  2.269472967E+00  0.000000000E+00  0.00000E+00  9.000E+00
      -4     1     1     2     0   513 -8.752411619E-01  9.472664441E+00  1.062952163E+02  1.067305974E+02  1.500000000E+00  0.00000E+00  9.000E+00
       1     1     1     2   513     0 -2.217676320E+00 -1.216589956E+01  2.227214503E+02  2.230647452E+02  3.300000131E-01  0.00000E+00  9.000E+00
       4     1     1     2   511     0  3.092917482E+00  2.693235124E+00  6.555411979E-01  4.415811166E+00  1.500000000E+00  0.00000E+00  9.000E+00
</event>
<event>
      5  10001  3.52971E+09  6.91208E+00 -1.00000E+00  2.16327E-01
      21    -1     0     0   514   516  0.000000000E+00  0.000000000E+00  3.276545143E+01  3.276545143E+01  0.000000000E+00  0.00000E+00  9.000E+00
      21    -1     0     0   511   514  0.000000000E+00  0.000000000E+00 -1.548960933E+01  1.548960933E+01  0.000000000E+00  0.00000E+00  9.000E+00
      21     1     1     2   515   516 -7.775753664E+00  1.067522493E+01  2.660776895E+01  2.970515343E+01  0.000000000E+00  0.00000E+00  9.000E+00
      21     1     1     2   512   515  8.738803003E+00 -7.924989748E+00 -3.969795662E+00  1.244714498E+01  3.264680848E-07  0.00000E+00  9.000E+00
      21     1     1     2   511   512 -9.630493391E-01 -2.750235179E+00 -5.362131180E+00  6.102762355E+00  1.884864366E-07  0.00000E+00  9.000E+00
</event>
<event>
      5  10001  3.52971E+09  8.29017E+00 -1.00000E+00  2.05663E-01
      21    -1     0     0   514   511  0.000000000E+00  0.000000000E+00  7.029236617E+01  7.029236617E+01  0.000000000E+00  0.00000E+00  9.000E+00
       2    -1     0     0   515     0  0.000000000E+00  0.000000000E+00 -5.834992666E+01  5.834992666E+01  0.000000000E+00  0.00000E+00  9.000E+00
      21     1     1     2   513   511 -6.066069061E+00  1.185606688E+01  4.734984758E+01  4.918710788E+01  6.743495762E-07  0.00000E+00  9.000E+00
      21     1     1     2   515   513 -1.992222589E+00 -1.380233151E+01 -5.575954833E+01  5.747695656E+01  9.536743164E-07  0.00000E+00  9.000E+00
       2     1     1     2   514     0  8.058291651E+00  1.946264622E+00  2.035214026E+01  2.197822839E+01  3.300000131E-01  0.00000E+00  9.000E+00
</event>
<event>
      5  10001  3.52971E+09  8.08867E+00 -1.00000E+00  2.07041E-01
      21    -1     0     0   512   515  0.000000000E+00  0.000000000E+00  1.087391851E+02  1.087391851E+02  0.000000000E+00  0.00000E+00  9.000E+00
      21    -1     0     0   511   516  0.000000000E+00  0.000000000E+00 -2.357540194E+01  2.357540194E+01  0.000000000E+00  0.00000E+00  9.000E+00
      21     1     1     2   512   516 -9.876321653E+00 -4.931096818E-01  1.018230955E+02  1.023021391E+02  1.348699152E-06  0.00000E+00  9.000E+00
      21     1     1     2   511   513  5.443332170E+00  4.372287724E+00 -2.136255308E+01  2.247455092E+01  5.840038640E-07  0.00000E+00  9.000E+00
      21     1     1     2   513   515  4.432989483E+00 -3.879178042E+00  4.703240721E+00  7.537897009E+00  5.960464478E-08  0.00000E+00  9.000E+00
</event>
<event>
      5  10001  3.52971E+09  5.57099E+00 -1.00000E+00  2.30588E-01
      -4    -1     0     0     0   511  0.000000000E+00  0.000000000E+00  4.759744339E+00  4.759744339E+00  0.000000000E+00  0.00000E+00  9.000E+00
      21    -1     0     0   514   512  0.000000000E+00  0.000000000E+00 -4.860445270E+02  4.860445270E+02  0.000000000E+00  0.00000E+00  9.000E+00
      -4     1     1     2     0   513 -1.603636579E+01 -7.472352337E+00 -1.465426754E+01  2.302169920E+01  1.500000000E+00  0.00000E+00  9.000E+00
      21     1     1     2   513   512  1.713055837E+01  2.011376418E+00 -4.481319368E+02  4.484637493E+02  7.629394531E-06  0.00000E+00  9.000E+00
      21     1     1     2   514   511 -1.094192581E+00  5.460975919E+00 -1.849857830E+01  1.931882280E+01  2.384185791E-07  0.00000E+00  9.000E+00
</event>
<event>
      5  10001  3.52971E+09  5.02758E+00 -1.00000E+00  2.38093E-01
      21    -1     0     0   514   511  0.000000000E+00  0.000000000E+00  1.518284508E+02  1.518284508E+02  0.000000000E+00  0.00000E+00  9.000E+00
       3    -1     0     0   512     0  0.000000000E+00  0.000000000E+00 -3.056464115E+00  3.056464115E+00  0.000000000E+00  0.00000E+00  9.000E+00
      21     1     1     2   513   511  6.109520038E+00 -1.294098955E+01  1.112731006E+02  1.121895645E+02  2.336015456E-06  0.00000E+00  9.000E+00
       3     1     1     2   514     0 -1.237740073E+00  1.417978381E+01  2.045039174E+01  2.492121168E+01  5.000000000E-01  0.00000E+00  9.000E+00
      21     1     1     2   512   513 -4.871779964E+00 -1.238794262E+00  1.704849427E+01  1.777413875E+01  0.000000000E+00  0.00000E+00  9.000E+00
</event>
<event>
      5  10001  3.52971E+09  6.05771E+00 -1.00000E+00  2.24822E-01
      21    -1     0     0   512   515  0.000000000E+00  0.000000000E+00  5.958288718E+01  5.958288718E+01  0.000000000E+00  0.00000E+00  9.000E+00
      -3    -1     0     0     0   513  0.000000000E+00  0.000000000E+00 -7.487138170E+00  7.487138170E+00  0.000000000E+00  0.00000E+00  9.000E+00
      -3     1     1     2     0   511 -2.718471921E+00  1.040732839E+01  5.397880013E-01  1.078164852E+01  5.000000000E-01  0.00000E+00  9.000E+00
      21     1     1     2   512   513 -1.577418244E+00 -1.118809610E+01  5.056379807E+01  5.181080407E+01  9.536743164E-07  0.00000E+00  9.000E+00
      21     1     1     2   511   515  4.295890165E+00  7.807677061E-01  9.921629383E-01  4.477572759E+00  1.228781231E-07  0.00000E+00  9.000E+00
</event>
<event>
      5  10001  3.52971E+09  4.60568E+00 -1.00000E+00  2.49822E-01
      21    -1     0     0   512   516  0.000000000E+00  0.000000000E+00  4.649170730E+01  4.649170730E+01  0.000000000E+00  0.00000E+00  9.000E+00
      21    -1     0     0   511   515  0.000000000E+00  0.000000000E+00 -1.478360468E+02  1.478360468E+02  0.000000000E+00  0.00000E+00  9.000E+00
      21     1     1     2   514   515 -1.022686067E+01 -8.467884759E+00 -1.422522262E+02  1.428705344E+02  3.303624740E-06  0.00000E+00  9.000E+00
      21     1     1     2   511   516  6.062724926E+00  1.043568613E+01  1.946955024E+00  1.222500766E+01  1.645887050E-07  0.00000E+00  9.000E+00
      21     1     1     2   512   514  4.164135744E+00 -1.967801371E+00  3.896093163E+01  3.923221205E+01  6.743495762E-07  0.00000E+00  9.000E+00
</event>
<event>
      5  10001  3.52971E+09  2.65464E+00 -1.00000E+00  3.13963E-01
      21    -1     0     0   513   515  0.000000000E+00  0.000000000E+00  2.868446128E+02  2.868446128E+02  0.000000000E+00  0.00000E+00  9.000E+00
      21    -1     0     0   517   514  0.000000000E+00  0.000000000E+00 -1.530089038E+01  1.530089038E+01  0.000000000E+00  0.00000E+00  9.000E+00
      21     1     1     2   513   514  8.050284145E+00  3.973623921E+00 -1.364019152E+01  1.632946988E+01  5.840038640E-07  0.00000E+00  9.000E+00
      21     1     1     2   517   511 -1.070263006E+01 -4.083929776E+00  1.068399796E+02  1.074523430E+02  1.348699152E-06  0.00000E+00  9.000E+00
      21     1     1     2   511   515  2.652345914E+00  1.103058548E-01  1.783439344E+02  1.783636903E+02  3.303624740E-06  0.00000E+00  9.000E+00
</event>
<event>
      5  10001  3.52971E+09  8.13686E+00 -1.00000E+00  2.06707E-01
      21    -1     0     0   512   514  0.000000000E+00  0.000000000E+00  4.070434906E+02  4.070434906E+02  0.000000000E+00  0.00000E+00  9.000E+00
      21    -1     0     0   513   515  0.000000000E+00  0.000000000E+00 -1.806623997E+01  1.806623997E+01  0.000000000E+00  0.00000E+00  9.000E+00
      21     1     1     2   512   515 -2.449445919E+01 -7.662192826E+00  3.859033266E+02  3.867558212E+02  9.344061824E-06  0.00000E+00  9.000E+00
      21     1     1     2   516   514  1.887501276E+01  1.777441999E+00  1.482081769E+01  2.406412358E+01  5.057621821E-07  0.00000E+00  9.000E+00
      21     1     1     2   513   516  5.619446426E+00  5.884750827E+00 -1.174689361E+01  1.428978586E+01  7.152557373E-07  0.00000E+00  9.000E+00
</event>
<event>
      5  10001  3.52971E+09  5.16074E+00 -1.00000E+00  2.36133E-01
      21    -1     0     0   511   515  0.000000000E+00  0.000000000E+00  1.540578540E+02  1.540578540E+02  0.000000000E+00  0.00000E+00  9.000E+00
      21    -1     0     0   513   517  0.000000000E+00  0.000000000E+00 -5.049047244E+00  5.049047244E+00  0.000000000E+00  0.00000E+00  9.000E+00
      21     1     1     2   511   517 -1.112054642E+01 -7.096344852E-01  1.417352851E+02  1.421726457E+02  1.907348633E-06  0.00000E+00  9.000E+00
      21     1     1     2   513   512  6.538407825E+00 -1.680110391E+00 -1.346506811E+00  6.883794623E+00  2.351363575E-07  0.00000E+00  9.000E+00
      21     1     1     2   512   515  4.582138591E+00  2.389744876E+00  8.620028484E+00  1.005046097E+01  0.000000000E+00  0.00000E+00  9.000E+00
</event>
<event>
      5  10001  3.52971E+09  4.16894E+00 -1.00000E+00  2.59299E-01
       2    -1     0     0   513     0  0.000000000E+00  0.000000000E+00  9.525482641E+02  9.525482641E+02  0.000000000E+00  0.00000E+00  9.000E+00
      21    -1     0     0   512   514  0.000000000E+00  0.000000000E+00 -1.812438333E+01  1.812438333E+01  0.000000000E+00  0.00000E+00  9.000E+00
      21     1     1     2   513   514 -8.759009637E+00 -5.952126075E+00 -1.653006336E+01  1.963137920E+01  2.419684306E-06  0.00000E+00  9.000E+00
       2     1     1     2   511     0  6.122587228E+00  1.399901590E+00  7.197855471E+02  7.198130233E+02  3.300000131E-01  0.00000E+00  9.000E+00
      21     1     1     2   512   511  2.636422409E+00  4.552224485E+00  2.311683970E+02  2.312282449E+02  2.697398305E-06  0.00000E+00  9.000E+00
</event>
<event>
      5  10001  3.52971E+09  4.38756E+00 -1.00000E+00  2.54344E-01
      21    -1     0     0   515   511  0.000000000E+00  0.000000000E+00  2.673190436E+01  2.673190436E+01  0.000000000E+00  0.00000E+00  9.000E+00
      21    -1     0     0   512   515  0.000000000E+00  0.000000000E+00 -8.286254205E+01  8.286254205E+01  0.000000000E+00  0.00000E+00  9.000E+00
      21     1     1     2   512   516  8.703283731E-01 -1.328330540E+01 -8.031879511E+01  8.141444909E+01  0.000000000E+00  0.00000E+00  9.000E+00
       2     1     1     2   516     0 -1.532201969E+00  5.823392787E+00  1.589634350E+01  1.700182882E+01  3.300000131E-01  0.00000E+00  9.000E+00
      -2     1     1     2     0   511  6.618735957E-01  7.459912608E+00  8.291813925E+00  1.117816850E+01  3.300000131E-01  0.00000E+00  9.000E+00
</event>
<event>
      5  10001  3.52971E+09  3.52276E+00 -1.00000E+00  2.77178E-01
       1    -1     0     0   515     0  0.000000000E+00  0.000000000E+00  2.455875204E+02  2.455875204E+02  0.000000000E+00  0.00000E+00  9.000E+00
      21    -1     0     0   512   514  0.000000000E+00  0.000000000E+00 -1.707871059E+01  1.707871059E+01  0.000000000E+00  0.00000E+00  9.000E+00
      21     1     1     2   515   514  9.956894416E+00 -1.536247581E+01 -9.588179083E+00  2.066587979E+01  1.289445618E-06  0.00000E+00  9.000E+00
       1     1     1     2   513     0 -1.255901764E+01  1.298790316E+01  2.377775376E+02  2.384631645E+02  3.300000131E-01  0.00000E+00  9.000E+00
      21     1     1     2   512   513  2.602123227E+00  2.374572642E+00  3.194513165E-01  3.537186688E+00  7.760773098E-08  0.00000E+00  9.000E+00
</event>
<event>
      5  10001  3.52971E+09  2.31019E+00 -1.00000E+00  3.36157E-01
      -3    -1     0     0     0   511  0.000000000E+00  0.000000000E+00  1.381988838E+02  1.381988838E+02  0.000000000E+00  0.00000E+00  9.000E+00
      21    -1     0     0   515   514  0.000000000E+00  0.000000000E+00 -1.435802569E+00  1.435802569E+00  0.000000000E+00  0.00000E+00  9.000E+00
      -3     1     1     2     0   513 -1.170884679E+01  4.084333035E+00  5.910053802E+01  6.038958904E+01  5.000000000E-01  0.00000E+00  9.000E+00
      21     1     1     2   515   511  9.532549939E+00 -3.311735555E+00  7.518088200E+01  7.585513905E+01  1.651812370E-06  0.00000E+00  9.000E+00
      21     1     1     2   513   514  2.176296846E+00 -7.725974800E-01  2.481661185E+00  3.389958269E+00  1.264405455E-07  0.00000E+00  9.000E+00
</event>
<event>
      5  10001  3.52971E+09  7.20012E+00 -1.00000E+00  2.13832E-01
      21    -1     0     0   511   514  0.000000000E+00  0.000000000E+00  3.068637502E+02  3.068637502E+02  0.000000000E+00  0.00000E+00  9.000E+00
      21    -1     0     0   513   516  0.000000000E+00  0.000000000E+00 -1.708208302E+00  1.708208302E+00  0.000000000E+00  0.00000E+00  9.000E+00
      21     1     1     2   512   516 -1.461181211E+00  8.801013962E+00  3.099653658E+01  3.225489385E+01  4.768371582E-07  0.00000E+00  9.000E+00
      21     1     1     2   513   514 -3.172306148E+00 -1.431214163E+01  5.160925484E+01  5.365087241E+01  6.743495762E-07  0.00000E+00  9.000E+00
      21     1     1     2   511   512  4.633487359E+00  5.511127667E+00  2.225497505E+02  2.226661922E+02  0.000000000E+00  0.00000E+00  9.000E+00
</event>
<event>
      5  10001  3.52971E+09  1.18409E+01 -1.00000E+00  1.87636E-01
      21    -1     0     0   515   513  0.000000000E+00  0.000000000E+00  1.269475498E+01  1.269475498E+01  0.000000000E+00  0.00000E+00  9.000E+00
      21    -1     0     0   517   514  0.000000000E+00  0.000000000E+00 -2.606403817E+02  2.606403817E+02  0.000000000E+00  0.00000E+00  9.000E+00
      21     1     1     2   515   512 -1.142884378E+01  1.242176780E+01 -1.691667642E+01  2.389754646E+01  3.371747881E-07  0.00000E+00  9.000E+00
      21     1     1     2   517   513 -2.500734331E-01 -1.437336957E+01  3.349193872E+00  1.476053485E+01  1.737759082E-07  0.00000E+00  9.000E+00
      21     1     1     2   512   514  1.167891722E+01  1.951601761E+00 -2.343781441E+02  2.346770553E+02  2.697398305E-06  0.00000E+00  9.000E+00
</event>
<event>
      5  10001  3.52971E+09  1.30757E+01 -1.00000E+00  1.83188E-01
      21    -1     0     0   512   513  0.000000000E+00  0.000000000E+00  6.085523972E-01  6.085523972E-01  0.000000000E+00  0.00000E+00  9.000E+00
       2    -1     0     0   513     0  0.000000000E+00  0.000000000E+00 -9.559443339E+02  9.559443339E+02  0.000000000E+00  0.00000E+00  9.000E+00
      21     1     1     2   512   511  5.405143244E+00 -6.897204592E+00 -3.774042163E+01  3.874437288E+01  2.477718555E-06  0.00000E+00  9.000E+00
       2     1     1     2   515     0 -6.432174520E+00 -2.340821710E+00 -6.755381850E+02  6.755729425E+02  3.300000131E-01  0.00000E+00  9.000E+00
      21     1     1     2   511   515  1.027031275E+00  9.238026301E+00 -2.420571748E+02  2.422355709E+02  4.672030912E-06  0.00000E+00  9.000E+00
</event>
<event>
      5  10001  3.52971E+09  9.43080E+00 -1.00000E+00  1.98741E-01
      21    -1     0     0   514   516  0.000000000E+00  0.000000000E+00  4.513512017E+01  4.513512017E+01  0.000000000E+00  0.00000E+00  9.000E+00
      21    -1     0     0   513   514  0.000000000E+00  0.000000000E+00 -5.657058969E+01  5.657058969E+01  0.000000000E+00  0.00000E+00  9.000E+00
      21     1     1     2   515   516  5.651585402E+00  8.402272039E+00  4.383218451E+01  4.498665349E+01  1.066240300E-06  0.00000E+00  9.000E+00
      21     1     1     2   512   515 -2.350147482E+00 -7.105935720E+00 -2.149698595E+01  2.276264309E+01  3.371747881E-07  0.00000E+00  9.000E+00
      21     1     1     2   513   512 -3.301437920E+00 -1.296336319E+00 -3.377066809E+01  3.395641328E+01  0.000000000E+00  0.00000E+00  9.000E+00
</event>
<event>
      5  10001  3.52971E+09  6.65716E+00 -1.00000E+00  2.18677E-01
      21    -1     0     0   514   515  0.000000000E+00  0.000000000E+00  4.538823596E+00  4.538823596E+00  0.000000000E+00  0.00000E+00  9.000E+00
      21    -1     0     0   513   511  0.000000000E+00  0.000000000E+00 -1.768201928E+03  1.768201928E+03  0.000000000E+00  0.00000E+00  9.000E+00
      21     1     1     2   512   515  1.238648785E+01 -5.771402293E+00 -7.676056459E+01  7.796741910E+01  4.473129043E-06  0.00000E+00  9.000E+00
      21     1     1     2   513   512 -1.902773683E+01  5.311362705E+00 -1.687922835E+03  1.688038436E+03  0.000000000E+00  0.00000E+00  9.000E+00
      21     1     1     2   514   511  6.641248980E+00  4.600395885E-01  1.020295230E+00  6.734896198E+00  1.300675918E-06  0.00000E+00  9.000E+00
</event>
<event>
      5  10001  3.52971E+09  1.43822E+01 -1.00000E+00  1.79118E-01
      -1    -1     0     0     0   516  0.000000000E+00  0.000000000E+00  1.360854220E+02  1.360854220E+02  0.000000000E+00  0.00000E+00  9.000E+00
      21    -1     0     0   512   511  0.000000000E+00  0.000000000E+00 -1.495981744E+00  1.495981744E+00  0.000000000E+00  0.00000E+00  9.000E+00
      21     1     1     2   513   511  9.435355163E-01  5.004337393E+00  1.832701126E+01  1.902138254E+01  5.331201500E-07  0.00000E+00  9.000E+00
      21     1     1     2   512   516 -3.117497392E+00 -8.515479975E+00  1.749292013E+01  1.970366575E+01  4.768371582E-07  0.00000E+00  9.000E+00
      -1     1     1     2     0   513  2.173961876E+00  3.511142582E+00  9.876950889E+01  9.885635548E+01  3.300000131E-01  0.00000E+00  9.000E+00
</event>
<event>
      5  10001  3.52971E+09  1.62413E+01 -1.00000E+00  1.74188E-01
      21    -1     0     0   514   511  0.000000000E+00  0.000000000E+00  2.689643631E+02  2.689643631E+02  0.000000000E+00  0.00000E+00  9.000E+00
      21    -1     0     0   515   513  0.000000000E+00  0.000000000E+00 -2.352637565E+00  2.352637565E+00  0.000000000E+00  0.00000E+00  9.000E+00
      21     1     1     2   514   513 -7.209399930E+00 -7.617220562E+00  1.758288186E+02  1.761413380E+02  3.303624740E-06  0.00000E+00  9.000E+00
      21     1     1     2   512   511  9.048495920E+00  2.313149437E+00  8.278143538E+00  1.248012817E+01  5.196212463E-07  0.00000E+00  9.000E+00
      21     1     1     2   515   512 -1.839095990E+00  5.304071125E+00  8.250476342E+01  8.269553453E+01  1.651812370E-06  0.00000E+00  9.000E+00
</event>
<event>
      5  10001  3.52971E+09  5.44884E+00 -1.00000E+00  2.32167E-01
      21    -1     0     0   516   511  0.000000000E+00  0.000000000E+00  1.080400020E+02  1.080400020E+02  0.000000000E+00  0.00000E+00  9.000E+00
      21    -1     0     0   515   516  0.000000000E+00  0.000000000E+00 -1.800820044E+00  1.800820044E+00  0.000000000E+00  0.00000E+00  9.000E+00
      21     1     1     2   512   511  1.062511304E+01  4.252464966E+00  8.152186730E+01  8.232126902E+01  9.536743164E-07  0.00000E+00  9.000E+00
      21     1     1     2   513   512 -2.956477328E+00 -3.154760337E+00  9.773737578E+00  1.068733911E+01  2.064765462E-07  0.00000E+00  9.000E+00
      21     1     1     2   515   513 -7.668635714E+00 -1.097704629E+00  1.494357704E+01  1.683221388E+01  2.920019320E-07  0.00000E+00  9.000E+00
</event>
<event>
      5  10001  3.52971E+09  7.59445E+00 -1.00000E+00  2.10664E-01
      21    -1     0     0   514   512  0.000000000E+00  0.000000000E+00  1.013638115E+02  1.013638115E+02  0.000000000E+00  0.00000E+00  9.000E+00
      21    -1     0     0   515   514  0.000000000E+00  0.000000000E+00 -8.539405847E+00  8.539405847E+00  0.000000000E+00  0.00000E+00  9.000E+00
      21     1     1     2   513   512 -3.071438118E+00  9.919508308E+00  8.996593721E+01  9.056323887E+01  1.348699152E-06  0.00000E+00  9.000E+00
      21     1     1     2   515   511  5.309106088E+00 -4.604098280E+00 -5.680290206E+00  9.036040352E+00  2.230201594E-07  0.00000E+00  9.000E+00
      21     1     1     2   511   513 -2.237667970E+00 -5.315410027E+00  8.538758690E+00  1.030393816E+01  1.192092896E-07  0.00000E+00  9.000E+00
</event>
<event>
      5  10001  3.52971E+09  7.88945E+00 -1.00000E+00  2.08459E-01
      21    -1     0     0   513   515  0.000000000E+00  0.000000000E+00  4.453750711E+00  4.453750711E+00  0.000000000E+00  0.00000E+00  9.000E+00
      21    -1     0     0   511   513  0.000000000E+00  0.000000000E+00 -4.930753009E+01  4.930753009E+01  0.000000000E+00  0.00000E+00  9.000E+00
      -2     1     1     2     0   512  4.484902410E+00  1.149256267E+00  1.404186311E+00  4.849307043E+00  3.300000131E-01  0.00000E+00  9.000E+00
       2     1     1     2   511     0 -9.248988093E+00  2.039537278E+00 -3.523688744E+01  3.648904808E+01  3.300000131E-01  0.00000E+00  9.000E+00
      21     1     1     2   512   515  4.764085683E+00 -3.188793545E+00 -1.102107824E+01  1.242292568E+01  1.685873940E-07  0.00000E+00  9.000E+00
</event>
<event>
      5  10001  3.52971E+09  5.42431E+00 -1.00000E+00  2.32491E-01
      21    -1     0     0   516   511  0.000000000E+00  0.000000000E+00  2.325751927E+01  2.325751927E+01  0.000000000E+00  0.00000E+00  9.000E+00
      21    -1     0     0   513   514  0.000000000E+00  0.000000000E+00 -2.403984670E+02  2.403984670E+02  0.000000000E+00  0.00000E+00  9.000E+00
      -4     1     1     2     0   511 -1.214442427E+01  9.443873034E+00 -5.064727636E+01  5.295347374E+01  1.500000000E+00  0.00000E+00  9.000E+00
      21     1     1     2   516   514  1.023832573E+01 -1.451929344E+01  1.848494900E+01  2.563838013E+01  6.307962682E-07  0.00000E+00  9.000E+00
       4     1     1     2   513     0  1.906098543E+00  5.075420405E+00 -1.849786203E+02  1.850641324E+02  1.500000000E+00  0.00000E+00  9.000E+00
</event>
<event>
      5  10001  3.52971E+09  5.39089E+00 -1.00000E+00  2.32936E-01
      21    -1     0     0   512   514  0.000000000E+00  0.000000000E+00  1.203464660E+03  1.203464660E+03  0.000000000E+00  0.00000E+00  9.000E+00
       5    -1     0     0   511     0  0.000000000E+00  0.000000000E+00 -1.602964550E+00  1.602964550E+00  0.000000000E+00  0.00000E+00  9.000E+00
      21     1     1     2   511   513 -1.517914129E+01 -1.777640121E+00  8.651698401E+01  8.785644459E+01  1.651812370E-06  0.00000E+00  9.000E+00
       5     1     1     2   512     0  9.826067291E+00  1.434208601E+00  3.189479765E+01  3.374798767E+01  4.800000191E+00  0.00000E+00  9.000E+00
      21     1     1     2   513   514  5.353074002E+00  3.434315197E-01  1.083449914E+03  1.083463193E+03  1.525878906E-05  0.00000E+00  9.000E+00
</event>
<event>
      5  10001  3.52971E+09  3.28864E+00 -1.00000E+00  2.85255E-01
      21    -1     0     0   515   514  0.000000000E+00  0.000000000E+00  1.079338631E+03  1.079338631E+03  0.000000000E+00  0.00000E+00  9.000E+00
      21    -1     0     0   512   511  0.000000000E+00  0.000000000E+00 -4.639182296E-01  4.639182296E-01  0.000000000E+00  0.00000E+00  9.000E+00
      21     1     1     2   512   514 -9.801965989E+00 -9.609748494E+00  7.288071765E+02  7.289364351E+02  1.078959322E-05  0.00000E+00  9.000E+00
       3     1     1     2   515     0  6.546226839E+00  1.006379970E+01  3.409420403E+02  3.411537161E+02  5.000000000E-01  0.00000E+00  9.000E+00
      -3     1     1     2     0   511  3.255739150E+00 -4.540512035E-01  9.125495497E+00  9.712397643E+00  5.000000000E-01  0.00000E+00  9.000E+00
</event>
<event>
      5  10001  3.52971E+09  7.79731E+00 -1.00000E+00  2.09133E-01
      -1    -1     0     0     0   513  0.000000000E+00  0.000000000E+00  2.458807099E+00  2.458807099E+00  0.000000000E+00  0.00000E+00  9.000E+00
      21    -1     0     0   516   512  0.000000000E+00  0.000000000E+00 -8.694099410E+02  8.694099410E+02  0.000000000E+00  0.00000E+00  9.000E+00
      -1     1     1     2     0   511  1.323185689E+01 -1.694471610E+01 -5.490307838E+01  5.896322885E+01  3.300000131E-01  0.00000E+00  9.000E+00
      21     1     1     2   516   513 -2.044008577E+01  1.991754816E+01 -7.029949474E+02  7.035740202E+02  1.078959322E-05  0.00000E+00  9.000E+00
      21     1     1     2   511   512  7.208228872E+00 -2.972832058E+00 -1.090531081E+02  1.093314990E+02  1.348699152E-06  0.00000E+00  9.000E+00
</event>
<event>
      5  10001  3.52971E+09  3.66041E+00 -1.00000E+00  2.72883E-01
      21    -1     0     0   514   513  0.000000000E+00  0.000000000E+00  5.176223936E-01  5.176223936E-01  0.000000000E+00  0.00000E+00  9.000E+00
       2    -1     0     0   511     0  0.000000000E+00  0.000000000E+00 -4.157168111E+02  4.157168111E+02  0.000000000E+00  0.00000E+00  9.000E+00
      21     1     1     2   515   513 -4.024054312E+00  5.717239212E-01 -1.673591862E+01  1.722239395E+01  6.743495762E-07  0.00000E+00  9.000E+00
       2     1     1     2   514     0  9.451341992E+00 -3.649525911E+00 -3.502598783E+02  3.504065327E+02  3.300000131E-01  0.00000E+00  9.000E+00
      21     1     1     2   511   515 -5.427287680E+00  3.077801990E+00 -4.820339170E+01  4.860550676E+01  0.000000000E+00  0.00000E+00  9.000E+00
</event>
<event>
      5  10001  3.52971E+09  7.13564E+00 -1.00000E+00  2.14377E-01
      21    -1     0     0   512   513  0.000000000E+00  0.000000000E+00  4.311815993E+01  4.311815993E+01  0.000000000E+00  0.00000E+00  9.000E+00
      21    -1     0     0   511   514  0.000000000E+00  0.000000000E+00 -2.488868250E+01  2.488868250E+01  0.000000000E+00  0.00000E+00  9.000E+00
      21     1     1     2   512   515  1.339721158E+01  9.794413229E+00  2.793895837E+01  3.249617213E+01  6.743495762E-07  0.00000E+00  9.000E+00
      21     1     1     2   511   513 -1.075662181E+01 -1.642349074E+01  4.017910246E+00  2.003945018E+01  4.256623047E-07  0.00000E+00  9.000E+00
      21     1     1     2   515   514 -2.640589765E+00  6.629077511E+00 -1.372739118E+01  1.547122011E+01  3.371747881E-07  0.00000E+00  9.000E+00
</event>
<event>
      5  10001  3.52971E+09  1.94290E+01 -1.00000E+00  1.67410E-01
      21    -1     0     0   516   511  0.000000000E+00  0.000000000E+00  9.379633025E+02  9.379633025E+02  0.000000000E+00  0.00000E+00  9.000E+00
      21    -1     0     0   517   516  0.000000000E+00  0.000000000E+00 -3.105764085E+00  3.105764085E+00  0.000000000E+00  0.00000E+00  9.000E+00
      21     1     1     2   517   514 -2.251615158E+00 -1.128140576E+01  9.213046290E+00  1.473838894E+01  4.298152060E-07  0.00000E+00  9.000E+00
      21     1     1     2   512   511 -8.295081781E+00  1.628508030E+00  7.661559237E+02  7.662025579E+02  0.000000000E+00  0.00000E+00  9.000E+00
      21     1     1     2   514   512  1.054669694E+01  9.652897729E+00  1.594885684E+02  1.601281197E+02  0.000000000E+00  0.00000E+00  9.000E+00
</event>
<event>
      5  10001  3.52971E+09  6.94350E+00 -1.00000E+00  2.16047E-01
      21    -1     0     0   513   512  0.000000000E+00  0.000000000E+00  2.093961664E+00  2.093961664E+00  0.000000000E+00  0.00000E+00  9.000E+00
      21    -1     0     0   514   515  0.000000000E+00  0.000000000E+00 -1.927343564E+02  1.927343564E+02  0.000000000E+00  0.00000E+00  9.000E+00
      21     1     1     2   513   515 -4.086466348E-01  1.255941315E+01 -2.136765896E+01  2.478876157E+01  2.384185791E-07  0.00000E+00  9.000E+00
      21     1     1     2   514   511  4.379603642E+00 -7.522034159E+00 -1.252370589E+02  1.255391686E+02  1.348699152E-06  0.00000E+00  9.000E+00
      21     1     1     2   511   512 -3.970957008E+00 -5.037378990E+00 -4.403567687E+01  4.450038791E+01  8.259061849E-07  0.00000E+00  9.000E+00
</event>
<event>
      5  10001  3.52971E+09  9.21711E+00 -1.00000E+00  1.99936E-01
      -2    -1     0     0     0   512  0.000000000E+00  0.000000000E+00  7.287272544E+01  7.287272544E+01  0.000000000E+00  0.00000E+00  9.000E+00
      21    -1     0     0   512   513  0.000000000E+00  0.000000000E+00 -3.148775404E+00  3.148775404E+00  0.000000000E+00  0.00000E+00  9.000E+00
      -2     1     1     2     0   511  3.574330636E+00  9.395324587E+00  4.326886360E+01  4.442242025E+01  3.300000131E-01  0.00000E+00  9.000E+00
      21     1     1     2   511   514 -6.910828817E+00 -1.065463493E+01  2.433707703E+01  2.745130450E+01  0.000000000E+00  0.00000E+00  9.000E+00
      21     1     1     2   514   513  3.336498181E+00  1.259310345E+00  2.118009403E+00  4.147776090E+00  2.980232239E-08  0.00000E+00  9.000E+00
</event>
<event>
      5  10001  3.52971E+09  1.11728E+01 -1.00000E+00  1.90345E-01
      21    -1     0     0   515   514  0.000000000E+00  0.000000000E+00  3.373015749E+01  3.373015749E+01  0.000000000E+00  0.00000E+00  9.000E+00
      21    -1     0     0   512   515  0.000000000E+00  0.000000000E+00 -2.028869552E+02  2.028869552E+02  0.000000000E+00  0.00000E+00  9.000E+00
      21     1     1     2   513   514 -4.642820794E+00  8.771151530E+00  3.144455907E+01  3.297346174E+01  1.390207266E-06  0.00000E+00  9.000E+00
      21     1     1     2   511   513  8.860215229E+00 -1.500247125E+00 -1.895305259E+02  1.897434437E+02  0.000000000E+00  0.00000E+00  9.000E+00
      21     1     1     2   512   511 -4.217394435E+00 -7.270904405E+00 -1.107083080E+01  1.390020724E+01  0.000000000E+00  0.00000E+00  9.000E+00
</event>
<event>
      5  10001  3.52971E+09  1.56002E+01 -1.00000E+00  1.75790E-01
      21    -1     0     0   516   511  0.000000000E+00  0.000000000E+00  3.522475258E+01  3.522475258E+01  0.000000000E+00  0.00000E+00  9.000E+00
      21    -1     0     0   512   513  0.000000000E+00  0.000000000E+00 -6.939173240E+01  6.939173240E+01  0.000000000E+00  0.00000E+00  9.000E+00
      21     1     1     2   512   517 -1.495542976E+01 -7.118071027E+00 -1.275375353E+01  2.090430682E+01  3.371747881E-07  0.00000E+00  9.000E+00
      21     1     1     2   517   511  6.009090315E+00 -5.661903245E+00  2.941087958E+01  3.054776837E+01  0.000000000E+00  0.00000E+00  9.000E+00
      21     1     1     2   516   513  8.946339441E+00  1.277997427E+01 -5.082410587E+01  5.316440980E+01  0.000000000E+00  0.00000E+00  9.000E+00
</event>
<event>
      5  10001  3.52971E+09  9.19103E+01 -1.00000E+00  1.25497E-01
      21    -1     0     0   514   511  0.000000000E+00  0.000000000E+00  1.006930380E+02  1.006930380E+02  0.000000000E+00  0.00000E+00  9.000E+00
       4    -1     0     0   515     0  0.000000000E+00  0.000000000E+00 -4.777120485E+01  4.777120485E+01  0.000000000E+00  0.00000E+00  9.000E+00
      21     1     1     2   515   511 -2.252008835E+01 -6.607392094E+00  6.528626753E+01  6.937657196E+01  9.536743164E-07  0.00000E+00  9.000E+00
      21     1     1     2   514   512 -2.562749069E+01  1.376828216E+01 -8.114485479E+00  3.020229705E+01  6.078504936E-07  0.00000E+00  9.000E+00
       4     1     1     2   512     0  4.814757904E+01 -7.160890066E+00 -4.249948858E+00  4.888537388E+01  1.500000000E+00  0.00000E+00  9.000E+00
</event>
<event>
      5  10001  3.52971E+09  6.63493E+00 -1.00000E+00  2.18889E-01
      21    -1     0     0   513   512  0.000000000E+00  0.000000000E+00  1.835869822E+00  1.835869822E+00  0.000000000E+00  0.00000E+00  9.000E+00
      21    -1     0     0   516   511  0.000000000E+00  0.000000000E+00 -1.488718669E+02  1.488718669E+02  0.000000000E+00  0.00000E+00  9.000E+00
      21     1     1     2   517   512 -1.224578996E+01 -3.665777122E+00 -3.882480208E+01  4.087496239E+01  8.259061849E-07  0.00000E+00  9.000E+00
      21     1     1     2   516   517  6.387505306E+00  6.780698762E+00 -3.186293607E+01  3.319675880E+01  9.536743164E-07  0.00000E+00  9.000E+00
      21     1     1     2   513   511  5.858284653E+00 -3.114921640E+00 -7.634825895E+01  7.663601556E+01  9.536743164E-07  0.00000E+00  9.000E+00
</event>
<event>
      5  10001  3.52971E+09  6.91522E+00 -1.00000E+00  2.16299E-01
       1    -1     0     0   514     0  0.000000000E+00  0.000000000E+00  4.770788346E+00  4.770788346E+00  0.000000000E+00  0.00000E+00  9.000E+00
      21    -1     0     0   513   511  0.000000000E+00  0.000000000E+00 -1.931489054E+02  1.931489054E+02  0.000000000E+00  0.00000E+00  9.000E+00
      21     1     1     2   514   512 -8.440395094E+00  9.184656421E+00 -1.465163584E+02  1.470463922E+02  1.907348633E-06  0.00000E+00  9.000E+00
       1     1     1     2   513     0  1.531017300E+01 -9.726957178E+00 -1.626593541E+01  2.436605524E+01  3.300000131E-01  0.00000E+00  9.000E+00
      21     1     1     2   512   511 -6.869777906E+00  5.423007568E-01 -2.559582323E+01  2.650724629E+01  5.840038640E-07  0.00000E+00  9.000E+00
</event>
<event>
      5  10001  3.52971E+09  7.19804E+00 -1.00000E+00  2.13850E-01
      21    -1     0     0   515   513  0.000000000E+00  0.000000000E+00  1.372299281E+01  1.372299281E+01  0.000000000E+00  0.00000E+00  9.000E+00
      21    -1     0     0   512   516  0.000000000E+00  0.000000000E+00 -3.194677630E+01  3.194677630E+01  0.000000000E+00  0.00000E+00  9.000E+00
      21     1     1     2   515   516 -8.377077198E+00 -8.571175212E-01  7.382582309E+00  1.119877647E+01  1.685873940E-07  0.00000E+00  9.000E+00
      21     1     1     2   512   511  1.191148754E+01 -5.413422695E+00 -2.362358389E+01  2.700485876E+01  0.000000000E+00  0.00000E+00  9.000E+00
      21     1     1     2   511   513 -3.534410341E+00  6.270540217E+00 -1.982781914E+00  7.466133885E+00  1.228781231E-07  0.00000E+00  9.000E+00
</event>
<event>
      5  10001  3.52971E+09  2.90767E+00 -1.00000E+00  3.01038E-01
      21    -1     0     0   514   511  0.000000000E+00  0.000000000E+00  2.897955576E-01  2.897955576E-01  0.000000000E+00  0.00000E+00  9.000E+00
      21    -1     0     0   513   514  0.000000000E+00  0.000000000E+00 -1.663603261E+03  1.663603261E+03  0.000000000E+00  0.00000E+00  9.000E+00
      21     1     1     2   512   511 -7.831713902E-01  9.458310014E+00 -8.638725990E+01  8.690702883E+01  3.438521648E-06  0.00000E+00  9.000E+00
      21     1     1     2   515   512  2.466463931E+00 -9.018406579E+00 -1.528474196E+03  1.528502792E+03  2.157918644E-05  0.00000E+00  9.000E+00
      21     1     1     2   513   515 -1.683292541E+00 -4.399034349E-01 -4.845200959E+01  4.848323651E+01  0.000000000E+00  0.00000E+00  9.000E+00
</event>
<event>
      5  10001  3.52971E+09  1.09139E+01 -1.00000E+00  1.91462E-01
       2    -1     0     0   513     0  0.000000000E+00  0.000000000E+00  2.494299910E+02  2.494299910E+02  0.000000000E+00  0.00000E+00  9.000E+00
      21    -1     0     0   516   514  0.000000000E+00  0.000000000E+00 -4.188269356E+00  4.188269356E+00  0.000000000E+00  0.00000E+00  9.000E+00
      21     1     1     2   513   514 -1.026877404E+01  1.310814486E+01  1.692480242E+01  2.374279088E+01  8.596304120E-07  0.00000E+00  9.000E+00
       2     1     1     2   511     0  7.185876890E+00 -6.615735963E+00  2.095745661E+02  2.098023175E+02  3.300000131E-01  0.00000E+00  9.000E+00
      21     1     1     2   516   511  3.082897152E+00 -6.492408893E+00  1.874235317E+01  2.007315198E+01  3.371747881E-07  0.00000E+00  9.000E+00
</event>
<event>
      5  10001  3.52971E+09  8.47235E+00 -1.00000E+00  2.04460E-01
      21    -1     0     0   512   511  0.000000000E+00  0.000000000E+00  1.868938233E+02  1.868938233E+02  0.000000000E+00  0.00000E+00  9.000E+00
      21    -1     0     0   516   515  0.000000000E+00  0.000000000E+00 -5.369120011E+00  5.369120011E+00  0.000000000E+00  0.00000E+00  9.000E+00
      21     1     1     2   512   515 -1.092843615E+01 -1.372566325E+00  1.048902919E+00  1.106412457E+01  2.775778772E-07  0.00000E+00  9.000E+00
      21     1     1     2   516   513  4.483758916E+00  5.515794312E+00  1.242830580E+02  1.244861703E+02  1.907348633E-06  0.00000E+00  9.000E+00
      21     1     1     2   513   511  6.444677238E+00 -4.143227987E+00  5.619274235E+01  5.671264847E+01  0.000000000E+00  0.00000E+00  9.000E+00
</event>
<event>
      5  10001  3.52971E+09  5.15562E+00 -1.00000E+00  2.36207E-01
      21    -1     0     0   513   511  0.000000000E+00  0.000000000E+00  1.844895222E+02  1.844895222E+02  0.000000000E+00  0.00000E+00  9.000E+00
      -4    -1     0     0     0   514  0.000000000E+00  0.000000000E+00 -5.418535455E+00  5.418535455E+00  0.000000000E+00  0.00000E+00  9.000E+00
      -4     1     1     2     0   511 -1.274399346E+01  3.189230793E+00  3.497226691E+00  1.367703026E+01  1.500000000E+00  0.00000E+00  9.000E+00
      21     1     1     2   513   512  1.013389944E+01  1.076712470E+00  1.213010382E+02  1.217283742E+02  1.348699152E-06  0.00000E+00  9.000E+00
      21     1     1     2   512   514  2.610094015E+00 -4.265943263E+00  5.427272183E+01  5.450265312E+01  6.743495762E-07  0.00000E+00  9.000E+00
</event>
<event>
      5  10001  3.52971E+09  8.02091E+00 -1.00000E+00  2.07517E-01
       1    -1     0     0   515     0  0.000000000E+00  0.000000000E+00  3.395297641E+02  3.395297641E+02  0.000000000E+00  0.00000E+00  9.000E+00
      21    -1     0     0   511   516  0.000000000E+00  0.000000000E+00 -5.016932409E+00  5.016932409E+00  0.000000000E+00  0.00000E+00  9.000E+00
      21     1     1     2   515   516 -7.144323360E+00 -1.530755625E+01  1.143779939E+01  2.040063454E+01  1.685873940E-07  0.00000E+00  9.000E+00
      21     1     1     2   511   514  3.753302506E+00  8.038883840E+00  4.064668164E+01  4.160364961E+01  4.768371582E-07  0.00000E+00  9.000E+00
       1     1     1     2   514     0  3.391020854E+00  7.268672412E+00  2.824283507E+02  2.825424123E+02  3.300000131E-01  0.00000E+00  9.000E+00
</event>
<event>
      5  10001  3.52971E+09  5.90403E+00 -1.00000E+00  2.26559E-01
      21    -1     0     0   515   511  0.000000000E+00  0.000000000E+00  1.229799869E+01  1.229799869E+01  0.000000000E+00  0.00000E+00  9.000E+00
      21    -1     0     0   517   513  0.000000000E+00  0.000000000E+00 -6.094102286E+02  6.094102286E+02  0.000000000E+00  0.00000E+00  9.000E+00
      21     1     1     2   512   513 -1.269033093E+01 -7.552490209E+00 -4.189330437E+02  4.191932487E+02  0.000000000E+00  0.00000E+00  9.000E+00
      21     1     1     2   517   511  9.919100835E+00  2.339253037E+00 -1.894858217E+02  1.897596830E+02  2.697398305E-06  0.00000E+00  9.000E+00
      21     1     1     2   515   512  2.771230096E+00  5.213237172E+00  1.130663555E+01  1.275529559E+01  1.192092896E-07  0.00000E+00  9.000E+00
</event>
<event>
      5  10001  3.52971E+09  3.96755E+00 -1.00000E+00  2.64298E-01
      21    -1     0     0   514   513  0.000000000E+00  0.000000000E+00  3.133179932E+00  3.133179932E+00  0.000000000E+00  0.00000E+00  9.000E+00
      21    -1     0     0   516   512  0.000000000E+00  0.000000000E+00 -8.576171102E+01  8.576171102E+01  0.000000000E+00  0.00000E+00  9.000E+00
      21     1     1     2   514   512  7.571557939E+00 -1.099424339E+01 -6.543135219E+01  6.677921628E+01  0.000000000E+00  0.00000E+00  9.000E+00
      21     1     1     2   516   511 -5.158972322E+00  4.126935443E+00 -7.590286233E+00  1.006275493E+01  1.192092896E-07  0.00000E+00  9.000E+00
      21     1     1     2   511   513 -2.412585617E+00  6.867307948E+00 -9.606892665E+00  1.205291975E+01  0.000000000E+00  0.00000E+00  9.000E+00
</event>
<event>
      5  10001  3.52971E+09  7.34424E+00 -1.00000E+00  2.12643E-01
      21    -1     0     0   511   513  0.000000000E+00  0.000000000E+00  6.179766719E+01  6.179766719E+01  0.000000000E+00  0.00000E+00  9.000E+00
      -2    -1     0     0     0   515  0.000000000E+00  0.000000000E+00 -5.016540162E+00  5.016540162E+00  0.000000000E+00  0.00000E+00  9.000E+00
      -2     1     1     2     0   512  5.082618933E+00 -9.849800609E+00  2.066208353E+01  2.344956680E+01  3.300000131E-01  0.00000E+00  9.000E+00
      21     1     1     2   511   515 -8.144267563E+00  1.187182553E+01  1.137026248E+01  1.834535921E+01  4.129530925E-07  0.00000E+00  9.000E+00
      21     1     1     2   512   513  3.061648630E+00 -2.022024922E+00  2.474878103E+01  2.501928135E+01  3.371747881E-07  0.00000E+00  9.000E+00
</event>
<event>
      5  10001  3.52971E+09  1.02588E+01 -1.00000E+00  1.94479E-01
      21    -1     0     0   511   513  0.000000000E+00  0.000000000E+00  3.282642215E+02  3.282642215E+02  0.000000000E+00  0.00000E+00  9.000E+00
       1    -1     0     0   513     0  0.000000000E+00  0.000000000E+00 -1.595733484E+03  1.595733484E+03  0.000000000E+00  0.00000E+00  9.000E+00
      21     1     1     2   512   514 -1.764263332E+01 -4.181921233E+00  1.348333910E+02  1.360470297E+02  1.907348633E-06  0.00000E+00  9.000E+00
       1     1     1     2   514     0  7.773061176E+00  1.382915986E+00 -1.594980421E+03  1.594999995E+03  3.300000131E-01  0.00000E+00  9.000E+00
      21     1     1     2   511   512  9.869572140E+00  2.799005248E+00  1.926777677E+02  1.929506803E+02  4.672030912E-06  0.00000E+00  9.000E+00
</event>
<event>
      5  10001  3.52971E+09  2.20269E+00 -1.00000E+00  3.44563E-01
       4    -1     0     0   511     0  0.000000000E+00  0.000000000E+00  1.389578782E+01  1.389578782E+01  0.000000000E+00  0.00000E+00  9.000E+00
       3    -1     0     0   513     0  0.000000000E+00  0.000000000E+00 -1.478577296E+01  1.478577296E+01  0.000000000E+00  0.00000E+00  9.000E+00
       3     1     1     2   511     0  8.639197494E+00 -6.125798878E+00  3.464447196E+00  1.115408175E+01  5.000000000E-01  0.00000E+00  9.000E+00
       4     1     1     2   512     0 -9.852830121E+00  7.954814200E+00 -1.136215311E-01  1.275226412E+01  1.500000000E+00  0.00000E+00  9.000E+00
      21     1     1     2   513   512  1.213632627E+00 -1.829015323E+00 -4.240810800E+00  4.775214911E+00  0.000000000E+00  0.00000E+00  9.000E+00
</event>
<event>
      5  10001  3.52971E+09  1.50403E+01 -1.00000E+00  1.77270E-01
      21    -1     0     0   512   513  0.000000000E+00  0.000000000E+00  7.332968019E+00  7.332968019E+00  0.000000000E+00  0.00000E+00  9.000E+00
      21    -1     0     0   514   512  0.000000000E+00  0.000000000E+00 -1.643980279E+01  1.643980279E+01  0.000000000E+00  0.00000E+00  9.000E+00
      21     1     1     2   511   513 -5.724788505E-01  5.486421253E+00  3.176555361E-01  5.525346617E+00  1.871193700E-07  0.00000E+00  9.000E+00
       4     1     1     2   514     0  6.954460751E+00 -9.562091316E-02 -4.786713943E+00  8.575330785E+00  1.500000000E+00  0.00000E+00  9.000E+00
      -4     1     1     2     0   511 -6.381981901E+00 -5.390800339E+00 -4.637776363E+00  9.672093407E+00  1.500000000E+00  0.00000E+00  9.000E+00
</event>
<event>
      5  10001  3.52971E+09  3.47827E+00 -1.00000E+00  2.78634E-01
      -3    -1     0     0     0   511  0.000000000E+00  0.000000000E+00  7.225995232E+00  7.225995232E+00  0.000000000E+00  0.00000E+00  9.000E+00
       1    -1     0     0   511     0  0.000000000E+00  0.000000000E+00 -5.545387519E+01  5.545387519E+01  0.000000000E+00  0.00000E+00  9.000E+00
      -3     1     1     2     0   513  4.377730107E+00 -1.489169685E+00  1.858114596E+00  5.008466542E+00  5.000000000E-01  0.00000E+00  9.000E+00
       1     1     1     2   512     0 -9.939327421E+00 -2.117625460E-01 -5.084260409E+01  5.180650890E+01  3.300000131E-01  0.00000E+00  9.000E+00
      21     1     1     2   513   512  5.561597313E+00  1.700932232E+00  7.566095432E-01  5.864894980E+00  1.277508452E-07  0.00000E+00  9.000E+00
</event>
<event>
      5  10001  3.52971E+09  6.98674E+00 -1.00000E+00  2.15665E-01
      21    -1     0     0   514   516  0.000000000E+00  0.000000000E+00  1.620472091E+02  1.620472091E+02  0.000000000E+00  0.00000E+00  9.000E+00
      21    -1     0     0   511   515  0.000000000E+00  0.000000000E+00 -2.757782575E+01  2.757782575E+01  0.000000000E+00  0.00000E+00  9.000E+00
      21     1     1     2   514   515 -8.241974366E+00 -6.622860386E+00  4.631771675E+01  4.750919180E+01  0.000000000E+00  0.00000E+00  9.000E+00
      21     1     1     2   511   512  1.314314213E+01  1.643601104E+00 -2.524250922E+01  2.850662873E+01  8.259061849E-07  0.00000E+00  9.000E+00
      21     1     1     2   512   516 -4.901167765E+00  4.979259281E+00  1.133941758E+02  1.136092143E+02  2.336015456E-06  0.00000E+00  9.000E+00
</event>
<event>
      5  10001  3.52971E+09  4.65346E+00 -1.00000E+00  2.48882E-01
      21    -1     0     0   513   514  0.000000000E+00  0.000000000E+00  1.005180378E+02  1.005180378E+02  0.000000000E+00  0.00000E+00  9.000E+00
      21    -1     0     0   517   516  0.000000000E+00  0.000000000E+00 -5.866001194E+01  5.866001194E+01  0.000000000E+00  0.00000E+00  9.000E+00
      21     1     1     2   513   516  2.141112668E+00 -8.999023195E+00 -5.675599851E+01  5.750487065E+01  1.348699152E-06  0.00000E+00  9.000E+00
      21     1     1     2   517   511 -6.011537043E+00  1.158252599E+01  2.784386662E+01  3.075019341E+01  4.768371582E-07  0.00000E+00  9.000E+00
      21     1     1     2   511   514  3.870424375E+00 -2.583502799E+00  7.077015771E+01  7.092298566E+01  9.536743164E-07  0.00000E+00  9.000E+00
</event>
<event>
      5  10001  3.52971E+09  7.37092E+00 -1.00000E+00  2.12427E-01
      21    -1     0     0   513   512  0.000000000E+00  0.000000000E+00  3.824813857E+01  3.824813857E+01  0.000000000E+00  0.00000E+00  9.000E+00
      -1    -1     0     0     0   511  0.000000000E+00  0.000000000E+00 -1.136737907E+01  1.136737907E+01  0.000000000E+00  0.00000E+00  9.000E+00
      -2     1     1     2     0   511 -1.069002209E+01 -4.866865501E+00 -1.634820672E-01  1.175153515E+01  3.300000131E-01  0.00000E+00  9.000E+00
      -1     1     1     2     0   512  1.728070899E+01  8.162002075E+00  1.902644972E+01  2.696953596E+01  3.300000131E-01  0.00000E+00  9.000E+00
       2     1     1     2   513     0 -6.590686905E+00 -3.295136574E+00  8.017791848E+00  1.089444652E+01  3.300000131E-01  0.00000E+00  9.000E+00
</event>
<event>
      5  10001  3.52971E+09  1.11714E+01 -1.00000E+00  1.90351E-01
      21    -1     0     0   514   511  0.000000000E+00  0.000000000E+00  1.801301315E+02  1.801301315E+02  0.000000000E+00  0.00000E+00  9.000E+00
      21    -1     0     0   516   515  0.000000000E+00  0.000000000E+00 -1.451256307E+00  1.451256307E+00  0.000000000E+00  0.00000E+00  9.000E+00
      21     1     1     2   514   515 -6.426608140E+00  9.699555637E+00  1.099134921E+02  1.105276364E+02  1.348699152E-06  0.00000E+00  9.000E+00
      -4     1     1     2     0   511  8.456638400E+00 -2.235820748E+00  2.374938018E+01  2.535343539E+01  1.500000000E+00  0.00000E+00  9.000E+00
       4     1     1     2   516     0 -2.030030261E+00 -7.463734888E+00  4.501600288E+01  4.570031593E+01  1.500000000E+00  0.00000E+00  9.000E+00
</event>
<event>
      5  10001  3.52971E+09  3.61804E+00 -1.00000E+00  2.74173E-01
      21    -1     0     0   514   511  0.000000000E+00  0.000000000E+00  1.735112129E+02  1.735112129E+02  0.000000000E+00  0.00000E+00  9.000E+00
      21    -1     0     0   513   512  0.000000000E+00  0.000000000E+00 -4.795858150E+00  4.795858150E+00  0.000000000E+00  0.00000E+00  9.000E+00
      21     1     1     2   516   511  8.408948120E+00 -8.233166649E+00  1.132474933E+02  1.138573238E+02  1.348699152E-06  0.00000E+00  9.000E+00
      21     1     1     2   513   516 -1.052115442E+01  5.295680437E+00  3.404600169E+00  1.226092264E+01  1.264405455E-07  0.00000E+00  9.000E+00
      21     1     1     2   514   512  2.112206296E+00  2.937486211E+00  5.206326130E+01  5.218882465E+01  6.743495762E-07  0.00000E+00  9.000E+00
</event>
<event>
      5  10001  3.52971E+09  7.87744E+00 -1.00000E+00  2.08546E-01
      21    -1     0     0   513   512  0.000000000E+00  0.000000000E+00  5.114996804E+01  5.114996804E+01  0.000000000E+00  0.00000E+00  9.000E+00
      21    -1     0     0   511   517  0.000000000E+00  0.000000000E+00 -7.023375059E+01  7.023375059E+01  0.000000000E+00  0.00000E+00  9.000E+00
      21     1     1     2   515   517 -3.388478002E+00 -1.920678322E+01 -6.565890173E+01  6.849433320E+01  9.536743164E-07  0.00000E+00  9.000E+00
      21     1     1     2   511   512 -8.563009908E-01  1.257083130E+01  4.184517264E+01  4.370100141E+01  6.743495762E-07  0.00000E+00  9.000E+00
      21     1     1     2   513   515  4.244778993E+00  6.635951920E+00  4.729946549E+00  9.188384022E+00  1.576990671E-07  0.00000E+00  9.000E+00
</event>
<event>
      5  10001  3.52971E+09  4.57801E+00 -1.00000E+00  2.50374E-01
      21    -1     0     0   514   511  0.000000000E+00  0.000000000E+00  3.043482279E+02  3.043482279E+02  0.000000000E+00  0.00000E+00  9.000E+00
      21    -1     0     0   516   515  0.000000000E+00  0.000000000E+00 -1.289032588E+01  1.289032588E+01  0.000000000E+00  0.00000E+00  9.000E+00
      21     1     1     2   514   515 -1.015410379E+01  3.954425297E-01 -1.066042656E+01  1.472775927E+01  9.386548846E-07  0.00000E+00  9.000E+00
      21     1     1     2   512   511  5.808542906E+00  1.923764262E+00  2.645714520E+02  2.646421985E+02  0.000000000E+00  0.00000E+00  9.000E+00
      21     1     1     2   516   512  4.345560882E+00 -2.319206792E+00  3.754687657E+01  3.786859595E+01  4.768371582E-07  0.00000E+00  9.000E+00
</event>
<event>
      5  10001  3.52971E+09  7.85759E+00 -1.00000E+00  2.08690E-01
      21    -1     0     0   514   511  0.000000000E+00  0.000000000E+00  6.100615113E+01  6.100615113E+01  0.000000000E+00  0.00000E+00  9.000E+00
      21    -1     0     0   516   513  0.000000000E+00  0.000000000E+00 -4.961738824E+01  4.961738824E+01  0.000000000E+00  0.00000E+00  9.000E+00
      21     1     1     2   512   511  4.783272251E-01 -1.581229898E+01  2.641434526E+01  3.078920642E+01  4.768371582E-07  0.00000E+00  9.000E+00
      21     1     1     2   516   512 -2.025798461E+00  8.108592525E+00 -4.657611808E+01  4.732005819E+01  0.000000000E+00  0.00000E+00  9.000E+00
      21     1     1     2   514   513  1.547471236E+00  7.703706458E+00  3.155053570E+01  3.251427476E+01  4.768371582E-07  0.00000E+00  9.000E+00
</event>
<event>
      5  10001  3.52971E+09  4.10193E+00 -1.00000E+00  2.60913E-01
      21    -1     0     0   515   513  0.000000000E+00  0.000000000E+00  1.391899446E+00  1.391899446E+00  0.000000000E+00  0.00000E+00  9.000E+00
      21    -1     0     0   511   517  0.000000000E+00  0.000000000E+00 -1.183343578E+02  1.183343578E+02  0.000000000E+00  0.00000E+00  9.000E+00
      21     1     1     2   515   517  2.597244248E+00 -9.961059790E+00 -2.393743604E+01  2.605703809E+01  5.840038640E-07  0.00000E+00  9.000E+00
      21     1     1     2   512   513 -7.830744200E-02  4.421393451E+00 -5.527297200E+01  5.544958328E+01  6.743495762E-07  0.00000E+00  9.000E+00
      21     1     1     2   511   512 -2.518936806E+00  5.539666339E+00 -3.773205032E+01  3.821963589E+01  6.743495762E-07  0.00000E+00  9.000E+00
</event>
<event>
      5  10001  3.52971E+09  6.50511E+00 -1.00000E+00  2.20149E-01
      21    -1     0     0   514   513  0.000000000E+00  0.000000000E+00  1.146900568E+01  1.146900568E+01  0.000000000E+00  0.00000E+00  9.000E+00
      21    -1     0     0   511   514  0.000000000E+00  0.000000000E+00 -8.831740064E+01  8.831740064E+01  0.000000000E+00  0.00000E+00  9.000E+00
      21     1     1     2   512   513  9.926310116E+00  7.079749925E+00  7.237721180E+00  1.417882574E+01  4.042583694E-07  0.00000E+00  9.000E+00
      21     1     1     2   511   515 -7.036751916E+00 -8.429897903E-01 -6.371777280E+01  6.411069396E+01  6.743495762E-07  0.00000E+00  9.000E+00
      21     1     1     2   515   512 -2.889558200E+00 -6.236760134E+00 -2.036834335E+01  2.149688662E+01  3.371747881E-07  0.00000E+00  9.000E+00
</event>
<event>
      5  10001  3.52971E+09  1.23310E+01 -1.00000E+00  1.85790E-01
      -2    -1     0     0     0   512  0.000000000E+00  0.000000000E+00  6.281048570E+00  6.281048570E+00  0.000000000E+00  0.00000E+00  9.000E+00
      21    -1     0     0   515   514  0.000000000E+00  0.000000000E+00 -1.924145335E+02  1.924145335E+02  0.000000000E+00  0.00000E+00  9.000E+00
      -2     1     1     2     0   514  9.432127054E+00 -2.174530256E+00  7.942749389E-01  9.717683638E+00  3.300000131E-01  0.00000E+00  9.000E+00
      21     1     1     2   515   511 -3.280780207E+00  1.847533249E+00 -1.784956958E+02  1.785354035E+02  1.907348633E-06  0.00000E+00  9.000E+00
      21     1     1     2   511   512 -6.151346847E+00  3.269970065E-01 -8.432064058E+00  1.044249488E+01  2.064765462E-07  0.00000E+00  9.000E+00
</event>
<event>
      5  10001  3.52971E+09  2.22597E+00 -1.00000E+00  3.42670E-01
       2    -1     0     0   514     0  0.000000000E+00  0.000000000E+00  3.647640270E+02  3.647640270E+02  0.000000000E+00  0.00000E+00  9.000E+00
      21    -1     0     0   513   515  0.000000000E+00  0.000000000E+00 -4.300044033E+00  4.300044033E+00  0.000000000E+00  0.00000E+00  9.000E+00
      21     1     1     2   513   511  7.074098468E+00  6.785842160E+00  4.130209572E+01  4.244942442E+01  1.651812370E-06  0.00000E+00  9.000E+00
       2     1     1     2   511     0 -7.391617710E+00 -8.989007134E+00  3.224411522E+02  3.226512727E+02  3.300000131E-01  0.00000E+00  9.000E+00
      21     1     1     2   514   515  3.175192419E-01  2.203164973E+00 -3.279264920E+00  3.963373914E+00  3.793216366E-07  0.00000E+00  9.000E+00
</event>
<event>
      5  10001  3.52971E+09  2.78689E+00 -1.00000E+00  3.06918E-01
      21    -1     0     0   512   516  0.000000000E+00  0.000000000E+00  2.871314570E-01  2.871314570E-01  0.000000000E+00  0.00000E+00  9.000E+00
       2    -1     0     0   511     0  0.000000000E+00  0.000000000E+00 -1.056452489E+03  1.056452489E+03  0.000000000E+00  0.00000E+00  9.000E+00
      21     1     1     2   511   516 -7.571703931E+00 -6.953122029E+00 -1.028437518E+02  1.033562475E+02  2.697398305E-06  0.00000E+00  9.000E+00
      21     1     1     2   512   513  5.383425790E+00  5.338244178E+00 -5.470709390E+02  5.471234691E+02  7.629394531E-06  0.00000E+00  9.000E+00
       2     1     1     2   513     0  2.188278141E+00  1.614877851E+00 -4.062506672E+02  4.062599043E+02  3.300000131E-01  0.00000E+00  9.000E+00
</event>
<event>
      5  10001  3.52971E+09  1.10604E+01 -1.00000E+00  1.90825E-01
      21    -1     0     0   514   512  0.000000000E+00  0.000000000E+00  1.128933972E+02  1.128933972E+02  0.000000000E+00  0.00000E+00  9.000E+00
      21    -1     0     0   511   515  0.000000000E+00  0.000000000E+00 -3.211018480E+00  3.211018480E+00  0.000000000E+00  0.00000E+00  9.000E+00
      21     1     1     2   514   515  1.201622298E+01  7.856223297E+00  2.368614798E+01  2.769735484E+01  0.000000000E+00  0.00000E+00  9.000E+00
      21     1     1     2   511   516 -1.009909837E+00 -8.948540476E+00  4.783628355E+01  4.867654793E+01  0.000000000E+00  0.00000E+00  9.000E+00
      21     1     1     2   516   512 -1.100631315E+01  1.092317180E+00  3.815994715E+01  3.973051286E+01  4.768371582E-07  0.00000E+00  9.000E+00
</event>
<event>
      5  10001  3.52971E+09  8.38072E+00 -1.00000E+00  2.05060E-01
      21    -1     0     0   516   511  0.000000000E+00  0.000000000E+00  3.164025177E+00  3.164025177E+00  0.000000000E+00  0.00000E+00  9.000E+00
      -1    -1     0     0     0   513  0.000000000E+00  0.000000000E+00 -4.213813441E+01  4.213813441E+01  0.000000000E+00  0.00000E+00  9.000E+00
      -1     1     1     2     0   514 -7.626075807E-01  3.250523694E+00 -2.426385895E+01  2.449471832E+01  3.300000131E-01  0.00000E+00  9.000E+00
      21     1     1     2   516   513  5.828452574E+00 -6.398132609E+00 -7.518961558E+00  1.146480454E+01  2.528810911E-07  0.00000E+00  9.000E+00
      21     1     1     2   514   511 -5.065844993E+00  3.147608915E+00 -7.191288727E+00  9.342636722E+00  1.192092896E-07  0.00000E+00  9.000E+00
</event>
<event>
      5  10001  3.52971E+09  2.28155E+00 -1.00000E+00  3.38316E-01
      -1    -1     0     0     0   511  0.000000000E+00  0.000000000E+00  1.561375514E+00  1.561375514E+00  0.000000000E+00  0.00000E+00  9.000E+00
      21    -1     0     0   511   512  0.000000000E+00  0.000000000E+00 -3.576297463E+02  3.576297463E+02  0.000000000E+00  0.00000E+00  9.000E+00
      -1     1     1     2     0   515  5.412317246E+00 -5.021751194E+00 -9.413259674E+00  1.196785364E+01  3.300000131E-01  0.00000E+00  9.000E+00
      21     1     1     2   513   512 -6.190573190E+00  7.935726177E+00 -3.359675714E+02  3.361182946E+02  3.814697266E-06  0.00000E+00  9.000E+00
      21     1     1     2   515   513  7.782559440E-01 -2.913974982E+00 -1.068753967E+01  1.110497352E+01  1.192092896E-07  0.00000E+00  9.000E+00
</event>
<event>
      5  10001  3.52971E+09  7.59209E+00 -1.00000E+00  2.10682E-01
      21    -1     0     0   514   511  0.000000000E+00  0.000000000E+00  8.022483372E-01  8.022483372E-01  0.000000000E+00  0.00000E+00  9.000E+00
       2    -1     0     0   512     0  0.000000000E+00  0.000000000E+00 -1.667088398E+03  1.667088398E+03  0.000000000E+00  0.00000E+00  9.000E+00
      21     1     1     2   513   511  4.990184825E+00 -8.421613319E+00 -3.199312312E+01  3.345721809E+01  2.697398305E-06  0.00000E+00  9.000E+00
       2     1     1     2   514     0 -1.132089041E+01  4.231263179E+00 -1.290265454E+03  1.290322099E+03  3.300000131E-01  0.00000E+00  9.000E+00
      21     1     1     2   512   513  6.330705585E+00  4.190350140E+00 -3.440275724E+02  3.441113300E+02  3.814697266E-06  0.00000E+00  9.000E+00
</event>
<event>
      5  10001  3.52971E+09  7.30995E+00 -1.00000E+00  2.12923E-01
      21    -1     0     0   512   515  0.000000000E+00  0.000000000E+00  2.788231956E+01  2.788231956E+01  0.000000000E+00  0.00000E+00  9.000E+00
      -1    -1     0     0     0   511  0.000000000E+00  0.000000000E+00 -8.618241120E+01  8.618241120E+01  0.000000000E+00  0.00000E+00  9.000E+00
      -1     1     1     2     0   515 -1.462504231E+01  1.296622799E+01 -5.767836526E+01  6.090088382E+01  3.300000131E-01  0.00000E+00  9.000E+00
      21     1     1     2   512   513  7.545785167E+00 -1.114472572E+01  2.398016782E+01  2.749894969E+01  1.168007728E-06  0.00000E+00  9.000E+00
      21     1     1     2   513   511  7.079257147E+00 -1.821502268E+00 -2.460189421E+01  2.566489725E+01  3.371747881E-07  0.00000E+00  9.000E+00
</event>
<event>
      5  10001  3.52971E+09  5.99096E+00 -1.00000E+00  2.25567E-01
      21    -1     0     0   514   515  0.000000000E+00  0.000000000E+00  4.801652277E+00  4.801652277E+00  0.000000000E+00  0.00000E+00  9.000E+00
      21    -1     0     0   516   514  0.000000000E+00  0.000000000E+00 -4.990344385E+01  4.990344385E+01  0.000000000E+00  0.00000E+00  9.000E+00
      21     1     1     2   516   511 -1.253444546E+01 -6.341367408E+00 -2.583687858E+01  2.940866468E+01  3.371747881E-07  0.00000E+00  9.000E+00
      -4     1     1     2     0   515  8.051620276E+00  3.571663073E+00 -5.527026223E+00  1.050634975E+01  1.500000000E+00  0.00000E+00  9.000E+00
       4     1     1     2   511     0  4.482825183E+00  2.769704335E+00 -1.373788677E+01  1.479008170E+01  1.500000000E+00  0.00000E+00  9.000E+00
</event>
<event>
      5  10001  3.52971E+09  1.67458E+01 -1.00000E+00  1.72991E-01
      21    -1     0     0   515   513  0.000000000E+00  0.000000000E+00  8.759999454E+00  8.759999454E+00  0.000000000E+00  0.00000E+00  9.000E+00
      21    -1     0     0   513   514  0.000000000E+00  0.000000000E+00 -1.064526966E+02  1.064526966E+02  0.000000000E+00  0.00000E+00  9.000E+00
      -4     1     1     2     0   514  1.280021147E+01  1.011514075E+01 -8.084474203E+01  8.248808277E+01  1.500000000E+00  0.00000E+00  9.000E+00
       4     1     1     2   512     0 -9.200966535E+00  6.206106833E+00 -5.166231116E+00  1.233342982E+01  1.500000000E+00  0.00000E+00  9.000E+00
      21     1     1     2   515   512 -3.599244931E+00 -1.632124758E+01 -1.168172396E+01  2.039118342E+01  1.685873940E-07  0.00000E+00  9.000E+00
</event>
<event>
      5  10001  3.52971E+09  4.52942E+00 -1.00000E+00  2.51359E-01
      21    -1     0     0   511   512  0.000000000E+00  0.000000000E+00  1.071129742E+01  1.071129742E+01  0.000000000E+00  0.00000E+00  9.000E+00
       1    -1     0     0   513     0  0.000000000E+00  0.000000000E+00 -7.514719985E+01  7.514719985E+01  0.000000000E+00  0.00000E+00  9.000E+00
      -1     1     1     2     0   512  1.868050297E+01  4.541261343E-01 -8.090522783E+00  2.036499155E+01  3.300000131E-01  0.00000E+00  9.000E+00
       1     1     1     2   511     0 -2.416750820E+01 -4.766986237E+00 -5.119325549E+01  5.681241869E+01  3.300000131E-01  0.00000E+00  9.000E+00
       1     1     1     2   513     0  5.487005229E+00  4.312860103E+00 -5.152124158E+00  8.681087028E+00  3.300000131E-01  0.00000E+00  9.000E+00
</event>
<event>
      5  10001  3.52971E+09  7.72870E+00 -1.00000E+00  2.09644E-01
      21    -1     0     0   514   513  0.000000000E+00  0.000000000E+00  1.457090009E+01  1.457090009E+01  0.000000000E+00  0.00000E+00  9.000E+00
      21    -1     0     0   512   515  0.000000000E+00  0.000000000E+00 -1.292164101E+02  1.292164101E+02  0.000000000E+00  0.00000E+00  9.000E+00
      21     1     1     2   514   515  5.651738066E-01  1.484137018E+01 -1.238601432E+02  1.247474279E+02  1.348699152E-06  0.00000E+00  9.000E+00
      21     1     1     2   512   511  3.083062655E+00 -5.642294534E+00  5.528116243E+00  8.479435839E+00  5.527507362E-07  0.00000E+00  9.000E+00
      21     1     1     2   511   513 -3.648236462E+00 -9.199075649E+00  3.686516963E+00  1.056044646E+01  5.809542146E-07  0.00000E+00  9.000E+00
</event>
<event>
      5  10001  3.52971E+09  5.91081E+00 -1.00000E+00  2.26480E-01
       3    -1     0     0   512     0  0.000000000E+00  0.000000000E+00  2.303534803E+00  2.303534803E+00  0.000000000E+00  0.00000E+00  9.000E+00
      21    -1     0     0   511   516  0.000000000E+00  0.000000000E+00 -8.331468385E+01  8.331468385E+01  0.000000000E+00  0.00000E+00  9.000E+00
      21     1     1     2   512   514  2.596914719E-01  6.170510885E+00 -4.792203207E+01  4.831835885E+01  6.743495762E-07  0.00000E+00  9.000E+00
       3     1     1     2   511     0 -4.844705699E+00 -9.501612449E+00 -1.551028994E+01  1.883005328E+01  5.000000000E-01  0.00000E+00  9.000E+00
      21     1     1     2   514   516  4.585014227E+00  3.331101564E+00 -1.757882704E+01  1.846980653E+01  0.000000000E+00  0.00000E+00  9.000E+00
</event>
<event>
      5  10001  3.52971E+09  6.82934E+00 -1.00000E+00  2.17074E-01
      21    -1     0     0   513   511  0.000000000E+00  0.000000000E+00  1.041168289E+01  1.041168289E+01  0.000000000E+00  0.00000E+00  9.000E+00
      21    -1     0     0   515   513  0.000000000E+00  0.000000000E+00 -1.391945065E+01  1.391945065E+01  0.000000000E+00  0.00000E+00  9.000E+00
      21     1     1     2   515   516  8.480441473E+00  4.972034905E+00 -6.937799143E+00  1.203212681E+01  2.230201594E-07  0.00000E+00  9.000E+00
      21     1     1     2   516   512 -5.494676141E+00 -2.826926372E+00 -1.293685056E+00  6.313208347E+00  8.296615426E-08  0.00000E+00  9.000E+00
      21     1     1     2   512   511 -2.985765332E+00 -2.145108533E+00  4.723716439E+00  5.985798379E+00  1.032382731E-07  0.00000E+00  9.000E+00
</event>
<event>
      5  10001  3.52971E+09  6.46589E+00 -1.00000E+00  2.20538E-01
      21    -1     0     0   514   511  0.000000000E+00  0.000000000E+00  1.094832836E+00  1.094832836E+00  0.000000000E+00  0.00000E+00  9.000E+00
      -2    -1     0     0     0   514  0.000000000E+00  0.000000000E+00 -4.992010589E+02  4.992010589E+02  0.000000000E+00  0.00000E+00  9.000E+00
      -2     1     1     2     0   513 -1.160717838E+01  4.716914252E+00 -3.843165315E+02  3.845208462E+02  3.300000131E-01  0.00000E+00  9.000E+00
      21     1     1     2   512   511  9.664679641E+00 -1.605733530E+00 -2.416730402E+01  2.607763403E+01  1.215700987E-06  0.00000E+00  9.000E+00
      21     1     1     2   513   512  1.942498735E+00 -3.111180721E+00 -8.962239057E+01  8.969741155E+01  0.000000000E+00  0.00000E+00  9.000E+00
</event>
<event>
      5  10001  3.52971E+09  8.23564E+00 -1.00000E+00  2.06031E-01
      21    -1     0     0   515   512  0.000000000E+00  0.000000000E+00  2.638641525E+01  2.638641525E+01  0.000000000E+00  0.00000E+00  9.000E+00
      21    -1     0     0   513   511  0.000000000E+00  0.000000000E+00 -1.412692970E+02  1.412692970E+02  0.000000000E+00  0.00000E+00  9.000E+00
      21     1     1     2   515   516 -6.342256766E+00  6.202932746E+00 -3.015332377E+01  3.143125085E+01  4.768371582E-07  0.00000E+00  9.000E+00
      21     1     1     2   513   512  1.442771339E+01 -7.768533836E+00  2.296707589E+01  2.821339410E+01  3.371747881E-07  0.00000E+00  9.000E+00
      21     1     1     2   516   511 -8.085456628E+00  1.565601091E+00 -1.076966339E+02  1.080110674E+02  0.000000000E+00  0.00000E+00  9.000E+00
</event>
<event>
      5  10001  3.52971E+09  1.28525E+01 -1.00000E+00  1.83944E-01
      21    -1     0     0   514   512  0.000000000E+00  0.000000000E+00  5.783316638E+01  5.783316638E+01  0.000000000E+00  0.00000E+00  9.000E+00
      21    -1     0     0   516   517  0.000000000E+00  0.000000000E+00 -5.346694129E+01  5.346694129E+01  0.000000000E+00  0.00000E+00  9.000E+00
      21     1     1     2   514   517  8.102290938E+00  1.984481486E+00 -2.257113859E+00  8.641750297E+00  2.648888355E-07  0.00000E+00  9.000E+00
      21     1     1     2   516   511 -1.271631263E+01  1.001125451E+01 -4.585594782E+01  4.862815824E+01  0.000000000E+00  0.00000E+00  9.000E+00
      21     1     1     2   511   512  4.614021688E+00 -1.199573599E+01  5.247928677E+01  5.403019913E+01  9.536743164E-07  0.00000E+00  9.000E+00
</event>
<event>
      5  10001  3.52971E+09  5.18864E+00 -1.00000E+00  2.35733E-01
      21    -1     0     0   513   516  0.000000000E+00  0.000000000E+00  1.348682756E+01  1.348682756E+01  0.000000000E+00  0.00000E+00  9.000E+00
      21    -1     0     0   512   513  0.000000000E+00  0.000000000E+00 -8.892866191E+01  8.892866191E+01  0.000000000E+00  0.00000E+00  9.000E+00
      21     1     1     2   512   515 -9.863514726E+00  1.233709783E+00 -8.376933831E+01  8.435705663E+01  9.536743164E-07  0.00000E+00  9.000E+00
      21     1     1     2   515   514  6.934694885E+00  2.400210212E+00  1.058016211E+01  1.287597889E+01  9.830249847E-07  0.00000E+00  9.000E+00
      21     1     1     2   514   516  2.928819841E+00 -3.633919995E+00 -2.252658155E+00  5.182453951E+00  1.490116119E-07  0.00000E+00  9.000E+00
</event>
<event>
      5  10001  3.52971E+09  1.34535E+01 -1.00000E+00  1.81950E-01
      21    -1     0     0   511   515  0.000000000E+00  0.000000000E+00  5.677959878E+00  5.677959878E+00  0.000000000E+00  0.00000E+00  9.000E+00
      21    -1     0     0   512   516  0.000000000E+00  0.000000000E+00 -1.107903540E+02  1.107903540E+02  0.000000000E+00  0.00000E+00  9.000E+00
      21     1     1     2   511   516  1.340521514E+01  2.000967749E+00 -4.699826434E+00  1.434545340E+01  1.788139343E-07  0.00000E+00  9.000E+00
      21     1     1     2   513   515 -8.505406871E+00 -6.472602330E+00 -4.215545335E+01  4.348929494E+01  1.066240300E-06  0.00000E+00  9.000E+00
      21     1     1     2   512   513 -4.899808266E+00  4.471634581E+00 -5.825711436E+01  5.863356556E+01  0.000000000E+00  0.00000E+00  9.000E+00
</event>
<event>
      5  10001  3.52971E+09  5.80714E+00 -1.00000E+00  2.27692E-01
      21    -1     0     0   513   514  0.000000000E+00  0.000000000E+00  4.701945336E+02  4.701945336E+02  0.000000000E+00  0.00000E+00  9.000E+00
       3    -1     0     0   511     0  0.000000000E+00  0.000000000E+00 -1.597617856E+00  1.597617856E+00  0.000000000E+00  0.00000E+00  9.000E+00
      21     1     1     2   513   512  7.170590946E+00 -9.947486578E+00  4.272282156E+02  4.274041625E+02  7.629394531E-06  0.00000E+00  9.000E+00
       3     1     1     2   512     0 -9.142006524E+00  4.485951319E+00  2.405142892E+01  2.612319421E+01  5.000000000E-01  0.00000E+00  9.000E+00
      21     1     1     2   511   514  1.971415578E+00  5.461535259E+00  1.731727118E+01  1.826479477E+01  5.840038640E-07  0.00000E+00  9.000E+00
</event>
<event>
      5  10001  3.52971E+09  1.49140E+01 -1.00000E+00  1.77615E-01
      21    -1     0     0   515   516  0.000000000E+00  0.000000000E+00  1.735124203E+02  1.735124203E+02  0.000000000E+00  0.00000E+00  9.000E+00
      21    -1     0     0   511   512  0.000000000E+00  0.000000000E+00 -1.390245632E+01  1.390245632E+01  0.000000000E+00  0.00000E+00  9.000E+00
      21     1     1     2   514   516  1.795697248E+01 -1.309781053E+01  7.138485135E+01  7.476498180E+01  0.000000000E+00  0.00000E+00  9.000E+00
      21     1     1     2   511   514 -5.887837132E+00  4.336346049E+00  9.569209205E+01  9.597107379E+01  0.000000000E+00  0.00000E+00  9.000E+00
      21     1     1     2   515   512 -1.206913534E+01  8.761464484E+00 -7.466979455E+00  1.667882100E+01  2.230201594E-07  0.00000E+00  9.000E+00
</event>
<event>
      5  10001  3.52971E+09  1.51166E+00 -1.00000E+00  4.31308E-01
      21    -1     0     0   513   511  0.000000000E+00  0.000000000E+00  5.256659095E+02  5.256659095E+02  0.000000000E+00  0.00000E+00  9.000E+00
       1    -1     0     0   515     0  0.000000000E+00  0.000000000E+00 -6.194042200E-01  6.194042200E-01  0.000000000E+00  0.00000E+00  9.000E+00
      21     1     1     2   514   511 -8.346497184E+00  8.701350540E-01  3.235551803E+02  3.236639860E+02  5.394796609E-06  0.00000E+00  9.000E+00
       1     1     1     2   513     0  1.068487832E+01 -9.290831643E-01  5.122452086E+01  5.233631872E+01  3.300000131E-01  0.00000E+00  9.000E+00
      21     1     1     2   515   514 -2.338381134E+00  5.894811024E-02  1.502668042E+02  1.502850090E+02  2.697398305E-06  0.00000E+00  9.000E+00
</event>
<event>
      5  10001  3.52971E+09  5.06645E+00 -1.00000E+00  2.37512E-01
      21    -1     0     0   512   515  0.000000000E+00  0.000000000E+00  4.087827522E+01  4.087827522E+01  0.000000000E+00  0.00000E+00  9.000E+00
      21    -1     0     0   511   513  0.000000000E+00  0.000000000E+00 -9.511935740E+01  9.511935740E+01  0.000000000E+00  0.00000E+00  9.000E+00
      21     1     1     2   512   514  9.060899200E+00  1.715630604E+01  3.710133066E+01  4.186821549E+01  4.768371582E-07  0.00000E+00  9.000E+00
      21     1     1     2   511   515 -9.947139937E+00 -1.216797348E+01 -8.208746118E+01  8.357844492E+01  9.536743164E-07  0.00000E+00  9.000E+00
      21     1     1     2   514   513  8.862407366E-01 -4.988332565E+00 -9.254951661E+00  1.055097221E+01  1.192092896E-07  0.00000E+00  9.000E+00
</event>
<event>
      5  10001  3.52971E+09  8.96045E+00 -1.00000E+00  2.01429E-01
      21    -1     0     0   516   515  0.000000000E+00  0.000000000E+00  1.429270396E+01  1.429270396E+01  0.000000000E+00  0.00000E+00  9.000E+00
      21    -1     0     0   515   512  0.000000000E+00  0.000000000E+00 -1.189676684E+01  1.189676684E+01  0.000000000E+00  0.00000E+00  9.000E+00
      -4     1     1     2     0   512 -6.351446606E+00 -3.301247517E+00 -5.053420088E+00  8.889666121E+00  1.500000000E+00  0.00000E+00  9.000E+00
      21     1     1     2   516   511  7.101847115E+00  7.936883789E+00  5.614816453E+00  1.203978906E+01  3.264680848E-07  0.00000E+00  9.000E+00
       4     1     1     2   511     0 -7.504005082E-01 -4.635636272E+00  1.834540754E+00  5.260015623E+00  1.500000000E+00  0.00000E+00  9.000E+00
</event>
<event>
      5  10001  3.52971E+09  1.35818E+01 -1.00000E+00  1.81542E-01
      -4    -1     0     0     0   513  0.000000000E+00  0.000000000E+00  1.859140124E+01  1.859140124E+01  0.000000000E+00  0.00000E+00  9.000E+00
      21    -1     0     0   511   514  0.000000000E+00  0.000000000E+00 -2.635502759E+01  2.635502759E+01  0.000000000E+00  0.00000E+00  9.000E+00
      -4     1     1     2     0   514 -1.334984892E+01  7.770474406E+00  6.737383096E+00  1.691866040E+01  1.500000000E+00  0.00000E+00  9.000E+00
      21     1     1     2   512   513  4.977550106E+00 -8.790389171E+00 -1.651214293E+01  1.935711267E+01  3.371747881E-07  0.00000E+00  9.000E+00
      21     1     1     2   511   512  8.372298812E+00  1.019914766E+00  2.011133485E+00  8.670655767E+00  2.580956828E-07  0.00000E+00  9.000E+00
</event>
<event>
      5  10001  3.52971E+09  3.99073E+00 -1.00000E+00  2.63699E-01
      21    -1     0     0   511   512  0.000000000E+00  0.000000000E+00  1.173260915E+02  1.173260915E+02  0.000000000E+00  0.00000E+00  9.000E+00
       1    -1     0     0   513     0  0.000000000E+00  0.000000000E+00 -1.972920789E+00  1.972920789E+00  0.000000000E+00  0.00000E+00  9.000E+00
      21     1     1     2   513   514  2.576786444E+00 -6.226296755E+00  1.420607827E+01  1.572320767E+01  1.685873940E-07  0.00000E+00  9.000E+00
       1     1     1     2   511     0 -5.805813583E+00  9.271937287E+00  9.661206451E+01  9.723001698E+01  3.300000131E-01  0.00000E+00  9.000E+00
      21     1     1     2   514   512  3.229027139E+00 -3.045640532E+00  4.535027949E+00  6.345787659E+00  1.332800375E-07  0.00000E+00  9.000E+00
</event>
<event>
      5  10001  3.52971E+09  6.75667E+00 -1.00000E+00  2.17743E-01
      21    -1     0     0   515   511  0.000000000E+00  0.000000000E+00  7.134142668E+01  7.134142668E+01  0.000000000E+00  0.00000E+00  9.000E+00
      21    -1     0     0   512   515  0.000000000E+00  0.000000000E+00 -2.177915994E+01  2.177915994E+01  0.000000000E+00  0.00000E+00  9.000E+00
      21     1     1     2   512   513  3.373163209E-01 -7.382269113E+00 -1.913238710E+01  2.050999550E+01  4.768371582E-07  0.00000E+00  9.000E+00
      21     1     1     2   513   514  5.659659912E-01  1.407828452E+01  2.785400147E+01  3.121480115E+01  3.371747881E-07  0.00000E+00  9.000E+00
      21     1     1     2   514   511 -9.032823121E-01 -6.696015410E+00  4.084065237E+01  4.139578997E+01  6.743495762E-07  0.00000E+00  9.000E+00
</event>
<event>
      5  10001  3.52971E+09  1.21849E+01 -1.00000E+00  1.86328E-01
      21    -1     0     0   514   511  0.000000000E+00  0.000000000E+00  8.600894327E+00  8.600894327E+00  0.000000000E+00  0.00000E+00  9.000E+00
       1    -1     0     0   513     0  0.000000000E+00  0.000000000E+00 -1.142479000E+03  1.142479000E+03  0.000000000E+00  0.00000E+00  9.000E+00
      21     1     1     2   513   511  4.726602762E+00 -9.700268141E+00  4.503903123E+00  1.169278064E+01  3.264680848E-07  0.00000E+00  9.000E+00
       1     1     1     2   512     0 -5.435247389E-01  7.268904868E+00 -1.126947091E+03  1.126970713E+03  3.300000131E-01  0.00000E+00  9.000E+00
      21     1     1     2   514   512 -4.183078023E+00  2.431363273E+00 -1.143491768E+01  1.241640091E+01  2.384185791E-07  0.00000E+00  9.000E+00
</event>
<event>
      5  10001  3.52971E+09  9.30118E+00 -1.00000E+00  1.99461E-01
      21    -1     0     0   513   512  0.000000000E+00  0.000000000E+00  7.663065109E+02  7.663065109E+02  0.000000000E+00  0.00000E+00  9.000E+00
      21    -1     0     0   511   516  0.000000000E+00  0.000000000E+00 -1.011477810E+01  1.011477810E+01  0.000000000E+00  0.00000E+00  9.000E+00
      21     1     1     2   515   516 -2.312105544E+00 -8.190791269E+00 -8.075800386E+00  1.173258051E+01  7.251217997E-07  0.00000E+00  9.000E+00
      21     1     1     2   511   512  1.160223102E+01  7.737400170E+00  2.954743131E+02  2.958032265E+02  5.394796609E-06  0.00000E+00  9.000E+00
      21     1     1     2   513   515 -9.290125476E+00  4.533910993E-01  4.687932201E+02  4.688854820E+02  5.394796609E-06  0.00000E+00  9.000E+00
</event>
<event>
      5  10001  3.52971E+09  2.46643E+00 -1.00000E+00  3.25302E-01
       2    -1     0     0   514     0  0.000000000E+00  0.000000000E+00  1.661185850E+00  1.661185850E+00  0.000000000E+00  0.00000E+00  9.000E+00
       2    -1     0     0   511     0  0.000000000E+00  0.000000000E+00 -3.788032774E+02  3.788032774E+02  0.000000000E+00  0.00000E+00  9.000E+00
       2     1     1     2   513     0  1.050954851E+01  6.572625051E+00 -2.387684142E+01  2.690469227E+01  3.300000131E-01  0.00000E+00  9.000E+00
       2     1     1     2   514     0 -8.668604929E+00 -8.213674773E+00 -2.863707340E+02  2.866198098E+02  3.300000131E-01  0.00000E+00  9.000E+00
      21     1     1     2   511   513 -1.840943584E+00  1.641049722E+00 -6.689451612E+01  6.693996119E+01  1.348699152E-06  0.00000E+00  9.000E+00
</event>
<event>
      5  10001  3.52971E+09  6.52320E+00 -1.00000E+00  2.19971E-01
      21    -1     0     0   512   515  0.000000000E+00  0.000000000E+00  4.458326752E+01  4.458326752E+01  0.000000000E+00  0.00000E+00  9.000E+00
      21    -1     0     0   511   513  0.000000000E+00  0.000000000E+00 -4.878972768E+00  4.878972768E+00  0.000000000E+00  0.00000E+00  9.000E+00
      21     1     1     2   512   513 -3.632523442E+00 -1.235796570E+01  1.106453559E+01  1.698053269E+01  3.576278687E-07  0.00000E+00  9.000E+00
      21     1     1     2   511   514 -1.600070313E-01  9.835006492E+00  1.371714147E+01  1.687936388E+01  1.685873940E-07  0.00000E+00  9.000E+00
      21     1     1     2   514   515  3.792530474E+00  2.522959206E+00  1.492261769E+01  1.560234371E+01  2.384185791E-07  0.00000E+00  9.000E+00
</event>
<event>
      5  10001  3.52971E+09  7.16184E+00 -1.00000E+00  2.14155E-01
      21    -1     0     0   516   511  0.000000000E+00  0.000000000E+00  7.373266283E+02  7.373266283E+02  0.000000000E+00  0.00000E+00  9.000E+00
      21    -1     0     0   512   516  0.000000000E+00  0.000000000E+00 -1.022070019E+01  1.022070019E+01  0.000000000E+00  0.00000E+00  9.000E+00
      21     1     1     2   515   517 -1.478681041E+01  3.457600714E+00  3.491068573E+01  3.807047075E+01  2.286830675E-06  0.00000E+00  9.000E+00
      21     1     1     2   517   511  8.179678575E+00 -6.221258326E+00  6.993077794E+02  6.993832866E+02  0.000000000E+00  0.00000E+00  9.000E+00
      21     1     1     2   512   515  6.607131839E+00  2.763657613E+00 -7.112537067E+00  1.009357113E+01  1.152698970E-06  0.00000E+00  9.000E+00
</event>
<event>
      5  10001  3.52971E+09  7.74181E+00 -1.00000E+00  2.09546E-01
      21    -1     0     0   513   515  0.000000000E+00  0.000000000E+00  2.113590972E+01  2.113590972E+01  0.000000000E+00  0.00000E+00  9.000E+00
      21    -1     0     0   512   514  0.000000000E+00  0.000000000E+00 -1.235325474E+02  1.235325474E+02  0.000000000E+00  0.00000E+00  9.000E+00
      21     1     1     2   513   514  1.725856610E+01 -7.165392729E+00 -1.171244857E+02  1.186058435E+02  0.000000000E+00  0.00000E+00  9.000E+00
      21     1     1     2   511   515 -6.940143384E+00  3.270287326E+00  1.271648833E+01  1.485158055E+01  5.331201500E-07  0.00000E+00  9.000E+00
      21     1     1     2   512   511 -1.031842271E+01  3.895105403E+00  2.011359762E+00  1.121103302E+01  3.650024150E-07  0.00000E+00  9.000E+00
</event>
<event>
      5  10001  3.52971E+09  4.59786E+00 -1.00000E+00  2.49978E-01
      21    -1     0     0   516   515  0.000000000E+00  0.000000000E+00  7.177739411E-01  7.177739411E-01  0.000000000E+00  0.00000E+00  9.000E+00
      21    -1     0     0   512   516  0.000000000E+00  0.000000000E+00 -1.889261470E+02  1.889261470E+02  0.000000000E+00  0.00000E+00  9.000E+00
      21     1     1     2   511   515 -1.128035012E+01 -2.745411365E+00 -9.079561767E+01  9.153484457E+01  1.348699152E-06  0.00000E+00  9.000E+00
      21     1     1     2   513   511  6.896992608E-01 -5.673222502E-02 -4.541509033E+00  4.593931640E+00  8.429369702E-08  0.00000E+00  9.000E+00
      21     1     1     2   512   513  1.059065086E+01  2.802143590E+00 -9.287124638E+01  9.351514476E+01  1.348699152E-06  0.00000E+00  9.000E+00
</event>
<event>
      5  10001  3.52971E+09  1.02429E+01 -1.00000E+00  1.94555E-01
       4    -1     0     0   512     0  0.000000000E+00  0.000000000E+00  4.483135586E+00  4.483135586E+00  0.000000000E+00  0.00000E+00  9.000E+00
      21    -1     0     0   514   513  0.000000000E+00  0.000000000E+00 -1.013349021E+02  1.013349021E+02  0.000000000E+00  0.00000E+00  9.000E+00
      21     1     1     2   512   511 -5.088841633E+00 -1.340168355E+01 -7.378895071E+01  7.516854847E+01  9.536743164E-07  0.00000E+00  9.000E+00
       4     1     1     2   514     0  1.942387042E-01  1.018823956E+01 -4.599915751E+00  1.128038913E+01  1.500000000E+00  0.00000E+00  9.000E+00
      21     1     1     2   511   513  4.894602929E+00  3.213443992E+00 -1.846290007E+01  1.936910011E+01  2.384185791E-07  0.00000E+00  9.000E+00
</event>
<event>
      5  10001  3.52971E+09  8.48884E+00 -1.00000E+00  2.04354E-01
      21    -1     0     0   512   511  0.000000000E+00  0.000000000E+00  4.189008713E+01  4.189008713E+01  0.000000000E+00  0.00000E+00  9.000E+00
      21    -1     0     0   516   515  0.000000000E+00  0.000000000E+00 -1.055053329E+01  1.055053329E+01  0.000000000E+00  0.00000E+00  9.000E+00
      21     1     1     2   516   513  1.470489415E+01  6.442496558E+00  1.943322123E+01  2.520693875E+01  3.371747881E-07  0.00000E+00  9.000E+00
      21     1     1     2   513   511 -6.249114582E+00 -5.694063004E+00 -3.885900732E+00  9.304515627E+00  2.598106231E-07  0.00000E+00  9.000E+00
      21     1     1     2   512   515 -8.455779566E+00 -7.484335538E-01  1.579223335E+01  1.792916604E+01  0.000000000E+00  0.00000E+00  9.000E+00
</event>
<event>
      5  10001  3.52971E+09  8.51861E+00 -1.00000E+00  2.04162E-01
      -3    -1     0     0     0   514  0.000000000E+00  0.000000000E+00  1.029524489E+02  1.029524489E+02  0.000000000E+00  0.00000E+00  9.000E+00
      21    -1     0     0   514   512  0.000000000E+00  0.000000000E+00 -3.111580716E+00  3.111580716E+00  0.000000000E+00  0.00000E+00  9.000E+00
      -3     1     1     2     0   513 -3.317833846E+00 -2.462386019E+00  8.321277755E+01  8.331679131E+01  5.000000000E-01  0.00000E+00  9.000E+00
      21     1     1     2   511   512  8.592801373E+00  3.464502499E+00  6.610619557E+00  1.138153346E+01  3.153981341E-07  0.00000E+00  9.000E+00
      21     1     1     2   513   511 -5.274967527E+00 -1.002116479E+00  1.001747107E+01  1.136570484E+01  2.665600750E-07  0.00000E+00  9.000E+00
</event>
<event>
      5  10001  3.52971E+09  6.46891E+00 -1.00000E+00  2.20508E-01
      21    -1     0     0   515   511  0.000000000E+00  0.000000000E+00  1.676164457E+00  1.676164457E+00  0.000000000E+00  0.00000E+00  9.000E+00
       2    -1     0     0   513     0  0.000000000E+00  0.000000000E+00 -9.574511075E+01  9.574511075E+01  0.000000000E+00  0.00000E+00  9.000E+00
      21     1     1     2   513   511  1.080512382E+01  3.611629554E+00 -4.715560082E+01  4.851232067E+01  6.743495762E-07  0.00000E+00  9.000E+00
       2     1     1     2   512     0 -8.158254655E+00  1.010651388E+00 -3.302119255E+01  3.403067135E+01  3.300000131E-01  0.00000E+00  9.000E+00
      21     1     1     2   515   512 -2.646869164E+00 -4.622280943E+00 -1.389215292E+01  1.487828317E+01  2.384185791E-07  0.00000E+00  9.000E+00
</event>
<event>
      5  10001  3.52971E+09  5.93737E+00 -1.00000E+00  2.26176E-01
      21    -1     0     0   512   511  0.000000000E+00  0.000000000E+00  1.696610888E+01  1.696610888E+01  0.000000000E+00  0.00000E+00  9.000E+00
       1    -1     0     0   511     0  0.000000000E+00  0.000000000E+00 -1.122748432E+01  1.122748432E+01  0.000000000E+00  0.00000E+00  9.000E+00
      21     1     1     2   513   514 -1.621221379E+00  4.184986328E+00 -2.750514751E-01  4.496456676E+00  4.097819328E-08  0.00000E+00  9.000E+00
       1     1     1     2   514     0  6.201564016E+00 -1.180111963E+01  7.248600971E-01  1.335515417E+01  3.300000131E-01  0.00000E+00  9.000E+00
      21     1     1     2   512   513 -4.580342637E+00  7.616133301E+00  5.288815940E+00  1.034198236E+01  2.149076030E-07  0.00000E+00  9.000E+00
</event>
<event>
      5  10001 -3.52971E+09  4.02084E+00 -1.00000E+00  2.62931E-01
       2    -1     0     0   513     0  0.000000000E+00  0.000000000E+00  2.216949949E+03  2.216949949E+03  0.000000000E+00  0.00000E+00  9.000E+00
      21    -1     0     0   511   513  0.000000000E+00  0.000000000E+00 -2.125990816E-01  2.125990816E-01  0.000000000E+00  0.00000E+00  9.000E+00
      21     1     1     2   514   512  1.093581278E+00  9.352118052E+00  3.130454002E+02  3.131869739E+02  7.629394531E-06  0.00000E+00  9.000E+00
       2     1     1     2   512     0  1.152760656E-01 -1.318668198E+01  1.869719771E+03  1.869766305E+03  3.300000131E-01  0.00000E+00  9.000E+00
      21     1     1     2   511   514 -1.208857344E+00  3.834563927E+00  3.397217872E+01  3.420926985E+01  2.477718555E-06  0.00000E+00  9.000E+00
</event>
<event>
      5  10001  3.52971E+09  5.32439E+00 -1.00000E+00  2.33837E-01
      21    -1     0     0   515   512  0.000000000E+00  0.000000000E+00  2.326540122E+01  2.326540122E+01  0.000000000E+00  0.00000E+00  9.000E+00
      21    -1     0     0   511   514  0.000000000E+00  0.000000000E+00 -7.250529045E+01  7.250529045E+01  0.000000000E+00  0.00000E+00  9.000E+00
      21     1     1     2   515   514  1.011257127E+01  6.362930413E+00  1.997104483E+01  2.327216390E+01  2.384185791E-07  0.00000E+00  9.000E+00
      21     1     1     2   511   513 -1.177726616E+01 -3.342002355E+00 -6.758581130E+01  6.868562344E+01  9.536743164E-07  0.00000E+00  9.000E+00
      21     1     1     2   513   512  1.664694899E+00 -3.020928058E+00 -1.625122756E+00  3.812904327E+00  4.214684851E-08  0.00000E+00  9.000E+00
</event>
<event>
      5  10001  3.52971E+09  5.01251E+00 -1.00000E+00  2.38320E-01
      21    -1     0     0   513   511  0.000000000E+00  0.000000000E+00  3.687790529E+01  3.687790529E+01  0.000000000E+00  0.00000E+00  9.000E+00
       4    -1     0     0   512     0  0.000000000E+00  0.000000000E+00 -1.828907488E+01  1.828907488E+01  0.000000000E+00  0.00000E+00  9.000E+00
      21     1     1     2   512   511  6.944353900E+00 -7.869850450E+00  3.419054642E+01  3.576523538E+01  4.768371582E-07  0.00000E+00  9.000E+00
       4     1     1     2   514     0 -3.553714355E+00  1.334673964E+00 -6.752630379E+00  7.890390189E+00  1.500000000E+00  0.00000E+00  9.000E+00
      21     1     1     2   513   514 -3.390639545E+00  6.535176486E+00 -8.849085629E+00  1.151135460E+01  1.685873940E-07  0.00000E+00  9.000E+00
</event>
<event>
      5  10001  3.52971E+09  5.23421E+00 -1.00000E+00  2.35087E-01
      21    -1     0     0   512   511  0.000000000E+00  0.000000000E+00  6.478501533E+01  6.478501533E+01  0.000000000E+00  0.00000E+00  9.000E+00
      -5    -1     0     0     0   515  0.000000000E+00  0.000000000E+00 -6.833780425E+01  6.833780425E+01  0.000000000E+00  0.00000E+00  9.000E+00
      -5     1     1     2     0   514  7.284799689E+00  8.137328362E+00 -6.665797288E+01  6.771713055E+01  4.800000191E+00  0.00000E+00  9.000E+00
      21     1     1     2   512   515 -2.470483739E+00 -1.017382281E+01  5.304685760E+01  5.407013096E+01  1.348699152E-06  0.00000E+00  9.000E+00
      21     1     1     2   514   511 -4.814315951E+00  2.036494449E+00  1.005832635E+01  1.133555807E+01  1.192092896E-07  0.00000E+00  9.000E+00
</event>
<event>
      5  10001  3.52971E+09  7.19786E+00 -1.00000E+00  2.13851E-01
      -3    -1     0     0     0   511  0.000000000E+00  0.000000000E+00  6.630339936E+00  6.630339936E+00  0.000000000E+00  0.00000E+00  9.000E+00
       2    -1     0     0   511     0  0.000000000E+00  0.000000000E+00 -2.875114320E+02  2.875114320E+02  0.000000000E+00  0.00000E+00  9.000E+00
      -3     1     1     2     0   515  4.206024930E+00 -1.435033373E+01 -5.595175037E+00  1.597431399E+01  5.000000000E-01  0.00000E+00  9.000E+00
      21     1     1     2   515   513 -4.289416260E+00  2.154727361E+01 -8.657918290E+01  8.932322768E+01  1.907348633E-06  0.00000E+00  9.000E+00
       2     1     1     2   513     0  8.339133016E-02 -7.196939887E+00 -1.887067342E+02  1.888442303E+02  3.300000131E-01  0.00000E+00  9.000E+00
</event>
<event>
      5  10001  3.52971E+09  8.20669E+00 -1.00000E+00  2.06227E-01
      21    -1     0     0   512   516  0.000000000E+00  0.000000000E+00  9.914430895E+00  9.914430895E+00  0.000000000E+00  0.00000E+00  9.000E+00
      21    -1     0     0   511   514  0.000000000E+00  0.000000000E+00 -5.757104309E+02  5.757104309E+02  0.000000000E+00  0.00000E+00  9.000E+00
      21     1     1     2   512   514 -1.260197548E+01  9.204953697E+00 -2.181596321E+02  2.187170914E+02  3.814697266E-06  0.00000E+00  9.000E+00
      21     1     1     2   511   515  5.024580361E+00 -6.053303033E+00 -3.554732175E+02  3.555602583E+02  7.629394531E-06  0.00000E+00  9.000E+00
      21     1     1     2   515   516  7.577395122E+00 -3.151650664E+00  7.836849683E+00  1.134751214E+01  7.539457465E-07  0.00000E+00  9.000E+00
</event>
<event>
      5  10001  3.52971E+09  8.42298E+00 -1.00000E+00  2.04782E-01
       1    -1     0     0   511     0  0.000000000E+00  0.000000000E+00  4.543587033E+02  4.543587033E+02  0.000000000E+00  0.00000E+00  9.000E+00
      21    -1     0     0   513   515  0.000000000E+00  0.000000000E+00 -5.180205577E-01  5.180205577E-01  0.000000000E+00  0.00000E+00  9.000E+00
      21     1     1     2   511   512  4.751104627E+00 -5.352645422E-01  2.061960609E+02  2.062514849E+02  0.000000000E+00  0.00000E+00  9.000E+00
       1     1     1     2   513     0 -9.644625817E+00  7.491915465E+00  1.013693984E+02  1.021029453E+02  3.300000131E-01  0.00000E+00  9.000E+00
      21     1     1     2   512   515  4.893521190E+00 -6.956650922E+00  1.462752234E+02  1.465222937E+02  2.697398305E-06  0.00000E+00  9.000E+00
</event>
<event>
      5  10001  3.52971E+09  8.95909E+00 -1.00000E+00  2.01437E-01
      21    -1     0     0   514   513  0.000000000E+00  0.000000000E+00  2.926900133E+00  2.926900133E+00  0.000000000E+00  0.00000E+00  9.000E+00
       2    -1     0     0   512     0  0.000000000E+00  0.000000000E+00 -1.680700636E+03  1.680700636E+03  0.000000000E+00  0.00000E+00  9.000E+00
      21     1     1     2   512   513  1.387869514E+01  1.082760491E+01 -2.440960588E+01  3.009458533E+01  2.286830675E-06  0.00000E+00  9.000E+00
       2     1     1     2   511     0 -1.626795828E+01 -4.671209380E+00 -1.253252243E+03  1.253366571E+03  3.300000131E-01  0.00000E+00  9.000E+00
      21     1     1     2   514   511  2.389263134E+00 -6.156395534E+00 -4.001118870E+02  4.001663803E+02  5.394796609E-06  0.00000E+00  9.000E+00
</event>
<event>
      5  10001  3.52971E+09  4.47363E+00 -1.00000E+00  2.52513E-01
      -1    -1     0     0     0   511  0.000000000E+00  0.000000000E+00  1.148570242E+02  1.148570242E+02  0.000000000E+00  0.00000E+00  9.000E+00
      21    -1     0     0   512   516  0.000000000E+00  0.000000000E+00 -2.806123580E+02  2.806123580E+02  0.000000000E+00  0.00000E+00  9.000E+00
      21     1     1     2   515   516  1.316465528E+01  6.568578145E+00 -2.252138770E+01  2.690106450E+01  1.507891493E-06  0.00000E+00  9.000E+00
      21     1     1     2   512   511 -8.885863245E+00 -7.874447405E+00 -2.557186886E+02  2.559941663E+02  0.000000000E+00  0.00000E+00  9.000E+00
      -1     1     1     2     0   515 -4.278792032E+00  1.305869259E+00  1.124847425E+02  1.125741513E+02  3.300000131E-01  0.00000E+00  9.000E+00
</event>
<event>
      5  10001  3.52971E+09  3.24499E+01 -1.00000E+00  1.50706E-01
      21    -1     0     0   513   511  0.000000000E+00  0.000000000E+00  1.639186287E+02  1.639186287E+02  0.000000000E+00  0.00000E+00  9.000E+00
      21    -1     0     0   514   513  0.000000000E+00  0.000000000E+00 -3.115137684E+01  3.115137684E+01  0.000000000E+00  0.00000E+00  9.000E+00
      21     1     1     2   512   511 -9.589899017E+00 -2.474155572E+01  1.525042066E+02  1.547954901E+02  1.907348633E-06  0.00000E+00  9.000E+00
      21     1     1     2   514   516 -5.616253346E+00  1.413597370E+01 -3.449867364E+00  1.559710354E+01  3.885747436E-07  0.00000E+00  9.000E+00
      21     1     1     2   516   512  1.520615236E+01  1.060558203E+01 -1.628708738E+01  2.467741184E+01  1.238859277E-06  0.00000E+00  9.000E+00
</event>
<event>
      5  10001  3.52971E+09  1.22082E+01 -1.00000E+00  1.86242E-01
      21    -1     0     0   515   511  0.000000000E+00  0.000000000E+00  2.034221542E+02  2.034221542E+02  0.000000000E+00  0.00000E+00  9.000E+00
      21    -1     0     0   517   515  0.000000000E+00  0.000000000E+00 -2.271737459E+00  2.271737459E+00  0.000000000E+00  0.00000E+00  9.000E+00
      21     1     1     2   517   512  3.639026363E+00 -1.042899774E+01  1.264534029E+01  1.679020958E+01  1.685873940E-07  0.00000E+00  9.000E+00
      21     1     1     2   513   511 -1.813527964E+00  1.534936749E-01  3.064458797E+01  3.069858655E+01  4.768371582E-07  0.00000E+00  9.000E+00
      21     1     1     2   512   513 -1.825498399E+00  1.027550407E+01  1.578604885E+02  1.582050955E+02  0.000000000E+00  0.00000E+00  9.000E+00
</event>
<event>
      5  10001  3.52971E+09  4.82082E+00 -1.00000E+00  2.45718E-01
      -3    -1     0     0     0   514  0.000000000E+00  0.000000000E+00  3.677442475E+02  3.677442475E+02  0.000000000E+00  0.00000E+00  9.000E+00
      21    -1     0     0   515   513  0.000000000E+00  0.000000000E+00 -1.448670439E+00  1.448670439E+00  0.000000000E+00  0.00000E+00  9.000E+00
      -3     1     1     2     0   513 -4.144420036E+00 -1.062741296E+01  3.175491483E+02  3.177543543E+02  5.000000000E-01  0.00000E+00  9.000E+00
      21     1     1     2   511   514  8.101810383E+00  7.875409676E+00  3.833588257E+01  3.996625203E+01  1.651812370E-06  0.00000E+00  9.000E+00
      21     1     1     2   515   511 -3.957390347E+00  2.752003283E+00  1.041054619E+01  1.147231156E+01  2.384185791E-07  0.00000E+00  9.000E+00
</event>
<event>
      5  10001  3.52971E+09  6.83612E+00 -1.00000E+00  2.17012E-01
      21    -1     0     0   512   511  0.000000000E+00  0.000000000E+00  8.504975189E+01  8.504975189E+01  0.000000000E+00  0.00000E+00  9.000E+00
      21    -1     0     0   515   512  0.000000000E+00  0.000000000E+00 -9.472546962E+00  9.472546962E+00  0.000000000E+00  0.00000E+00  9.000E+00
      21     1     1     2   515   516 -2.252493800E+00 -1.089271831E+01 -4.998765171E+00  1.219478141E+01  1.788139343E-07  0.00000E+00  9.000E+00
      21     1     1     2   513   511 -3.002671008E+00  8.229998466E+00  6.641027920E+01  6.698562600E+01  0.000000000E+00  0.00000E+00  9.000E+00
      21     1     1     2   516   513  5.255164808E+00  2.662719844E+00  1.416569090E+01  1.534189144E+01  2.920019320E-07  0.00000E+00  9.000E+00
</event>
<event>
      5  10001  3.52971E+09  3.47141E+00 -1.00000E+00  2.78862E-01
       2    -1     0     0   512     0  0.000000000E+00  0.000000000E+00  6.400889327E+01  6.400889327E+01  0.000000000E+00  0.00000E+00  9.000E+00
      21    -1     0     0   511   512  0.000000000E+00  0.000000000E+00 -1.588600460E+01  1.588600460E+01  0.000000000E+00  0.00000E+00  9.000E+00
      21     1     1     2   513   514 -1.856427946E+01 -1.224613278E+01  2.251093967E+01  3.164399856E+01  5.331201500E-07  0.00000E+00  9.000E+00
       2     1     1     2   514     0  1.989316999E+01  1.545300048E+01  3.215243370E+01  4.084631353E+01  3.300000131E-01  0.00000E+00  9.000E+00
      21     1     1     2   511   513 -1.328890526E+00 -3.206867704E+00 -6.540484701E+00  7.404585784E+00  8.429369702E-08  0.00000E+00  9.000E+00
</event>
<event>
      5  10001  3.52971E+09  8.19564E+00 -1.00000E+00  2.06303E-01
       2    -1     0     0   512     0  0.000000000E+00  0.000000000E+00  1.502897360E+02  1.502897360E+02  0.000000000E+00  0.00000E+00  9.000E+00
       3    -1     0     0   514     0  0.000000000E+00  0.000000000E+00 -6.956508335E+00  6.956508335E+00  0.000000000E+00  0.00000E+00  9.000E+00
       2     1     1     2   511     0 -1.998952712E+00 -1.804929085E+01  1.106781480E+02  1.121585220E+02  3.300000131E-01  0.00000E+00  9.000E+00
       3     1     1     2   512     0 -5.173442039E+00  2.201313359E+01  2.117950601E+01  3.098651365E+01  5.000000000E-01  0.00000E+00  9.000E+00
      21     1     1     2   514   511  7.172394750E+00 -3.963842745E+00  1.147557365E+01  1.410120869E+01  0.000000000E+00  0.00000E+00  9.000E+00
</event>
<event>
      5  10001  3.52971E+09  7.43982E+00 -1.00000E+00  2.11875E-01
      21    -1     0     0   513   515  0.000000000E+00  0.000000000E+00  5.271137990E+00  5.271137990E+00  0.000000000E+00  0.00000E+00  9.000E+00
      21    -1     0     0   514   511  0.000000000E+00  0.000000000E+00 -6.227100079E+01  6.227100079E+01  0.000000000E+00  0.00000E+00  9.000E+00
      21     1     1     2   513   511 -7.433046953E+00 -7.609980496E+00 -3.060571095E+00  1.106928569E+01  1.884864366E-07  0.00000E+00  9.000E+00
      21     1     1     2   512   515  9.335419715E+00  2.887683444E+00 -4.610842551E+01  4.713253313E+01  6.743495762E-07  0.00000E+00  9.000E+00
      21     1     1     2   514   512 -1.902372762E+00  4.722297052E+00 -7.830866201E+00  9.340319964E+00  1.192092896E-07  0.00000E+00  9.000E+00
</event>
<event>
      5  10001  3.52971E+09  7.82739E+00 -1.00000E+00  2.08912E-01
      21    -1     0     0   516   511  0.000000000E+00  0.000000000E+00  4.944346184E+00  4.944346184E+00  0.000000000E+00  0.00000E+00  9.000E+00
      21    -1     0     0   514   517  0.000000000E+00  0.000000000E+00 -2.574053833E+02  2.574053833E+02  0.000000000E+00  0.00000E+00  9.000E+00
      21     1     1     2   516   517  1.703617184E+01  2.343166074E+00 -1.273756793E+01  2.140016857E+01  5.840038640E-07  0.00000E+00  9.000E+00
      21     1     1     2   514   513 -1.380371679E+01  3.210198603E+00 -2.127416220E+02  2.132131462E+02  3.814697266E-06  0.00000E+00  9.000E+00
      21     1     1     2   513   511 -3.232455049E+00 -5.553364677E+00 -2.698184722E+01  2.773641477E+01  3.371747881E-07  0.00000E+00  9.000E+00
</event>
<event>
      5  10001  3.52971E+09  2.37537E+01 -1.00000E+00  1.60429E-01
      21    -1     0     0   512   514  0.000000000E+00  0.000000000E+00  2.392609475E+01  2.392609475E+01  0.000000000E+00  0.00000E+00  9.000E+00
      21    -1     0     0   515   511  0.000000000E+00  0.000000000E+00 -2.115189689E+02  2.115189689E+02  0.000000000E+00  0.00000E+00  9.000E+00
      21     1     1     2   512   511 -1.046768394E+01  4.191721072E+00  2.168494615E+01  2.444135475E+01  8.259061849E-07  0.00000E+00  9.000E+00
      21     1     1     2   516   514 -1.343266771E+00  7.890761313E+00 -1.106447705E+02  1.109339160E+02  1.348699152E-06  0.00000E+00  9.000E+00
      21     1     1     2   515   516  1.181095071E+01 -1.208248239E+01 -9.863304977E+01  1.000697929E+02  1.348699152E-06  0.00000E+00  9.000E+00
</event>
<event>
      5  10001  3.52971E+09  3.51649E+00 -1.00000E+00  2.77381E-01
      -3    -1     0     0     0   515  0.000000000E+00  0.000000000E+00  2.049131314E+02  2.049131314E+02  0.000000000E+00  0.00000E+00  9.000E+00
      -2    -1     0     0     0   513  0.000000000E+00  0.000000000E+00 -8.511829896E+00  8.511829896E+00  0.000000000E+00  0.00000E+00  9.000E+00
      -2     1     1     2     0   512  8.314772664E+00  2.505543296E+00 -3.154989882E+00  9.245325999E+00  3.300000131E-01  0.00000E+00  9.000E+00
      21     1     1     2   512   515 -1.174347461E+01 -1.725647582E+00  1.305398402E+01  1.764351309E+01  2.920019320E-07  0.00000E+00  9.000E+00
      -3     1     1     2     0   513  3.428701943E+00 -7.798957138E-01  1.865023074E+02  1.865361222E+02  5.000000000E-01  0.00000E+00  9.000E+00
</event>
<event>
      5  10001  3.52971E+09  5.59469E+00 -1.00000E+00  2.30289E-01
      21    -1     0     0   513   514  0.000000000E+00  0.000000000E+00  2.829788177E+02  2.829788177E+02  0.000000000E+00  0.00000E+00  9.000E+00
      21    -1     0     0   511   513  0.000000000E+00  0.000000000E+00 -8.387300731E-01  8.387300731E-01  0.000000000E+00  0.00000E+00  9.000E+00
      -4     1     1     2     0   514  7.505327013E+00 -9.164299856E+00  1.671650692E+02  1.675909445E+02  1.500000000E+00  0.00000E+00  9.000E+00
       4     1     1     2   512     0 -1.007269112E+01  8.239142978E+00  7.322220562E+01  7.438470258E+01  1.500000000E+00  0.00000E+00  9.000E+00
      21     1     1     2   511   512  2.567364103E+00  9.251568782E-01  4.175281280E+01  4.184190066E+01  4.768371582E-07  0.00000E+00  9.000E+00
</event>
<event>
      5  10001  3.52971E+09  9.12412E+00 -1.00000E+00  2.00470E-01
      21    -1     0     0   515   512  0.000000000E+00  0.000000000E+00  4.893454993E+01  4.893454993E+01  0.000000000E+00  0.00000E+00  9.000E+00
      21    -1     0     0   511   516  0.000000000E+00  0.000000000E+00 -7.070878656E+01  7.070878656E+01  0.000000000E+00  0.00000E+00  9.000E+00
      21     1     1     2   515   516 -1.056739300E+01  1.130550608E+01  4.673112913E+01  4.922684931E+01  9.536743164E-07  0.00000E+00  9.000E+00
      21     1     1     2   513   512  2.638075906E+00 -5.417158614E-01 -1.660014094E+01  1.681718109E+01  2.384185791E-07  0.00000E+00  9.000E+00
      21     1     1     2   511   513  7.929317098E+00 -1.076379022E+01 -5.190522483E+01  5.359930609E+01  9.536743164E-07  0.00000E+00  9.000E+00
</event>
<event>
      5  10001  3.52971E+09  9.56039E+00 -1.00000E+00  1.98037E-01
      21    -1     0     0   514   512  0.000000000E+00  0.000000000E+00  5.621221795E+00  5.621221795E+00  0.000000000E+00  0.00000E+00  9.000E+00
      21    -1     0     0   511   514  0.000000000E+00  0.000000000E+00 -1.356008632E+02  1.356008632E+02  0.000000000E+00  0.00000E+00  9.000E+00
      21     1     1     2   513   512  5.994719433E+00 -1.158376173E+01 -4.175352702E+00  1.369502709E+01  2.230201594E-07  0.00000E+00  9.000E+00
      21     1     1     2   511   515  1.275732015E+00  1.151112473E+01 -1.014969411E+02  1.021555801E+02  1.348699152E-06  0.00000E+00  9.000E+00
      21     1     1     2   515   513 -7.270451448E+00  7.263699624E-02 -2.430734757E+01  2.537147781E+01  3.371747881E-07  0.00000E+00  9.000E+00
</event>
<event>
      5  10001  3.52971E+09  8.99979E+00 -1.00000E+00  2.01196E-01
      21    -1     0     0   515   511  0.000000000E+00  0.000000000E+00  9.415660095E+01  9.415660095E+01  0.000000000E+00  0.00000E+00  9.000E+00
      -2    -1     0     0     0   513  0.000000000E+00  0.000000000E+00 -2.252212294E+01  2.252212294E+01  0.000000000E+00  0.00000E+00  9.000E+00
      -2     1     1     2     0   511 -6.917434031E+00  8.184440778E+00 -2.007089119E+01  2.275490139E+01  3.300000131E-01  0.00000E+00  9.000E+00
      21     1     1     2   515   512 -9.629959650E-01 -6.346540695E+00  7.586688051E+01  7.613796358E+01  0.000000000E+00  0.00000E+00  9.000E+00
      21     1     1     2   512   513  7.880429996E+00 -1.837900083E+00  1.583848869E+01  1.778585892E+01  2.384185791E-07  0.00000E+00  9.000E+00
</event>
<event>
      5  10001  3.52971E+09  9.43803E+00 -1.00000E+00  1.98702E-01
       3    -1     0     0   513     0  0.000000000E+00  0.000000000E+00  3.476593183E+02  3.476593183E+02  0.000000000E+00  0.00000E+00  9.000E+00
      21    -1     0     0   514   513  0.000000000E+00  0.000000000E+00 -1.217593041E+00  1.217593041E+00  0.000000000E+00  0.00000E+00  9.000E+00
      21     1     1     2   514   512 -5.173052600E+00 -1.017016416E+01  3.205582694E+01  3.402600113E+01  6.743495762E-07  0.00000E+00  9.000E+00
       3     1     1     2   511     0 -1.873568814E+00  9.313392892E+00  2.159248235E+02  2.161342846E+02  5.000000000E-01  0.00000E+00  9.000E+00
      21     1     1     2   512   511  7.046621413E+00  8.567712643E-01  9.846107479E+01  9.871662564E+01  1.348699152E-06  0.00000E+00  9.000E+00
</event>
<event>
      5  10001  3.52971E+09  7.83413E+00 -1.00000E+00  2.08862E-01
      21    -1     0     0   515   514  0.000000000E+00  0.000000000E+00  1.197614116E+01  1.197614116E+01  0.000000000E+00  0.00000E+00  9.000E+00
      21    -1     0     0   516   515  0.000000000E+00  0.000000000E+00 -8.678428193E+00  8.678428193E+00  0.000000000E+00  0.00000E+00  9.000E+00
      21     1     1     2   511   514 -5.235985163E+00 -7.138979552E+00  1.116429332E+00  8.923395325E+00  2.502330486E-07  0.00000E+00  9.000E+00
      21     1     1     2   516   513  2.378499092E+00  3.352717265E+00 -2.705197958E+00  4.920982319E+00  8.429369702E-08  0.00000E+00  9.000E+00
      21     1     1     2   513   511  2.857486071E+00  3.786262287E+00  4.886481597E+00  6.810191712E+00  8.429369702E-08  0.00000E+00  9.000E+00
</event>
<event>
      5  10001  3.52971E+09  5.29319E+00 -1.00000E+00  2.34265E-01
      21    -1     0     0   512   514  0.000000000E+00  0.000000000E+00  1.466385879E+01  1.466385879E+01  0.000000000E+00  0.00000E+00  9.000E+00
      21    -1     0     0   515   512  0.000000000E+00  0.000000000E+00 -3.751963447E+01  3.751963447E+01  0.000000000E+00  0.00000E+00  9.000E+00
      21     1     1     2   517   511  1.049611195E+01  8.387448582E+00 -2.771695061E+01  3.080173714E+01  5.840038640E-07  0.00000E+00  9.000E+00
      21     1     1     2   511   514 -7.991558257E+00 -3.724285011E+00  1.045781432E+01  1.367849343E+01  1.192092896E-07  0.00000E+00  9.000E+00
      21     1     1     2   515   517 -2.504553692E+00 -4.663163571E+00 -5.596639388E+00  7.703262694E+00  1.032382731E-07  0.00000E+00  9.000E+00
</event>
<event>
      5  10001  3.52971E+09  5.63991E+00 -1.00000E+00  2.29722E-01
      21    -1     0     0   513   514  0.000000000E+00  0.000000000E+00  1.021906886E+01  1.021906886E+01  0.000000000E+00  0.00000E+00  9.000E+00
      21    -1     0     0   515   513  0.000000000E+00  0.000000000E+00 -4.206515782E+01  4.206515782E+01  0.000000000E+00  0.00000E+00  9.000E+00
      21     1     1     2   516   514  1.061368652E+01 -5.603364579E+00  5.229645463E+00  1.309187640E+01  1.192092896E-07  0.00000E+00  9.000E+00
      21     1     1     2   511   516 -2.474494393E+00  8.555366776E-01 -1.441103713E+01  1.464694701E+01  2.384185791E-07  0.00000E+00  9.000E+00
      21     1     1     2   515   511 -8.139192125E+00  4.747827901E+00 -2.266469729E+01  2.454540327E+01  0.000000000E+00  0.00000E+00  9.000E+00
</event>
<event>
      5  10001  3.52971E+09  1.78771E+01 -1.00000E+00  1.70490E-01
      21    -1     0     0   512   516  0.000000000E+00  0.000000000E+00  1.553446472E+02  1.553446472E+02  0.000000000E+00  0.00000E+00  9.000E+00
      21    -1     0     0   515   512  0.000000000E+00  0.000000000E+00 -5.720595783E+01  5.720595783E+01  0.000000000E+00  0.00000E+00  9.000E+00
      21     1     1     2   511   516  1.878657325E+01  1.416161689E+01  1.484756728E+02  1.503280151E+02  1.907348633E-06  0.00000E+00  9.000E+00
      21     1     1     2   513   511 -5.388683931E+00 -1.975859065E+01 -3.800706997E+01  4.317380209E+01  2.697398305E-06  0.00000E+00  9.000E+00
      21     1     1     2   515   513 -1.339788932E+01  5.596973756E+00 -1.232991341E+01  1.904878784E+01  4.129530925E-07  0.00000E+00  9.000E+00
</event>
<event>
      5  10001  3.52971E+09  1.03084E+01 -1.00000E+00  1.94240E-01
      21    -1     0     0   513   511  0.000000000E+00  0.000000000E+00  1.526510505E+01  1.526510505E+01  0.000000000E+00  0.00000E+00  9.000E+00
       2    -1     0     0   511     0  0.000000000E+00  0.000000000E+00 -7.014960074E+01  7.014960074E+01  0.000000000E+00  0.00000E+00  9.000E+00
      21     1     1     2   513   514 -1.651108147E+01  2.189502229E+00  8.035441022E+00  1.849264837E+01  3.153981341E-07  0.00000E+00  9.000E+00
       2     1     1     2   512     0  1.279303006E+01  5.345478781E+00 -4.575874481E+01  4.781430109E+01  3.300000131E-01  0.00000E+00  9.000E+00
      21     1     1     2   514   512  3.718051404E+00 -7.534981010E+00 -1.716119190E+01  1.910775634E+01  3.371747881E-07  0.00000E+00  9.000E+00
</event>
<event>
      5  10001  3.52971E+09  7.28543E+00 -1.00000E+00  2.13124E-01
      21    -1     0     0   513   511  0.000000000E+00  0.000000000E+00  3.965722448E+01  3.965722448E+01  0.000000000E+00  0.00000E+00  9.000E+00
       5    -1     0     0   512     0  0.000000000E+00  0.000000000E+00 -3.378487192E+01  3.378487192E+01  0.000000000E+00  0.00000E+00  9.000E+00
      21     1     1     2   512   511  1.217813879E+01 -3.646474985E+00 -5.263359374E+00  1.375888063E+01  2.920019320E-07  0.00000E+00  9.000E+00
       5     1     1     2   515     0 -1.365857321E+01  1.073923315E+01 -2.045967463E+01  2.726767387E+01  4.800000191E+00  0.00000E+00  9.000E+00
      21     1     1     2   513   515  1.480434417E+00 -7.092758162E+00  3.159538656E+01  3.241554190E+01  3.371747881E-07  0.00000E+00  9.000E+00
</event>
<event>
      5  10001  3.52971E+09  4.23868E+00 -1.00000E+00  2.57669E-01
      -1    -1     0     0     0   514  0.000000000E+00  0.000000000E+00  4.849477717E+02  4.849477717E+02  0.000000000E+00  0.00000E+00  9.000E+00
      21    -1     0     0   514   513  0.000000000E+00  0.000000000E+00 -3.244540103E+00  3.244540103E+00  0.000000000E+00  0.00000E+00  9.000E+00
      -1     1     1     2     0   511 -1.488378197E+01  2.269412499E+01  4.012682161E+02  4.021850823E+02  3.300000131E-01  0.00000E+00  9.000E+00
      21     1     1     2   512   513  1.226377062E+01 -2.360378301E+01  6.349237210E+01  6.883908742E+01  1.168007728E-06  0.00000E+00  9.000E+00
      21     1     1     2   511   512  2.620011352E+00  9.096580219E-01  1.694264341E+01  1.716814209E+01  0.000000000E+00  0.00000E+00  9.000E+00
</event>
<event>
      5  10001  3.52971E+09  1.71529E+01 -1.00000E+00  1.72063E-01
      21    -1     0     0   512   513  0.000000000E+00  0.000000000E+00  1.864760816E+02  1.864760816E+02  0.000000000E+00  0.00000E+00  9.000E+00
      21    -1     0     0   515   512  0.000000000E+00  0.000000000E+00 -8.657989069E-01  8.657989069E-01  0.000000000E+00  0.00000E+00  9.000E+00
      21     1     1     2   514   513 -4.410301545E+00  3.469345045E+00  1.173403797E+02  1.174744731E+02  1.907348633E-06  0.00000E+00  9.000E+00
       4     1     1     2   515     0  5.992107157E+00  3.374485018E+00  4.391343817E+01  4.447395361E+01  1.500000000E+00  0.00000E+00  9.000E+00
      -4     1     1     2     0   514 -1.581805613E+00 -6.843830064E+00  2.435646485E+01  2.539345386E+01  1.500000000E+00  0.00000E+00  9.000E+00
</event>
<event>
      5  10001  3.52971E+09  1.09474E+01 -1.00000E+00  1.91315E-01
      21    -1     0     0   511   515  0.000000000E+00  0.000000000E+00  6.708198289E+00  6.708198289E+00  0.000000000E+00  0.00000E+00  9.000E+00
      21    -1     0     0   513   514  0.000000000E+00  0.000000000E+00 -2.137061899E+02  2.137061899E+02  0.000000000E+00  0.00000E+00  9.000E+00
      21     1     1     2   511   514 -2.498871329E+00  1.274021827E+01 -5.859811159E-02  1.298310261E+01  7.709753557E-08  0.00000E+00  9.000E+00
      21     1     1     2   512   515  2.463127160E-02 -5.097651571E+00 -4.406027997E+01  4.435419856E+01  6.743495762E-07  0.00000E+00  9.000E+00
      21     1     1     2   513   512  2.474240057E+00 -7.642566701E+00 -1.628791135E+02  1.630770870E+02  2.697398305E-06  0.00000E+00  9.000E+00
</event>
<event>
      5  10001  3.52971E+09  5.97304E+00 -1.00000E+00  2.25770E-01
       2    -1     0     0   513     0  0.000000000E+00  0.000000000E+00  2.852655816E+01  2.852655816E+01  0.000000000E+00  0.00000E+00  9.000E+00
      21    -1     0     0   516   511  0.000000000E+00  0.000000000E+00 -9.778106640E+01  9.778106640E+01  0.000000000E+00  0.00000E+00  9.000E+00
      21     1     1     2   513   512 -9.627833580E+00 -9.365057103E-01  1.050233757E+01  1.427835133E+01  2.384185791E-07  0.00000E+00  9.000E+00
       2     1     1     2   516     0  1.117142072E+01 -4.833529694E+00  1.373005677E+01  1.835175765E+01  3.300000131E-01  0.00000E+00  9.000E+00
      21     1     1     2   512   511 -1.543587136E+00  5.770035404E+00 -9.348690258E+01  9.367751557E+01  1.348699152E-06  0.00000E+00  9.000E+00
</event>
<event>
      5  10001  3.52971E+09  6.35355E+00 -1.00000E+00  2.21672E-01
      21    -1     0     0   513   511  0.000000000E+00  0.000000000E+00  2.850988729E+01  2.850988729E+01  0.000000000E+00  0.00000E+00  9.000E+00
      21    -1     0     0   512   515  0.000000000E+00  0.000000000E+00 -1.197052720E+01  1.197052720E+01  0.000000000E+00  0.00000E+00  9.000E+00
      21     1     1     2   514   515  8.248170355E+00  6.332510884E+00  4.450929291E+00  1.131122362E+01  2.064765462E-07  0.00000E+00  9.000E+00
      21     1     1     2   512   511 -5.431758925E+00 -1.202771845E+01 -2.340566638E+00  1.340329319E+01  1.490116119E-07  0.00000E+00  9.000E+00
      21     1     1     2   513   514 -2.816411430E+00  5.695207569E+00  1.442899743E+01  1.576589768E+01  1.685873940E-07  0.00000E+00  9.000E+00
</event>
<event>
      5  10001  3.52971E+09  1.24327E+01 -1.00000E+00  1.85421E-01
      21    -1     0     0   516   512  0.000000000E+00  0.000000000E+00  7.262544860E+01  7.262544860E+01  0.000000000E+00  0.00000E+00  9.000E+00
      21    -1     0     0   511   516  0.000000000E+00  0.000000000E+00 -3.924930845E+01  3.924930845E+01  0.000000000E+00  0.00000E+00  9.000E+00
      21     1     1     2   517   514  6.167135765E+00  5.645352120E+00 -1.407715485E+01  1.637283887E+01  3.769728732E-07  0.00000E+00  9.000E+00
      21     1     1     2   514   512  1.594404638E+00 -1.535777374E+01  6.895607633E+01  7.066359602E+01  9.536743164E-07  0.00000E+00  9.000E+00
      21     1     1     2   511   517 -7.761540403E+00  9.712421618E+00 -2.150278132E+01  2.483832215E+01  4.129530925E-07  0.00000E+00  9.000E+00
</event>
<event>
      5  10001  3.52971E+09  5.41723E+00 -1.00000E+00  2.32585E-01
       2    -1     0     0   513     0  0.000000000E+00  0.000000000E+00  1.117577089E+03  1.117577089E+03  0.000000000E+00  0.00000E+00  9.000E+00
      -2    -1     0     0     0   513  0.000000000E+00  0.000000000E+00 -1.594401494E-01  1.594401494E-01  0.000000000E+00  0.00000E+00  9.000E+00
      -2     1     1     2     0   512  4.187876696E+00 -6.253927116E+00  1.210260315E+02  1.212602949E+02  3.300000131E-01  0.00000E+00  9.000E+00
       2     1     1     2   511     0 -5.573979791E+00  8.533979112E+00  7.295908180E+02  7.296620921E+02  3.300000131E-01  0.00000E+00  9.000E+00
      21     1     1     2   512   511  1.386103095E+00 -2.280051996E+00  2.668007994E+02  2.668141422E+02  3.814697266E-06  0.00000E+00  9.000E+00
</event>
<event>
      5  10001  3.52971E+09  2.93926E+01 -1.00000E+00  1.53657E-01
      21    -1     0     0   514   511  0.000000000E+00  0.000000000E+00  6.975894026E+00  6.975894026E+00  0.000000000E+00  0.00000E+00  9.000E+00
       2    -1     0     0   512     0  0.000000000E+00  0.000000000E+00 -4.520816800E+01  4.520816800E+01  0.000000000E+00  0.00000E+00  9.000E+00
      21     1     1     2   512   511  1.274819937E+00  3.370795471E+00 -6.706813265E+00  7.613722621E+00  2.665600750E-07  0.00000E+00  9.000E+00
      21     1     1     2   514   513 -1.355481454E+00 -3.001016331E+00  6.105037381E+00  6.936491218E+00  3.953724850E-07  0.00000E+00  9.000E+00
       2     1     1     2   513     0  8.066151636E-02 -3.697791398E-01 -3.763049809E+01  3.763384818E+01  3.300000131E-01  0.00000E+00  9.000E+00
</event>
<event>
      5  10001  3.52971E+09  1.07573E+01 -1.00000E+00  1.92158E-01
      21    -1     0     0   515   511  0.000000000E+00  0.000000000E+00  9.766766222E+01  9.766766222E+01  0.000000000E+00  0.00000E+00  9.000E+00
      21    -1     0     0   511   512  0.000000000E+00  0.000000000E+00 -9.921377535E+00  9.921377535E+00  0.000000000E+00  0.00000E+00  9.000E+00
      21     1     1     2   515   513 -1.957518910E+01 -1.902696806E+01  4.758827312E+01  5.486216620E+01  0.000000000E+00  0.00000E+00  9.000E+00
       3     1     1     2   513     0  8.839362029E+00  1.966215616E+01  3.417653168E+01  4.041064246E+01  5.000000000E-01  0.00000E+00  9.000E+00
      -3     1     1     2     0   512  1.073582707E+01 -6.351881022E-01  5.981479881E+00  1.231623109E+01  5.000000000E-01  0.00000E+00  9.000E+00
</event>
<event>
      5  10001  3.52971E+09  7.40824E+00 -1.00000E+00  2.12127E-01
      21    -1     0     0   512   511  0.000000000E+00  0.000000000E+00  8.331915388E+00  8.331915388E+00  0.000000000E+00  0.00000E+00  9.000E+00
      -2    -1     0     0     0   513  0.000000000E+00  0.000000000E+00 -1.896624332E+02  1.896624332E+02  0.000000000E+00  0.00000E+00  9.000E+00
      -2     1     1     2     0   514 -2.413900223E-01  8.762980490E+00 -9.007562057E+01  9.050179234E+01  3.300000131E-01  0.00000E+00  9.000E+00
      21     1     1     2   514   511 -6.978438163E+00 -1.042198428E+01  3.041120226E+00  1.290599735E+01  2.230201594E-07  0.00000E+00  9.000E+00
      21     1     1     2   512   513  7.219828186E+00  1.659003786E+00 -9.429601748E+01  9.458655891E+01  1.907348633E-06  0.00000E+00  9.000E+00
</event>
<event>
      5  10001  3.52971E+09  6.87661E+00 -1.00000E+00  2.16645E-01
      21    -1     0     0   515   514  0.000000000E+00  0.000000000E+00  8.168252897E+01  8.168252897E+01  0.000000000E+00  0.00000E+00  9.000E+00
       2    -1     0     0   512     0  0.000000000E+00  0.000000000E+00 -3.696655124E+02  3.696655124E+02  0.000000000E+00  0.00000E+00  9.000E+00
      21     1     1     2   512   511 -8.411613239E+00  4.649049936E+00  7.853522568E+01  7.912111334E+01  1.651812370E-06  0.00000E+00  9.000E+00
       2     1     1     2   515     0  1.486723664E+01 -2.279944764E+00 -3.648379530E+02  3.651480162E+02  3.300000131E-01  0.00000E+00  9.000E+00
      21     1     1     2   511   514 -6.455623397E+00 -2.369105173E+00 -1.680256134E+00  7.078911882E+00  4.214684851E-08  0.00000E+00  9.000E+00
</event>
<event>
      5  10001  3.52971E+09  5.32018E+00 -1.00000E+00  2.33894E-01
      21    -1     0     0   515   514  0.000000000E+00  0.000000000E+00  3.733002498E+01  3.733002498E+01  0.000000000E+00  0.00000E+00  9.000E+00
      -4    -1     0     0     0   513  0.000000000E+00  0.000000000E+00 -7.517004109E+01  7.517004109E+01  0.000000000E+00  0.00000E+00  9.000E+00
      -4     1     1     2     0   514 -1.171548124E+00 -9.438996230E+00 -6.936931237E+01  7.003441063E+01  1.500000000E+00  0.00000E+00  9.000E+00
      21     1     1     2   512   513 -3.964113291E+00  1.082360638E+01  1.104593229E+00  1.157949806E+01  4.305894159E-07  0.00000E+00  9.000E+00
      21     1     1     2   515   512  5.135661415E+00 -1.384610149E+00  3.042470303E+01  3.088615738E+01  3.371747881E-07  0.00000E+00  9.000E+00
</event>
<event>
      5  10001  3.52971E+09  3.60590E+00 -1.00000E+00  2.74547E-01
      21    -1     0     0   511   512  0.000000000E+00  0.000000000E+00  6.592954679E+00  6.592954679E+00  0.000000000E+00  0.00000E+00  9.000E+00
      -2    -1     0     0     0   516  0.000000000E+00  0.000000000E+00 -2.895023256E+02  2.895023256E+02  0.000000000E+00  0.00000E+00  9.000E+00
      21     1     1     2   511   516 -2.569397320E+00  8.996925060E+00 -2.891522320E+01  3.039139016E+01  3.371747881E-07  0.00000E+00  9.000E+00
      21     1     1     2   514   512  4.972546147E+00 -1.168522797E+01 -1.059540721E+00  1.274336669E+01  1.163817894E-07  0.00000E+00  9.000E+00
      -2     1     1     2     0   514 -2.403148827E+00  2.688302912E+00 -2.529346070E+02  2.529605234E+02  3.300000131E-01  0.00000E+00  9.000E+00
</event>
<event>
      5  10001  3.52971E+09  4.50847E+00 -1.00000E+00  2.51789E-01
      21    -1     0     0   513   512  0.000000000E+00  0.000000000E+00  2.164042188E+01  2.164042188E+01  0.000000000E+00  0.00000E+00  9.000E+00
      -1    -1     0     0     0   511  0.000000000E+00  0.000000000E+00 -3.114625282E+01  3.114625282E+01  0.000000000E+00  0.00000E+00  9.000E+00
      -1     1     1     2     0   511 -2.559607371E+00  1.133092539E+01 -1.982140985E+01  2.297691556E+01  3.300000131E-01  0.00000E+00  9.000E+00
       1     1     1     2   513     0 -1.928146571E+00 -1.091043590E+01  1.785715171E+01  2.101766228E+01  3.300000131E-01  0.00000E+00  9.000E+00
      -1     1     1     2     0   512  4.487753942E+00 -4.204894870E-01 -7.541572798E+00  8.792096856E+00  3.300000131E-01  0.00000E+00  9.000E+00
</event>
<event>
      5  10001  3.52971E+09  1.51718E+01 -1.00000E+00  1.76915E-01
       1    -1     0     0   511     0  0.000000000E+00  0.000000000E+00  3.891018455E+02  3.891018455E+02  0.000000000E+00  0.00000E+00  9.000E+00
      21    -1     0     0   513   511  0.000000000E+00  0.000000000E+00 -7.218659408E+01  7.218659408E+01  0.000000000E+00  0.00000E+00  9.000E+00
      21     1     1     2   513   515  3.327986704E+01 -2.148153200E+01 -6.009145269E+01  7.197213665E+01  1.348699152E-06  0.00000E+00  9.000E+00
       1     1     1     2   514     0 -3.456639248E+01  9.529809292E+00  3.754923027E+02  3.772005184E+02  3.300000131E-01  0.00000E+00  9.000E+00
      21     1     1     2   515   514  1.286525444E+00  1.195172271E+01  1.514401350E+00  1.211578453E+01  2.075491589E-07  0.00000E+00  9.000E+00
</event>
<event>
      5  10001  3.52971E+09  1.10262E+01 -1.00000E+00  1.90973E-01
      21    -1     0     0   514   513  0.000000000E+00  0.000000000E+00  6.533243012E+01  6.533243012E+01  0.000000000E+00  0.00000E+00  9.000E+00
       2    -1     0     0   513     0  0.000000000E+00  0.000000000E+00 -3.361957652E+02  3.361957652E+02  0.000000000E+00  0.00000E+00  9.000E+00
      21     1     1     2   511   512  9.620689215E+00 -1.118081982E+01  4.166146922E+01  4.419554741E+01  2.236564522E-06  0.00000E+00  9.000E+00
       2     1     1     2   512     0 -1.347453940E+01  5.996502243E+00 -3.342970001E+02  3.346223460E+02  3.300000131E-01  0.00000E+00  9.000E+00
      21     1     1     2   514   511  3.853850180E+00  5.184317580E+00  2.177219574E+01  2.271030201E+01  1.192092896E-06  0.00000E+00  9.000E+00
</event>
<event>
      5  10001  3.52971E+09  1.81892E+01 -1.00000E+00  1.69840E-01
      21    -1     0     0   512   511  0.000000000E+00  0.000000000E+00  1.746350995E+02  1.746350995E+02  0.000000000E+00  0.00000E+00  9.000E+00
       5    -1     0     0   511     0  0.000000000E+00  0.000000000E+00 -1.914573222E+01  1.914573222E+01  0.000000000E+00  0.00000E+00  9.000E+00
      21     1     1     2   513   515 -3.531219342E+00  1.591341191E+01  9.470020769E+01  9.609284846E+01  0.000000000E+00  0.00000E+00  9.000E+00
       5     1     1     2   515     0  1.441292007E+01 -1.193380620E+01 -1.281194103E+01  2.318046225E+01  4.800000191E+00  0.00000E+00  9.000E+00
      21     1     1     2   512   513 -1.088170073E+01 -3.979605716E+00  7.360110063E+01  7.450752100E+01  1.348699152E-06  0.00000E+00  9.000E+00
</event>
<event>
      5  10001  3.52971E+09  7.61776E+00 -1.00000E+00  2.10485E-01
      21    -1     0     0   513   514  0.000000000E+00  0.000000000E+00  1.585016529E+01  1.585016529E+01  0.000000000E+00  0.00000E+00  9.000E+00
      21    -1     0     0   514   511  0.000000000E+00  0.000000000E+00 -1.783814324E+02  1.783814324E+02  0.000000000E+00  0.00000E+00  9.000E+00
      -4     1     1     2     0   512  1.344690115E+01 -5.387092133E+00 -8.623832141E+01  8.745935051E+01  1.500000000E+00  0.00000E+00  9.000E+00
       4     1     1     2   513     0 -1.279646468E+01  1.297259037E+01  9.525964269E+00  2.061629463E+01  1.500000000E+00  0.00000E+00  9.000E+00
      21     1     1     2   512   511 -6.504364770E-01 -7.585498234E+00 -8.581890994E+01  8.615595252E+01  1.348699152E-06  0.00000E+00  9.000E+00
</event>
<event>
      5  10001  3.52971E+09  1.43055E+01 -1.00000E+00  1.79341E-01
      21    -1     0     0   515   516  0.000000000E+00  0.000000000E+00  1.137556735E+01  1.137556735E+01  0.000000000E+00  0.00000E+00  9.000E+00
      21    -1     0     0   514   515  0.000000000E+00  0.000000000E+00 -1.602434052E+01  1.602434052E+01  0.000000000E+00  0.00000E+00  9.000E+00
      21     1     1     2   511   516 -1.661373296E+00 -6.505864106E+00  1.104027841E+00  6.804800252E+00  2.070135473E-07  0.00000E+00  9.000E+00
      21     1     1     2   514   513  5.013962454E+00  7.291872762E+00 -1.112417112E+01  1.421472515E+01  1.192092896E-07  0.00000E+00  9.000E+00
      21     1     1     2   513   511 -3.352589157E+00 -7.860086558E-01  5.371370104E+00  6.380382469E+00  1.332800375E-07  0.00000E+00  9.000E+00
</event>
<event>
      5  10001  3.52971E+09  2.78730E+00 -1.00000E+00  3.06897E-01
      21    -1     0     0   512   513  0.000000000E+00  0.000000000E+00  9.860219290E+00  9.860219290E+00  0.000000000E+00  0.00000E+00  9.000E+00
      -2    -1     0     0     0   511  0.000000000E+00  0.000000000E+00 -1.673303878E+02  1.673303878E+02  0.000000000E+00  0.00000E+00  9.000E+00
      -2     1     1     2     0   514 -1.632388301E+01 -6.045111719E+00 -1.513662678E+02  1.523642624E+02  3.300000131E-01  0.00000E+00  9.000E+00
      21     1     1     2   512   511  1.877474628E+01  6.038225718E+00 -1.710907632E+00  1.979592060E+01  6.822063412E-07  0.00000E+00  9.000E+00
      21     1     1     2   514   513 -2.450863272E+00  6.886000953E-03 -4.392993066E+00  5.030424065E+00  1.332800375E-07  0.00000E+00  9.000E+00
</event>
<event>
      5  10001  3.52971E+09  1.41458E+01 -1.00000E+00  1.79813E-01
      21    -1     0     0   515   516  0.000000000E+00  0.000000000E+00  4.425823465E+01  4.425823465E+01  0.000000000E+00  0.00000E+00  9.000E+00
      21    -1     0     0   514   513  0.000000000E+00  0.000000000E+00 -3.191730102E+01  3.191730102E+01  0.000000000E+00  0.00000E+00  9.000E+00
      21     1     1     2   515   513  1.824445221E+01  5.896339719E+00  3.669653758E+01  4.140365599E+01  4.768371582E-07  0.00000E+00  9.000E+00
      21     1     1     2   511   516 -1.640878562E+01  5.834640086E-01 -1.085007366E+01  1.968026357E+01  2.665600750E-07  0.00000E+00  9.000E+00
      21     1     1     2   514   511 -1.835666584E+00 -6.479803727E+00 -1.350553029E+01  1.509161611E+01  2.384185791E-07  0.00000E+00  9.000E+00
</event>
<event>
      5  10001  3.52971E+09  6.96436E+00 -1.00000E+00  2.15862E-01
      -1    -1     0     0     0   512  0.000000000E+00  0.000000000E+00  1.077788697E+02  1.077788697E+02  0.000000000E+00  0.00000E+00  9.000E+00
      21    -1     0     0   515   511  0.000000000E+00  0.000000000E+00 -7.658300099E+00  7.658300099E+00  0.000000000E+00  0.00000E+00  9.000E+00
      -1     1     1     2     0   511  7.477756225E-01  1.846816264E+01  9.208982796E+01  9.392697969E+01  3.300000131E-01  0.00000E+00  9.000E+00
      21     1     1     2   515   513  3.342604124E+00 -1.005360536E+01  4.048191710E+00  1.134177407E+01  1.576990671E-07  0.00000E+00  9.000E+00
      21     1     1     2   513   512 -4.090379747E+00 -8.414557279E+00  3.982549927E+00  1.016841603E+01  1.032382731E-07  0.00000E+00  9.000E+00
</event>
<event>
      5  10001  3.52971E+09  4.50298E+00 -1.00000E+00  2.51903E-01
       1    -1     0     0   511     0  0.000000000E+00  0.000000000E+00  8.441754875E+00  8.441754875E+00  0.000000000E+00  0.00000E+00  9.000E+00
      21    -1     0     0   513   514  0.000000000E+00  0.000000000E+00 -3.044640465E+01  3.044640465E+01  0.000000000E+00  0.00000E+00  9.000E+00
      21     1     1     2   511   514 -1.448971158E+01 -6.123521870E+00 -1.078304981E+01  1.907153442E+01  2.064765462E-07  0.00000E+00  9.000E+00
      21     1     1     2   513   515  6.366645824E+00  4.499012716E+00 -7.158932619E+00  1.058421517E+01  1.685873940E-07  0.00000E+00  9.000E+00
       1     1     1     2   515     0  8.123065761E+00  1.624509154E+00 -4.062667353E+00  9.232409944E+00  3.300000131E-01  0.00000E+00  9.000E+00
</event>
<event>
      5  10001  3.52971E+09  1.15069E+01 -1.00000E+00  1.88960E-01
      21    -1     0     0   512   513  0.000000000E+00  0.000000000E+00  2.671386155E+01  2.671386155E+01  0.000000000E+00  0.00000E+00  9.000E+00
      21    -1     0     0   517   516  0.000000000E+00  0.000000000E+00 -7.814408572E+00  7.814408572E+00  0.000000000E+00  0.00000E+00  9.000E+00
      21     1     1     2   512   516  8.541224894E+00  2.491394934E+00  1.268650583E+01  1.549538646E+01  0.000000000E+00  0.00000E+00  9.000E+00
      21     1     1     2   517   511 -7.178689105E+00  2.071937358E+00 -3.473018721E+00  8.239439345E+00  1.192092896E-07  0.00000E+00  9.000E+00
      21     1     1     2   511   513 -1.362535789E+00 -4.563332291E+00  9.685965868E+00  1.079344431E+01  1.192092896E-07  0.00000E+00  9.000E+00
</event>
<event>
      5  10001  3.52971E+09  1.95207E+01 -1.00000E+00  1.67240E-01
      -2    -1     0     0     0   514  0.000000000E+00  0.000000000E+00  6.581949062E+01  6.581949062E+01  0.000000000E+00  0.00000E+00  9.000E+00
      21    -1     0     0   511   512  0.000000000E+00  0.000000000E+00 -1.510870714E+01  1.510870714E+01  0.000000000E+00  0.00000E+00  9.000E+00
      -2     1     1     2     0   512 -2.336276982E+01  1.775038364E+00  3.722499491E+01  4.398612191E+01  3.300000131E-01  0.00000E+00  9.000E+00
      21     1     1     2   511   513  5.207691506E+00 -8.946184072E+00 -3.641453930E+00  1.097335168E+01  2.528810911E-07  0.00000E+00  9.000E+00
      21     1     1     2   513   514  1.815507832E+01  7.171145708E+00  1.712724251E+01  2.596872418E+01  5.840038640E-07  0.00000E+00  9.000E+00
</event>
<event>
      5  10001  3.52971E+09  2.59391E+00 -1.00000E+00  3.17440E-01
      21    -1     0     0   515   513  0.000000000E+00  0.000000000E+00  4.394368362E+01  4.394368362E+01  0.000000000E+00  0.00000E+00  9.000E+00
      21    -1     0     0   514   515  0.000000000E+00  0.000000000E+00 -4.787609617E+00  4.787609617E+00  0.000000000E+00  0.00000E+00  9.000E+00
      21     1     1     2   511   513  1.089517696E+01 -2.332694115E+00  3.383975939E+01  3.562689516E+01  4.768371582E-07  0.00000E+00  9.000E+00
      21     1     1     2   514   512 -8.453688956E+00  3.569650986E+00  4.650662996E+00  1.028765918E+01  2.731427965E-07  0.00000E+00  9.000E+00
      21     1     1     2   512   511 -2.441488000E+00 -1.236956871E+00  6.656516160E-01  2.816738900E+00  4.592846336E-08  0.00000E+00  9.000E+00
</event>
<event>
      5  10001  3.52971E+09  4.07842E+00 -1.00000E+00  2.61491E-01
      21    -1     0     0   516   514  0.000000000E+00  0.000000000E+00  6.000251944E+01  6.000251944E+01  0.000000000E+00  0.00000E+00  9.000E+00
      21    -1     0     0   513   515  0.000000000E+00  0.000000000E+00 -1.191101850E+01  1.191101850E+01  0.000000000E+00  0.00000E+00  9.000E+00
      21     1     1     2   516   511 -1.155657563E+01 -4.842700303E+00 -6.070863470E+00  1.392341803E+01  1.685873940E-07  0.00000E+00  9.000E+00
      21     1     1     2   513   514  1.060194951E+01  8.775760718E-01  5.253126794E+01  5.359762667E+01  6.743495762E-07  0.00000E+00  9.000E+00
      21     1     1     2   511   515  9.546261176E-01  3.965124232E+00  1.631096466E+00  4.392493242E+00  3.650024150E-08  0.00000E+00  9.000E+00
</event>
<event>
      5  10001  3.52971E+09  1.88704E+01 -1.00000E+00  1.68476E-01
      21    -1     0     0   512   513  0.000000000E+00  0.000000000E+00  2.314599200E+01  2.314599200E+01  0.000000000E+00  0.00000E+00  9.000E+00
      21    -1     0     0   514   517  0.000000000E+00  0.000000000E+00 -2.134480739E+02  2.134480739E+02  0.000000000E+00  0.00000E+00  9.000E+00
      21     1     1     2   512   517 -1.320242473E+00  1.661363784E+01 -8.435246386E+00  1.867911625E+01  1.192092896E-07  0.00000E+00  9.000E+00
      21     1     1     2   511   513 -1.150003131E+01 -2.766879159E+00  1.558399892E+01  1.956444129E+01  3.371747881E-07  0.00000E+00  9.000E+00
      21     1     1     2   514   511  1.282027378E+01 -1.384675868E+01 -1.974508344E+02  1.983505083E+02  0.000000000E+00  0.00000E+00  9.000E+00
</event>
<event>
      5  10001  3.52971E+09  9.34986E+00 -1.00000E+00  1.99189E-01
      21    -1     0     0   515   512  0.000000000E+00  0.000000000E+00  6.490914007E+01  6.490914007E+01  0.000000000E+00  0.00000E+00  9.000E+00
      21    -1     0     0   514   516  0.000000000E+00  0.000000000E+00 -3.255750533E+01  3.255750533E+01  0.000000000E+00  0.00000E+00  9.000E+00
      21     1     1     2   515   516  3.912486418E+00 -2.027761331E+01 -6.788144617E+00  2.173863056E+01  4.693274423E-07  0.00000E+00  9.000E+00
      21     1     1     2   514   511  4.450593849E+00  1.609685489E+01 -1.398732672E+01  2.178444013E+01  4.129530925E-07  0.00000E+00  9.000E+00
      21     1     1     2   511   512 -8.363080267E+00  4.180758421E+00  5.312710608E+01  5.394357471E+01  0.000000000E+00  0.00000E+00  9.000E+00
</event>
<event>
      5  10001  3.52971E+09  5.99666E+00 -1.00000E+00  2.25503E-01
       1    -1     0     0   515     0  0.000000000E+00  0.000000000E+00  6.506248387E+00  6.506248387E+00  0.000000000E+00  0.00000E+00  9.000E+00
      21    -1     0     0   513   515  0.000000000E+00  0.000000000E+00 -4.002192469E+01  4.002192469E+01  0.000000000E+00  0.00000E+00  9.000E+00
       1     1     1     2   513     0  4.940599277E-01  4.499743363E+00 -2.837106582E+01  2.873183011E+01  3.300000131E-01  0.00000E+00  9.000E+00
       1     1     1     2   511     0  2.086808782E+00 -9.227647840E+00  1.114728014E+00  9.531829526E+00  3.300000131E-01  0.00000E+00  9.000E+00
      -1     1     1     2     0   511 -2.580868710E+00  4.727904477E+00 -6.259338496E+00  8.264513444E+00  3.300000131E-01  0.00000E+00  9.000E+00
</event>
<event>
      5  10001  3.52971E+09  1.32974E+01 -1.00000E+00  1.82455E-01
       2    -1     0     0   514     0  0.000000000E+00  0.000000000E+00  3.258392773E+02  3.258392773E+02  0.000000000E+00  0.00000E+00  9.000E+00
      21    -1     0     0   512   511  0.000000000E+00  0.000000000E+00 -8.622496030E+00  8.622496030E+00  0.000000000E+00  0.00000E+00  9.000E+00
      21     1     1     2   514   511  9.095912877E-01  9.717587350E+00 -5.342400540E+00  1.112654950E+01  1.788139343E-07  0.00000E+00  9.000E+00
       2     1     1     2   513     0  5.128011479E+00 -1.557771469E-01  2.340622486E+02  2.341187004E+02  3.300000131E-01  0.00000E+00  9.000E+00
      21     1     1     2   512   513 -6.037602767E+00 -9.561810203E+00  8.849693326E+01  8.921652346E+01  0.000000000E+00  0.00000E+00  9.000E+00
</event>
<event>
      5  10001  3.52971E+09  4.47788E+00 -1.00000E+00  2.52424E-01
      -2    -1     0     0     0   511  0.000000000E+00  0.000000000E+00  8.851130222E+01  8.851130222E+01  0.000000000E+00  0.00000E+00  9.000E+00
      21    -1     0     0   514   513  0.000000000E+00  0.000000000E+00 -1.450248199E+01  1.450248199E+01  0.000000000E+00  0.00000E+00  9.000E+00
      -2     1     1     2     0   513 -2.846727305E+00  8.033113996E+00  1.379601534E+01  1.621954734E+01  3.300000131E-01  0.00000E+00  9.000E+00
      21     1     1     2   514   515  5.377405776E+00 -1.172685788E+01 -1.007193144E+01  1.636702452E+01  2.665600750E-07  0.00000E+00  9.000E+00
      21     1     1     2   515   511 -2.530678471E+00  3.693743881E+00  7.028473634E+01  7.042721235E+01  9.536743164E-07  0.00000E+00  9.000E+00
</event>
<event>
      5  10001  3.52971E+09  1.90348E+01 -1.00000E+00  1.68158E-01
      21    -1     0     0   512   513  0.000000000E+00  0.000000000E+00  1.971140267E+00  1.971140267E+00  0.000000000E+00  0.00000E+00  9.000E+00
      21    -1     0     0   516   511  0.000000000E+00  0.000000000E+00 -7.273628555E+01  7.273628555E+01  0.000000000E+00  0.00000E+00  9.000E+00
      21     1     1     2   512   511 -8.002921420E-01 -4.992677777E+00 -1.023140487E+01  1.141266596E+01  1.192092896E-07  0.00000E+00  9.000E+00
      21     1     1     2   516   514  3.872761886E+00  2.567386900E+00 -2.792625575E+00  5.421117756E+00  8.940696716E-08  0.00000E+00  9.000E+00
      21     1     1     2   514   513 -3.072469744E+00  2.425290877E+00 -5.774111485E+01  5.787364210E+01  6.743495762E-07  0.00000E+00  9.000E+00
</event>
<event>
      5  10001  3.52971E+09  7.06088E+00 -1.00000E+00  2.15018E-01
      21    -1     0     0   511   513  0.000000000E+00  0.000000000E+00  3.201602866E+02  3.201602866E+02  0.000000000E+00  0.00000E+00  9.000E+00
       2    -1     0     0   513     0  0.000000000E+00  0.000000000E+00 -1.598933977E+03  1.598933977E+03  0.000000000E+00  0.00000E+00  9.000E+00
      21     1     1     2   515   514  2.954102191E+00 -1.150530138E+01  1.763020152E+02  1.767017240E+02  1.414527605E-05  0.00000E+00  9.000E+00
       2     1     1     2   514     0  3.546150343E+00  8.747988787E+00 -1.598633402E+03  1.598661304E+03  3.300000131E-01  0.00000E+00  9.000E+00
      21     1     1     2   511   515 -6.500252534E+00  2.757312594E+00  1.435576960E+02  1.437312358E+02  4.672030912E-06  0.00000E+00  9.000E+00
</event>
<event>
      5  10001  3.52971E+09  1.21142E+01 -1.00000E+00  1.86593E-01
      21    -1     0     0   512   514  0.000000000E+00  0.000000000E+00  1.957921876E+02  1.957921876E+02  0.000000000E+00  0.00000E+00  9.000E+00
      21    -1     0     0   513   515  0.000000000E+00  0.000000000E+00 -4.978024917E+01  4.978024917E+01  0.000000000E+00  0.00000E+00  9.000E+00
      21     1     1     2   512   515  1.989353320E+00  1.290964147E+01 -4.862021852E+01  5.034423521E+01  1.168007728E-06  0.00000E+00  9.000E+00
      21     1     1     2   513   516 -3.993318474E+00 -4.905198314E+00  5.722294155E+01  5.757145649E+01  9.536743164E-07  0.00000E+00  9.000E+00
      21     1     1     2   516   514  2.003965153E+00 -8.004443160E+00  1.374092154E+02  1.376567450E+02  1.907348633E-06  0.00000E+00  9.000E+00
</event>
<event>
      5  10001  3.52971E+09  6.57598E+00 -1.00000E+00  2.19456E-01
      21    -1     0     0   511   513  0.000000000E+00  0.000000000E+00  1.677130600E+01  1.677130600E+01  0.000000000E+00  0.00000E+00  9.000E+00
       2    -1     0     0   517     0  0.000000000E+00  0.000000000E+00 -9.556028288E+02  9.556028288E+02  0.000000000E+00  0.00000E+00  9.000E+00
      21     1     1     2   511   514 -1.485060968E+01  1.240376840E+01 -1.370078921E-01  1.934975063E+01  1.903182235E-07  0.00000E+00  9.000E+00
      21     1     1     2   517   513  1.208156822E+01 -6.439225336E+00  6.030841874E-01  1.370370841E+01  3.773408312E-07  0.00000E+00  9.000E+00
       2     1     1     2   514     0  2.769041456E+00 -5.964543064E+00 -9.392975991E+02  9.393206758E+02  3.300000131E-01  0.00000E+00  9.000E+00
</event>
<event>
      5  10001  3.52971E+09  1.00319E+01 -1.00000E+00  1.95593E-01
      21    -1     0     0   512   514  0.000000000E+00  0.000000000E+00  6.566537995E+01  6.566537995E+01  0.000000000E+00  0.00000E+00  9.000E+00
      21    -1     0     0   515   512  0.000000000E+00  0.000000000E+00 -6.095428487E+00  6.095428487E+00  0.000000000E+00  0.00000E+00  9.000E+00
      21     1     1     2   515   516 -7.379724544E+00 -1.711607293E+01  1.948464633E+01  2.696426765E+01  4.768371582E-07  0.00000E+00  9.000E+00
      21     1     1     2   511   514 -7.846344886E-01  6.773164775E+00  1.397294920E+01  1.554782048E+01  1.685873940E-07  0.00000E+00  9.000E+00
      21     1     1     2   516   511  8.164359032E+00  1.034290816E+01  2.611235593E+01  2.924872031E+01  4.768371582E-07  0.00000E+00  9.000E+00
</event>
<event>
      5  10001  3.52971E+09  9.45712E+00 -1.00000E+00  1.98597E-01
      -1    -1     0     0     0   515  0.000000000E+00  0.000000000E+00  6.203813943E+01  6.203813943E+01  0.000000000E+00  0.00000E+00  9.000E+00
      21    -1     0     0   513   512  0.000000000E+00  0.000000000E+00 -1.238107500E+02  1.238107500E+02  0.000000000E+00  0.00000E+00  9.000E+00
      -1     1     1     2     0   514 -1.507289835E+01  9.524473304E-01  5.745234166E+01  5.940521764E+01  3.300000131E-01  0.00000E+00  9.000E+00
      21     1     1     2   514   512  5.954654734E+00 -3.461251219E+00 -1.163578664E+02  1.165615341E+02  2.336015456E-06  0.00000E+00  9.000E+00
      21     1     1     2   513   515  9.118243612E+00  2.508803889E+00 -2.867085873E+00  9.882137670E+00  2.149076030E-07  0.00000E+00  9.000E+00
</event>
<event>
      5  10001  3.52971E+09  9.74251E+00 -1.00000E+00  1.97071E-01
       2    -1     0     0   512     0  0.000000000E+00  0.000000000E+00  2.292178677E+02  2.292178677E+02  0.000000000E+00  0.00000E+00  9.000E+00
      -4    -1     0     0     0   511  0.000000000E+00  0.000000000E+00 -1.059329440E+01  1.059329440E+01  0.000000000E+00  0.00000E+00  9.000E+00
      -4     1     1     2     0   513  4.591469619E+00  1.447865154E+01  2.477759562E-01  1.526513467E+01  1.500000000E+00  0.00000E+00  9.000E+00
      21     1     1     2   512   511 -1.325299518E+01 -1.002524193E+01  2.032053866E+01  2.625017425E+01  5.331201500E-07  0.00000E+00  9.000E+00
       2     1     1     2   513     0  8.661525562E+00 -4.453409607E+00  1.980562587E+02  1.982958532E+02  3.300000131E-01  0.00000E+00  9.000E+00
</event>
<event>
      5  10001  3.52971E+09  1.06161E+01 -1.00000E+00  1.92798E-01
      21    -1     0     0   511   515  0.000000000E+00  0.000000000E+00  4.826526914E-01  4.826526914E-01  0.000000000E+00  0.00000E+00  9.000E+00
      -1    -1     0     0     0   514  0.000000000E+00  0.000000000E+00 -9.162009444E+02  9.162009444E+02  0.000000000E+00  0.00000E+00  9.000E+00
      -1     1     1     2     0   512  1.883134787E+00 -2.673330513E+00 -1.992806337E+02  1.993077338E+02  3.300000131E-01  0.00000E+00  9.000E+00
      21     1     1     2   511   514 -1.520947239E+01  4.267633587E+00 -1.603433034E+02  1.611195695E+02  2.697398305E-06  0.00000E+00  9.000E+00
      21     1     1     2   512   515  1.332633761E+01 -1.594303074E+00 -5.560943546E+02  5.562562937E+02  7.629394531E-06  0.00000E+00  9.000E+00
</event>
<event>
      5  10001  3.52971E+09  6.08957E+00 -1.00000E+00  2.24471E-01
       2    -1     0     0   512     0  0.000000000E+00  0.000000000E+00  6.704075468E+02  6.704075468E+02  0.000000000E+00  0.00000E+00  9.000E+00
      21    -1     0     0   513   511  0.000000000E+00  0.000000000E+00 -1.514036368E+00  1.514036368E+00  0.000000000E+00  0.00000E+00  9.000E+00
       4     1     1     2   512     0  8.314893860E+00 -8.065802135E+00  2.496403777E+01  2.756170905E+01  1.500000000E+00  0.00000E+00  9.000E+00
       2     1     1     2   513     0 -9.943995687E+00  3.914196128E+00  6.112397546E+02  6.113332565E+02  3.300000131E-01  0.00000E+00  9.000E+00
      -4     1     1     2     0   511  1.629101826E+00  4.151606007E+00  3.268971802E+01  3.302661759E+01  1.500000000E+00  0.00000E+00  9.000E+00
</event>
<event>
      5  10001  3.52971E+09  6.04432E+00 -1.00000E+00  2.24970E-01
      21    -1     0     0   514   511  0.000000000E+00  0.000000000E+00  1.794412209E+02  1.794412209E+02  0.000000000E+00  0.00000E+00  9.000E+00
      21    -1     0     0   512   515  0.000000000E+00  0.000000000E+00 -1.181567375E+01  1.181567375E+01  0.000000000E+00  0.00000E+00  9.000E+00
      21     1     1     2   514   515  6.734632301E-01  9.067754889E+00  2.563794236E+01  2.720260686E+01  1.215700987E-06  0.00000E+00  9.000E+00
      21     1     1     2   516   511 -9.614736010E-01 -1.510520949E+01  1.517875147E+02  1.525402944E+02  1.907348633E-06  0.00000E+00  9.000E+00
      21     1     1     2   512   516  2.880103709E-01  6.037454596E+00 -9.799909968E+00  1.151399337E+01  4.915124924E-07  0.00000E+00  9.000E+00
</event>
<event>
      5  10001  3.52971E+09  7.19308E+00 -1.00000E+00  2.13891E-01
       5    -1     0     0   512     0  0.000000000E+00  0.000000000E+00  4.246644900E+01  4.246644900E+01  0.000000000E+00  0.00000E+00  9.000E+00
      21    -1     0     0   513   516  0.000000000E+00  0.000000000E+00 -3.897782000E+01  3.897782000E+01  0.000000000E+00  0.00000E+00  9.000E+00
      21     1     1     2   512   516 -1.203391380E+01 -1.486999919E+00 -3.425467086E+01  3.633742872E+01  6.743495762E-07  0.00000E+00  9.000E+00
       5     1     1     2   511     0  9.301831471E+00  4.838603894E+00  3.894706568E+01  4.061834663E+01  4.800000191E+00  0.00000E+00  9.000E+00
      21     1     1     2   513   511  2.732082328E+00 -3.351603975E+00 -1.203765815E+00  4.488493643E+00  3.942476677E-08  0.00000E+00  9.000E+00
</event>
<event>
      5  10001  3.52971E+09  7.61342E+00 -1.00000E+00  2.10518E-01
      21    -1     0     0   514   515  0.000000000E+00  0.000000000E+00  3.147999376E+00  3.147999376E+00  0.000000000E+00  0.00000E+00  9.000E+00
      21    -1     0     0   513   514  0.000000000E+00  0.000000000E+00 -7.036111948E+01  7.036111948E+01  0.000000000E+00  0.00000E+00  9.000E+00
      21     1     1     2   511   515 -9.195426593E+00 -7.910637130E+00 -4.672103175E+01  4.826995813E+01  0.000000000E+00  0.00000E+00  9.000E+00
      21     1     1     2   512   511  2.292968544E+00  5.608528063E+00 -4.131943583E+00  7.333910931E+00  1.576990671E-07  0.00000E+00  9.000E+00
      21     1     1     2   513   512  6.902458049E+00  2.302109067E+00 -1.636014477E+01  1.790524979E+01  2.384185791E-07  0.00000E+00  9.000E+00
</event>
<event>
      5  10001  3.52971E+09  1.53812E+01 -1.00000E+00  1.76359E-01
      21    -1     0     0   513   512  0.000000000E+00  0.000000000E+00  8.277164009E-01  8.277164009E-01  0.000000000E+00  0.00000E+00  9.000E+00
       3    -1     0     0   515     0  0.000000000E+00  0.000000000E+00 -2.488725780E+02  2.488725780E+02  0.000000000E+00  0.00000E+00  9.000E+00
      21     1     1     2   515   512  4.229945425E+00  6.804750586E+00 -5.982113309E+01  6.035532316E+01  6.743495762E-07  0.00000E+00  9.000E+00
       3     1     1     2   511     0 -2.490863703E+00 -8.124885154E+00 -1.861148238E+02  1.863094088E+02  5.000000000E-01  0.00000E+00  9.000E+00
      21     1     1     2   513   511 -1.739081722E+00  1.320134568E+00 -2.108904751E+00  3.035562512E+00  7.884953353E-08  0.00000E+00  9.000E+00
</event>
<event>
      5  10001  3.52971E+09  9.90029E+00 -1.00000E+00  1.96257E-01
      21    -1     0     0   514   511  0.000000000E+00  0.000000000E+00  3.459866614E+02  3.459866614E+02  0.000000000E+00  0.00000E+00  9.000E+00
      21    -1     0     0   516   512  0.000000000E+00  0.000000000E+00 -1.018299147E+01  1.018299147E+01  0.000000000E+00  0.00000E+00  9.000E+00
      21     1     1     2   516   515  1.624519709E+01  5.544988235E+00  5.801486660E+01  6.050105842E+01  9.536743164E-07  0.00000E+00  9.000E+00
      21     1     1     2   515   511 -8.121911326E+00  1.143343541E-01  2.839117242E+02  2.840278959E+02  5.394796609E-06  0.00000E+00  9.000E+00
      21     1     1     2   514   512 -8.123285762E+00 -5.659322589E+00 -6.122920844E+00  1.164069858E+01  6.848052319E-07  0.00000E+00  9.000E+00
</event>
<event>
      5  10001  3.52971E+09  1.38428E+01 -1.00000E+00  1.80729E-01
      21    -1     0     0   513   511  0.000000000E+00  0.000000000E+00  1.396873793E+01  1.396873793E+01  0.000000000E+00  0.00000E+00  9.000E+00
      -1    -1     0     0     0   513  0.000000000E+00  0.000000000E+00 -5.010291515E+02  5.010291515E+02  0.000000000E+00  0.00000E+00  9.000E+00
      21     1     1     2   512   511  1.133107682E+00  6.390305922E+00  1.189318230E+01  1.354871684E+01  4.129530925E-07  0.00000E+00  9.000E+00
      21     1     1     2   517   512  6.985010827E+00 -1.760265214E+01 -7.793414526E+01  8.020208686E+01  9.536743164E-07  0.00000E+00  9.000E+00
      -1     1     1     2     0   517 -8.118118509E+00  1.121234622E+01 -4.210194506E+02  4.212470857E+02  3.300000131E-01  0.00000E+00  9.000E+00
</event>
<event>
      5  10001  3.52971E+09  3.89768E+01 -1.00000E+00  1.45539E-01
      21    -1     0     0   514   512  0.000000000E+00  0.000000000E+00  4.945453837E+00  4.945453837E+00  0.000000000E+00  0.00000E+00  9.000E+00
      21    -1     0     0   515   514  0.000000000E+00  0.000000000E+00 -2.350841795E+02  2.350841795E+02  0.000000000E+00  0.00000E+00  9.000E+00
      21     1     1     2   516   512  1.433495258E+01  4.476009418E+00 -8.255582357E+00  1.713709911E+01  5.057621821E-07  0.00000E+00  9.000E+00
      21     1     1     2   511   516 -4.006428129E+00 -2.160065343E+00 -1.361701771E+01  1.435759450E+01  1.685873940E-07  0.00000E+00  9.000E+00
      21     1     1     2   515   511 -1.032852445E+01 -2.315944075E+00 -2.082661256E+02  2.085349398E+02  0.000000000E+00  0.00000E+00  9.000E+00
</event>
<event>
      5  10001  3.52971E+09  5.35771E+00 -1.00000E+00  2.33383E-01
      21    -1     0     0   513   511  0.000000000E+00  0.000000000E+00  6.614245165E+01  6.614245165E+01  0.000000000E+00  0.00000E+00  9.000E+00
      21    -1     0     0   514   517  0.000000000E+00  0.000000000E+00 -8.094899637E+00  8.094899637E+00  0.000000000E+00  0.00000E+00  9.000E+00
      21     1     1     2   513   517  1.180177598E+01 -4.330715922E+00  4.171028402E+01  4.356357205E+01  4.768371582E-07  0.00000E+00  9.000E+00
      21     1     1     2   512   511 -1.028642767E+01  9.469664187E+00  1.984078143E+01  2.427224221E+01  4.768371582E-07  0.00000E+00  9.000E+00
      21     1     1     2   514   512 -1.515348314E+00 -5.138948265E+00 -3.503513445E+00  6.401537022E+00  5.960464478E-08  0.00000E+00  9.000E+00
</event>
<event>
      5  10001  3.52971E+09  2.64774E+00 -1.00000E+00  3.14350E-01
      21    -1     0     0   515   512  0.000000000E+00  0.000000000E+00  9.444042484E+00  9.444042484E+00  0.000000000E+00  0.00000E+00  9.000E+00
      21    -1     0     0   511   515  0.000000000E+00  0.000000000E+00 -4.637437915E+01  4.637437915E+01  0.000000000E+00  0.00000E+00  9.000E+00
      21     1     1     2   514   516  5.650700842E+00 -8.445333274E+00 -3.864841784E+01  3.996191031E+01  0.000000000E+00  0.00000E+00  9.000E+00
      21     1     1     2   516   512 -8.031903873E+00  7.287579294E+00  4.742483685E+00  1.183686797E+01  1.685873940E-07  0.00000E+00  9.000E+00
      21     1     1     2   511   514  2.381203031E+00  1.157753980E+00 -3.024402507E+00  4.019643352E+00  4.214684851E-08  0.00000E+00  9.000E+00
</event>
<event>
      5  10001  3.52971E+09  6.39269E+00 -1.00000E+00  2.21273E-01
      21    -1     0     0   512   516  0.000000000E+00  0.000000000E+00  1.279504231E+02  1.279504231E+02  0.000000000E+00  0.00000E+00  9.000E+00
      21    -1     0     0   511   514  0.000000000E+00  0.000000000E+00 -8.986703396E+00  8.986703396E+00  0.000000000E+00  0.00000E+00  9.000E+00
      21     1     1     2   513   514  6.071831251E+00 -5.665863986E+00 -6.104376501E+00  1.030691816E+01  5.397430145E-07  0.00000E+00  9.000E+00
      21     1     1     2   511   516 -1.240921860E+01  4.826812782E+00  7.768146604E+01  7.881431972E+01  9.536743164E-07  0.00000E+00  9.000E+00
      21     1     1     2   512   513  6.337387349E+00  8.390512049E-01  4.738663017E+01  4.781588862E+01  0.000000000E+00  0.00000E+00  9.000E+00
</event>
<event>
      5  10001  3.52971E+09  1.96998E+01 -1.00000E+00  1.66910E-01
      21    -1     0     0   515   511  0.000000000E+00  0.000000000E+00  1.626802365E+01  1.626802365E+01  0.000000000E+00  0.00000E+00  9.000E+00
      21    -1     0     0   517   513  0.000000000E+00  0.000000000E+00 -2.128297541E+01  2.128297541E+01  0.000000000E+00  0.00000E+00  9.000E+00
      21     1     1     2   515   513 -4.236057316E+00 -1.101046826E+01  6.249644300E+00  1.335038002E+01  2.920019320E-07  0.00000E+00  9.000E+00
      21     1     1     2   514   511  5.391309712E+00  7.868473535E+00  2.641460112E+00  9.897292949E+00  3.024605383E-07  0.00000E+00  9.000E+00
      21     1     1     2   517   514 -1.155252396E+00  3.141994723E+00 -1.390605618E+01  1.430332609E+01  2.384185791E-07  0.00000E+00  9.000E+00
</event>
<event>
      5  10001  3.52971E+09  5.88209E+00 -1.00000E+00  2.26813E-01
      -1    -1     0     0     0   513  0.000000000E+00  0.000000000E+00  3.935351205E+01  3.935351205E+01  0.000000000E+00  0.00000E+00  9.000E+00
      21    -1     0     0   512   515  0.000000000E+00  0.000000000E+00 -1.343497382E+01  1.343497382E+01  0.000000000E+00  0.00000E+00  9.000E+00
      -1     1     1     2     0   511  1.896723890E+00  1.640499696E+01  2.031477117E+01  2.618244287E+01  3.300000131E-01  0.00000E+00  9.000E+00
      21     1     1     2   511   515 -7.614153637E+00 -1.778541602E+01  1.441124405E+00  1.940034015E+01  1.873046918E-07  0.00000E+00  9.000E+00
      21     1     1     2   512   513  5.717429748E+00  1.380419054E+00  4.162642655E+00  7.205702850E+00  5.960464478E-08  0.00000E+00  9.000E+00
</event>
<event>
      5  10001  3.52971E+09  6.65258E+00 -1.00000E+00  2.18721E-01
      -3    -1     0     0     0   513  0.000000000E+00  0.000000000E+00  4.753420416E+02  4.753420416E+02  0.000000000E+00  0.00000E+00  9.000E+00
      21    -1     0     0   511   514  0.000000000E+00  0.000000000E+00 -4.650840611E+00  4.650840611E+00  0.000000000E+00  0.00000E+00  9.000E+00
      -3     1     1     2     0   512 -1.799178453E+01  6.122540100E+00  4.192546961E+02  4.196855251E+02  5.000000000E-01  0.00000E+00  9.000E+00
      21     1     1     2   512   514  1.165765112E+01 -4.089579260E+00  5.217170022E+01  5.361447371E+01  2.132480600E-06  0.00000E+00  9.000E+00
      21     1     1     2   511   513  6.334133416E+00 -2.032960840E+00 -7.351953006E-01  6.692883388E+00  4.437945071E-07  0.00000E+00  9.000E+00
</event>
<event>
      5  10001  3.52971E+09  1.04012E+01 -1.00000E+00  1.93798E-01
       1    -1     0     0   514     0  0.000000000E+00  0.000000000E+00  1.536591316E+03  1.536591316E+03  0.000000000E+00  0.00000E+00  9.000E+00
      21    -1     0     0   512   514  0.000000000E+00  0.000000000E+00 -1.193762603E+00  1.193762603E+00  0.000000000E+00  0.00000E+00  9.000E+00
      21     1     1     2   516   515 -2.175534572E+01  1.950024618E+01  2.644301243E+02  2.660391800E+02  3.814697266E-06  0.00000E+00  9.000E+00
       1     1     1     2   515     0  2.906993141E+01 -2.227418524E+01  1.024924280E+03  1.025578417E+03  3.300000131E-01  0.00000E+00  9.000E+00
      21     1     1     2   512   516 -7.314585694E+00  2.773939061E+00  2.460431488E+02  2.461674816E+02  3.814697266E-06  0.00000E+00  9.000E+00
</event>
<event>
      5  10001  3.52971E+09  3.01546E+01 -1.00000E+00  1.52882E-01
       2    -1     0     0   511     0  0.000000000E+00  0.000000000E+00  4.224585289E+02  4.224585289E+02  0.000000000E+00  0.00000E+00  9.000E+00
       1    -1     0     0   512     0  0.000000000E+00  0.000000000E+00 -5.672967681E+02  5.672967681E+02  0.000000000E+00  0.00000E+00  9.000E+00
       1     1     1     2   513     0  2.458173857E+01 -1.019736146E+01 -4.667851456E+02  4.675432912E+02  3.300000131E-01  0.00000E+00  9.000E+00
       2     1     1     2   512     0 -1.435007279E+01 -1.313535366E+01  4.202301006E+02  4.206802924E+02  3.300000131E-01  0.00000E+00  9.000E+00
      21     1     1     2   511   513 -1.023166578E+01  2.333271512E+01 -9.828319409E+01  1.015317134E+02  1.348699152E-06  0.00000E+00  9.000E+00
</event>
<event>
      5  10001  3.52971E+09  8.28985E+00 -1.00000E+00  2.05665E-01
      21    -1     0     0   514   512  0.000000000E+00  0.000000000E+00  2.041997860E+02  2.041997860E+02  0.000000000E+00  0.00000E+00  9.000E+00
      21    -1     0     0   515   516  0.000000000E+00  0.000000000E+00 -8.081915456E+00  8.081915456E+00  0.000000000E+00  0.00000E+00  9.000E+00
      21     1     1     2   514   513  1.379198557E+01 -3.678230835E+00  1.807655811E+02  1.813282756E+02  2.697398305E-06  0.00000E+00  9.000E+00
      21     1     1     2   515   512 -6.927601862E+00 -9.695404358E-01  2.018157998E+01  2.135949079E+01  4.768371582E-07  0.00000E+00  9.000E+00
      21     1     1     2   513   516 -6.864383706E+00  4.647771271E+00 -4.829290543E+00  9.593934990E+00  1.976862425E-07  0.00000E+00  9.000E+00
</event>
<event>
      5  10001  3.52971E+09  8.28270E+00 -1.00000E+00  2.05713E-01
      21    -1     0     0   511   512  0.000000000E+00  0.000000000E+00  5.066991158E+01  5.066991158E+01  0.000000000E+00  0.00000E+00  9.000E+00
       2    -1     0     0   517     0  0.000000000E+00  0.000000000E+00 -3.581843981E+02  3.581843981E+02  0.000000000E+00  0.00000E+00  9.000E+00
      21     1     1     2   515   512  3.143545498E+00  7.953941877E+00  4.939382108E+01  5.012880041E+01  6.743495762E-07  0.00000E+00  9.000E+00
      21     1     1     2   517   515 -5.276532598E-01 -1.581268850E+01 -7.293832343E+01  7.463456679E+01  0.000000000E+00  0.00000E+00  9.000E+00
       2     1     1     2   511     0 -2.615892239E+00  7.858746626E+00 -2.839699841E+02  2.840909425E+02  3.300000131E-01  0.00000E+00  9.000E+00
</event>
<event>
      5  10001  3.52971E+09  8.55951E+00 -1.00000E+00  2.03900E-01
      21    -1     0     0   513   516  0.000000000E+00  0.000000000E+00  9.440879807E-01  9.440879807E-01  0.000000000E+00  0.00000E+00  9.000E+00
      21    -1     0     0   515   514  0.000000000E+00  0.000000000E+00 -6.822121008E+02  6.822121008E+02  0.000000000E+00  0.00000E+00  9.000E+00
      21     1     1     2   513   514 -4.545206420E+00 -1.091893382E+01 -5.183938405E+01  5.317145621E+01  2.861022949E-06  0.00000E+00  9.000E+00
      21     1     1     2   512   516 -6.927771927E-01  1.768862857E+01 -4.591218596E+02  4.594630013E+02  7.629394531E-06  0.00000E+00  9.000E+00
      21     1     1     2   515   512  5.237983613E+00 -6.769694749E+00 -1.703067691E+02  1.705217313E+02  2.697398305E-06  0.00000E+00  9.000E+00
</event>
<event>
      5  10001  3.52971E+09  9.08263E+00 -1.00000E+00  2.00710E-01
      21    -1     0     0   511   512  0.000000000E+00  0.000000000E+00  3.879107257E+00  3.879107257E+00  0.000000000E+00  0.00000E+00  9.000E+00
      21    -1     0     0   515   517  0.000000000E+00  0.000000000E+00 -3.037044541E+01  3.037044541E+01  0.000000000E+00  0.00000E+00  9.000E+00
      21     1     1     2   511   517  8.771550927E+00  2.003359576E-01 -1.258648737E+01  1.534274762E+01  1.685873940E-07  0.00000E+00  9.000E+00
      21     1     1     2   513   512 -5.060357762E+00 -2.862626509E+00 -1.301365026E+01  1.425331345E+01  0.000000000E+00  0.00000E+00  9.000E+00
      21     1     1     2   515   513 -3.711193165E+00  2.662290551E+00 -8.912005228E-01  4.653491599E+00  1.385888102E-07  0.00000E+00  9.000E+00
</event>
<event>
      5  10001  3.52971E+09  7.03605E+00 -1.00000E+00  2.15233E-01
      21    -1     0     0   511   513  0.000000000E+00  0.000000000E+00  5.724289717E+01  5.724289717E+01  0.000000000E+00  0.00000E+00  9.000E+00
      21    -1     0     0   515   514  0.000000000E+00  0.000000000E+00 -1.918371519E+02  1.918371519E+02  0.000000000E+00  0.00000E+00  9.000E+00
      21     1     1     2   515   516  1.037690693E+01 -1.777395760E+00 -1.841384500E+02  1.844391718E+02  2.697398305E-06  0.00000E+00  9.000E+00
      21     1     1     2   516   513 -1.532773892E+01  6.776927223E+00  2.347594832E+00  1.692269259E+01  7.438650116E-07  0.00000E+00  9.000E+00
      21     1     1     2   511   514  4.950831997E+00 -4.999531462E+00  4.719660045E+01  4.771818465E+01  6.743495762E-07  0.00000E+00  9.000E+00
</event>
<event>
      5  10001  3.52971E+09  5.93390E+00 -1.00000E+00  2.26215E-01
      21    -1     0     0   512   514  0.000000000E+00  0.000000000E+00  9.168187476E+01  9.168187476E+01  0.000000000E+00  0.00000E+00  9.000E+00
      21    -1     0     0   515   517  0.000000000E+00  0.000000000E+00 -3.848414866E+00  3.848414866E+00  0.000000000E+00  0.00000E+00  9.000E+00
      21     1     1     2   512   517 -9.991242748E+00 -8.034188086E+00  7.324139981E+01  7.435506544E+01  9.536743164E-07  0.00000E+00  9.000E+00
       4     1     1     2   515     0  4.281073855E+00  4.193935055E+00  1.575871157E+00  6.375739526E+00  1.500000000E+00  0.00000E+00  9.000E+00
      -4     1     1     2     0   514  5.710168894E+00  3.840253031E+00  1.301618893E+01  1.479948466E+01  1.500000000E+00  0.00000E+00  9.000E+00
</event>
<event>
      5  10001  3.52971E+09  4.36313E+00 -1.00000E+00  2.54876E-01
      21    -1     0     0   511   513  0.000000000E+00  0.000000000E+00  9.412194532E+01  9.412194532E+01  0.000000000E+00  0.00000E+00  9.000E+00
      -3    -1     0     0     0   515  0.000000000E+00  0.000000000E+00 -1.374503236E+01  1.374503236E+01  0.000000000E+00  0.00000E+00  9.000E+00
      -3     1     1     2     0   512 -6.271931336E+00  5.126747072E+00 -1.105234189E+01  1.371221789E+01  5.000000000E-01  0.00000E+00  9.000E+00
      21     1     1     2   512   513  1.026601091E+01 -6.882366192E+00  8.722340377E+01  8.809472237E+01  1.348699152E-06  0.00000E+00  9.000E+00
      21     1     1     2   511   515 -3.994079570E+00  1.755619121E+00  4.205851086E+00  6.060037415E+00  1.192092896E-07  0.00000E+00  9.000E+00
</event>
<event>
      5  10001  3.52971E+09  9.63081E+00 -1.00000E+00  1.97660E-01
      21    -1     0     0   514   515  0.000000000E+00  0.000000000E+00  2.415776504E+00  2.415776504E+00  0.000000000E+00  0.00000E+00  9.000E+00
      -1    -1     0     0     0   514  0.000000000E+00  0.000000000E+00 -2.855751760E+02  2.855751760E+02  0.000000000E+00  0.00000E+00  9.000E+00
      -1     1     1     2     0   512  2.821959550E-01 -9.939370771E+00 -2.381143936E+02  2.383221435E+02  3.300000131E-01  0.00000E+00  9.000E+00
      21     1     1     2   511   515 -3.879827349E+00  1.427049809E+01 -2.724912960E+01  3.100347142E+01  6.743495762E-07  0.00000E+00  9.000E+00
      21     1     1     2   512   511  3.597631394E+00 -4.331127318E+00 -1.779587632E+01  1.866533765E+01  0.000000000E+00  0.00000E+00  9.000E+00
</event>
<event>
      5  10001  3.52971E+09  5.17939E+00 -1.00000E+00  2.35865E-01
      21    -1     0     0   513   511  0.000000000E+00  0.000000000E+00  2.205483855E+00  2.205483855E+00  0.000000000E+00  0.00000E+00  9.000E+00
      21    -1     0     0   512   516  0.000000000E+00  0.000000000E+00 -4.942440401E+01  4.942440401E+01  0.000000000E+00  0.00000E+00  9.000E+00
      21     1     1     2   513   516 -1.337647716E+00  9.525475369E+00 -1.679178391E+01  1.935169216E+01  3.371747881E-07  0.00000E+00  9.000E+00
      21     1     1     2   514   511  6.447849362E-01 -4.928207910E+00 -8.353688730E+00  9.720447326E+00  1.192092896E-07  0.00000E+00  9.000E+00
      21     1     1     2   512   514  6.928627801E-01 -4.597267459E+00 -2.207344751E+01  2.255774838E+01  3.371747881E-07  0.00000E+00  9.000E+00
</event>
<event>
      5  10001  3.52971E+09  1.06641E+01 -1.00000E+00  1.92579E-01
      21    -1     0     0   512   511  0.000000000E+00  0.000000000E+00  1.047148790E+00  1.047148790E+00  0.000000000E+00  0.00000E+00  9.000E+00
       2    -1     0     0   514     0  0.000000000E+00  0.000000000E+00 -2.143684248E+03  2.143684248E+03  0.000000000E+00  0.00000E+00  9.000E+00
      21     1     1     2   514   513  1.925713407E+01 -1.329672567E+01 -1.612187621E+02  1.629083466E+02  3.814697266E-06  0.00000E+00  9.000E+00
       2     1     1     2   512     0 -2.218974761E+01  6.047048858E+00 -1.865234210E+03  1.865376026E+03  3.300000131E-01  0.00000E+00  9.000E+00
      21     1     1     2   513   511  2.932613543E+00  7.249676809E+00 -1.161841275E+02  1.164470245E+02  1.348699152E-06  0.00000E+00  9.000E+00
</event>
<event>
      5  10001  3.52971E+09  1.94749E+01 -1.00000E+00  1.67325E-01
      21    -1     0     0   515   513  0.000000000E+00  0.000000000E+00  3.386645078E+02  3.386645078E+02  0.000000000E+00  0.00000E+00  9.000E+00
      21    -1     0     0   511   515  0.000000000E+00  0.000000000E+00 -2.530397036E+02  2.530397036E+02  0.000000000E+00  0.00000E+00  9.000E+00
      21     1     1     2   511   514  7.803254412E+00  7.426621085E+00 -2.524157798E+02  2.526455450E+02  5.394796609E-06  0.00000E+00  9.000E+00
      21     1     1     2   514   512 -6.381820790E-01 -1.546550816E+01  2.034763008E+02  2.040641914E+02  0.000000000E+00  0.00000E+00  9.000E+00
      21     1     1     2   512   513 -7.165072333E+00  8.038887072E+00  1.345642833E+02  1.349944751E+02  0.000000000E+00  0.00000E+00  9.000E+00
</event>
<event>
      5  10001  3.52971E+09  8.13804E+00 -1.00000E+00  2.06699E-01
      21    -1     0     0   516   514  0.000000000E+00  0.000000000E+00  2.635388995E+00  2.635388995E+00  0.000000000E+00  0.00000E+00  9.000E+00
      21    -1     0     0   511   513  0.000000000E+00  0.000000000E+00 -4.784950514E+01  4.784950514E+01  0.000000000E+00  0.00000E+00  9.000E+00
      21     1     1     2   516   513 -5.340386699E+00  7.042283139E+00 -2.184333204E+01  2.356362952E+01  4.129530925E-07  0.00000E+00  9.000E+00
      21     1     1     2   515   514  3.034253015E+00 -4.695480549E+00 -3.114613340E+00  6.399612895E+00  1.884864366E-07  0.00000E+00  9.000E+00
      21     1     1     2   511   515  2.306133685E+00 -2.346802589E+00 -2.025617077E+01  2.052165172E+01  0.000000000E+00  0.00000E+00  9.000E+00
</event>
<event>
      5  10001  3.52971E+09  2.40486E+01 -1.00000E+00  1.60020E-01
      21    -1     0     0   512   513  0.000000000E+00  0.000000000E+00  2.521854422E+00  2.521854422E+00  0.000000000E+00  0.00000E+00  9.000E+00
      21    -1     0     0   511   517  0.000000000E+00  0.000000000E+00 -4.050970436E+02  4.050970436E+02  0.000000000E+00  0.00000E+00  9.000E+00
      21     1     1     2   512   517  3.468908932E+00 -1.905839927E+01 -4.753850356E+01  5.133386049E+01  6.743495762E-07  0.00000E+00  9.000E+00
      21     1     1     2   514   513  8.211671129E-01  1.679800434E+01 -1.173627120E+02  1.185616019E+02  1.348699152E-06  0.00000E+00  9.000E+00
      21     1     1     2   511   514 -4.290076045E+00  2.260394932E+00 -2.376739736E+02  2.377234356E+02  0.000000000E+00  0.00000E+00  9.000E+00
</event>
<event>
      5  10001  3.52971E+09  6.47264E+00 -1.00000E+00  2.20470E-01
      -2    -1     0     0     0   513  0.000000000E+00  0.000000000E+00  6.877297685E+00  6.877297685E+00  0.000000000E+00  0.00000E+00  9.000E+00
       2    -1     0     0   513     0  0.000000000E+00  0.000000000E+00 -1.380206868E+03  1.380206868E+03  0.000000000E+00  0.00000E+00  9.000E+00
      21     1     1     2   514   511 -1.346933274E+01 -6.052861898E+00 -1.119868605E+02  1.129562614E+02  2.336015456E-06  0.00000E+00  9.000E+00
       2     1     1     2   511     0  7.024532786E+00  6.652143782E+00 -1.266069375E+03  1.266106380E+03  3.300000131E-01  0.00000E+00  9.000E+00
      -2     1     1     2     0   514  6.444799949E+00 -5.992818840E-01  4.726665107E+00  8.021524057E+00  3.300000131E-01  0.00000E+00  9.000E+00
</event>
<event>
      5  10001  3.52971E+09  8.50998E+00 -1.00000E+00  2.04217E-01
       2    -1     0     0   512     0  0.000000000E+00  0.000000000E+00  1.983427349E+02  1.983427349E+02  0.000000000E+00  0.00000E+00  9.000E+00
      -2    -1     0     0     0   512  0.000000000E+00  0.000000000E+00 -1.031939758E+00  1.031939758E+00  0.000000000E+00  0.00000E+00  9.000E+00
      -2     1     1     2     0   511  8.223118915E+00 -7.885479027E+00  5.919834387E+01  6.028559762E+01  3.300000131E-01  0.00000E+00  9.000E+00
       2     1     1     2   513     0 -3.507802087E+00  1.012426411E+01  1.076737998E+02  1.082061064E+02  3.300000131E-01  0.00000E+00  9.000E+00
      21     1     1     2   511   513 -4.715316828E+00 -2.238785079E+00  3.043865140E+01  3.088297056E+01  5.840038640E-07  0.00000E+00  9.000E+00
</event>
<event>
      5  10001  3.52971E+09  4.86671E+00 -1.00000E+00  2.44884E-01
      21    -1     0     0   514   511  0.000000000E+00  0.000000000E+00  5.528843489E+00  5.528843489E+00  0.000000000E+00  0.00000E+00  9.000E+00
      21    -1     0     0   515   514  0.000000000E+00  0.000000000E+00 -2.738838444E+02  2.738838444E+02  0.000000000E+00  0.00000E+00  9.000E+00
      21     1     1     2   515   516  6.411765182E+00  8.942864048E+00 -2.575331922E+02  2.577681722E+02  6.607249480E-06  0.00000E+00  9.000E+00
      21     1     1     2   512   511 -3.120191526E+00 -1.056539444E+01 -8.853043215E-01  1.105200971E+01  1.340814731E-06  0.00000E+00  9.000E+00
      21     1     1     2   516   512 -3.291573656E+00  1.622530394E+00 -9.936504434E+00  1.059250595E+01  2.064765462E-07  0.00000E+00  9.000E+00
</event>
<event>
      5  10001  3.52971E+09  3.24225E+00 -1.00000E+00  2.86986E-01
       3    -1     0     0   514     0  0.000000000E+00  0.000000000E+00  5.757998868E+02  5.757998868E+02  0.000000000E+00  0.00000E+00  9.000E+00
      21    -1     0     0   511   512  0.000000000E+00  0.000000000E+00 -3.987371494E+00  3.987371494E+00  0.000000000E+00  0.00000E+00  9.000E+00
      21     1     1     2   514   512 -1.194272129E+01 -2.314608178E+00  7.056568831E+01  7.160658049E+01  2.523185073E-06  0.00000E+00  9.000E+00
       3     1     1     2   513     0  9.524615668E+00  1.549117643E-01  5.039006272E+02  5.039909070E+02  5.000000000E-01  0.00000E+00  9.000E+00
      21     1     1     2   511   513  2.418105618E+00  2.159696414E+00 -2.653800207E+00  4.189770748E+00  3.828177625E-07  0.00000E+00  9.000E+00
</event>
<event>
      5  10001  3.52971E+09  4.97779E+00 -1.00000E+00  2.42922E-01
      21    -1     0     0   515   512  0.000000000E+00  0.000000000E+00  3.117508245E+01  3.117508245E+01  0.000000000E+00  0.00000E+00  9.000E+00
      21    -1     0     0   514   515  0.000000000E+00  0.000000000E+00 -3.705476650E+01  3.705476650E+01  0.000000000E+00  0.00000E+00  9.000E+00
      21     1     1     2   511   516 -5.917022959E+00 -7.841774640E+00  1.483073539E+01  1.778919061E+01  0.000000000E+00  0.00000E+00  9.000E+00
      21     1     1     2   516   512  1.004770060E+01  5.064018758E+00  1.252372090E+01  1.683579991E+01  3.769728732E-07  0.00000E+00  9.000E+00
      21     1     1     2   514   511 -4.130677642E+00  2.777755882E+00 -3.323414034E+01  3.360485843E+01  0.000000000E+00  0.00000E+00  9.000E+00
</event>
<event>
      5  10001  3.52971E+09  4.79655E+00 -1.00000E+00  2.46165E-01
      21    -1     0     0   513   516  0.000000000E+00  0.000000000E+00  3.934651673E+02  3.934651673E+02  0.000000000E+00  0.00000E+00  9.000E+00
      21    -1     0     0   512   511  0.000000000E+00  0.000000000E+00 -5.660563333E+00  5.660563333E+00  0.000000000E+00  0.00000E+00  9.000E+00
      21     1     1     2   513   511 -2.430912104E+00  1.647658973E+01  3.706564465E+02  3.710304417E+02  0.000000000E+00  0.00000E+00  9.000E+00
      21     1     1     2   514   516 -1.451099866E+00 -1.365933553E+01  4.319648416E+00  1.439939236E+01  7.974557972E-07  0.00000E+00  9.000E+00
      21     1     1     2   512   514  3.882011971E+00 -2.817254197E+00  1.282850905E+01  1.369589656E+01  0.000000000E+00  0.00000E+00  9.000E+00
</event>
<event>
      5  10001  3.52971E+09  6.29830E+00 -1.00000E+00  2.22242E-01
      21    -1     0     0   515   516  0.000000000E+00  0.000000000E+00  1.726132308E+02  1.726132308E+02  0.000000000E+00  0.00000E+00  9.000E+00
      21    -1     0     0   512   515  0.000000000E+00  0.000000000E+00 -6.775633926E+01  6.775633926E+01  0.000000000E+00  0.00000E+00  9.000E+00
      21     1     1     2   514   516  6.943415262E+00 -9.043119137E+00  1.702408861E+02  1.706222386E+02  3.814697266E-06  0.00000E+00  9.000E+00
      21     1     1     2   512   511 -8.563852669E+00  3.373717909E+00 -6.251679040E+01  6.319074795E+01  2.132480600E-06  0.00000E+00  9.000E+00
      21     1     1     2   511   514  1.620437406E+00  5.669401228E+00 -2.867204128E+00  6.556583500E+00  7.300048300E-08  0.00000E+00  9.000E+00
</event>
<event>
      5  10001  3.52971E+09  7.16240E+00 -1.00000E+00  2.14150E-01
      21    -1     0     0   513   512  0.000000000E+00  0.000000000E+00  1.848315466E+01  1.848315466E+01  0.000000000E+00  0.00000E+00  9.000E+00
      21    -1     0     0   516   514  0.000000000E+00  0.000000000E+00 -1.576851006E+01  1.576851006E+01  0.000000000E+00  0.00000E+00  9.000E+00
      21     1     1     2   513   514 -9.644992270E+00 -5.627584107E+00 -8.234678424E+00  1.387463540E+01  1.685873940E-07  0.00000E+00  9.000E+00
      -4     1     1     2     0   512  5.829110562E+00  5.995658765E+00  1.319066428E+01  1.568980810E+01  1.500000000E+00  0.00000E+00  9.000E+00
       4     1     1     2   516     0  3.815881708E+00 -3.680746579E-01 -2.241341257E+00  4.687221223E+00  1.500000000E+00  0.00000E+00  9.000E+00
</event>
<event>
      5  10001  3.52971E+09  3.80146E+00 -1.00000E+00  2.68782E-01
      21    -1     0     0   511   514  0.000000000E+00  0.000000000E+00  1.919799546E+02  1.919799546E+02  0.000000000E+00  0.00000E+00  9.000E+00
      21    -1     0     0   516   512  0.000000000E+00  0.000000000E+00 -1.020513719E+01  1.020513719E+01  0.000000000E+00  0.00000E+00  9.000E+00
      21     1     1     2   511   515 -1.568599529E+01  4.610930310E-01  1.831355465E+02  1.838066687E+02  0.000000000E+00  0.00000E+00  9.000E+00
      21     1     1     2   516   514  1.394344301E+01 -3.839641286E+00 -4.502690177E-01  1.446945716E+01  6.988867002E-07  0.00000E+00  9.000E+00
      21     1     1     2   515   512  1.742552277E+00  3.378548255E+00 -9.104601310E-01  3.908965899E+00  1.178040229E-07  0.00000E+00  9.000E+00
</event>
<event>
      5  10001  3.52971E+09  6.81647E+00 -1.00000E+00  2.17192E-01
      -1    -1     0     0     0   513  0.000000000E+00  0.000000000E+00  1.202798551E+01  1.202798551E+01  0.000000000E+00  0.00000E+00  9.000E+00
      21    -1     0     0   513   511  0.000000000E+00  0.000000000E+00 -8.365714473E+01  8.365714473E+01  0.000000000E+00  0.00000E+00  9.000E+00
      -1     1     1     2     0   514  1.123089269E+00  7.473205529E+00  9.694529697E+00  1.229646032E+01  3.300000131E-01  0.00000E+00  9.000E+00
      21     1     1     2   512   511  3.071653605E+00 -9.156423311E+00 -7.498021772E+01  7.559965736E+01  9.536743164E-07  0.00000E+00  9.000E+00
      21     1     1     2   514   512 -4.194742874E+00  1.683217782E+00 -6.343471198E+00  7.789012564E+00  1.192092896E-07  0.00000E+00  9.000E+00
</event>
<event>
      5  10001  3.52971E+09  7.08880E+00 -1.00000E+00  2.14777E-01
      21    -1     0     0   515   512  0.000000000E+00  0.000000000E+00  8.325830845E+01  8.325830845E+01  0.000000000E+00  0.00000E+00  9.000E+00
      21    -1     0     0   511   516  0.000000000E+00  0.000000000E+00 -1.404115312E+02  1.404115312E+02  0.000000000E+00  0.00000E+00  9.000E+00
      21     1     1     2   515   516 -9.222016471E+00 -4.183078020E+00  6.529012010E+00  1.204872306E+01  3.576278687E-07  0.00000E+00  9.000E+00
      21     1     1     2   513   512  1.560898324E+01  7.258412027E+00  7.287474884E+01  7.488026390E+01  1.651812370E-06  0.00000E+00  9.000E+00
      21     1     1     2   511   513 -6.386966764E+00 -3.075334008E+00 -1.365569836E+02  1.367408527E+02  0.000000000E+00  0.00000E+00  9.000E+00
</event>
<event>
      5  10001  3.52971E+09  1.52682E+01 -1.00000E+00  1.76658E-01
      21    -1     0     0   514   513  0.000000000E+00  0.000000000E+00  3.591843604E+02  3.591843604E+02  0.000000000E+00  0.00000E+00  9.000E+00
      21    -1     0     0   511   517  0.000000000E+00  0.000000000E+00 -1.064184511E+00  1.064184511E+00  0.000000000E+00  0.00000E+00  9.000E+00
      21     1     1     2   514   517  4.723712447E+00 -4.416312837E+00  1.601471238E+01  1.727102461E+01  4.129530925E-07  0.00000E+00  9.000E+00
      21     1     1     2   511   512 -1.163386543E+01  3.523941636E+00  3.038286213E+02  3.040716957E+02  0.000000000E+00  0.00000E+00  9.000E+00
      21     1     1     2   512   513  6.910152985E+00  8.923712016E-01  3.827684224E+01  3.890582466E+01  0.000000000E+00  0.00000E+00  9.000E+00
</event>
<event>
      5  10001  3.52971E+09  8.80596E+00 -1.00000E+00  2.02360E-01
      21    -1     0     0   515   514  0.000000000E+00  0.000000000E+00  2.843817576E+02  2.843817576E+02  0.000000000E+00  0.00000E+00  9.000E+00
      21    -1     0     0   513   515  0.000000000E+00  0.000000000E+00 -7.817338447E+00  7.817338447E+00  0.000000000E+00  0.00000E+00  9.000E+00
      21     1     1     2   513   516 -1.070041690E+01 -1.230910955E+01  2.375151544E+00  1.648194299E+01  5.832429466E-07  0.00000E+00  9.000E+00
      21     1     1     2   516   511  1.828940303E+01  7.842311671E+00  2.067264832E+02  2.076820719E+02  5.394796609E-06  0.00000E+00  9.000E+00
      21     1     1     2   511   514 -7.588986136E+00  4.466797879E+00  6.746278433E+01  6.803508112E+01  9.536743164E-07  0.00000E+00  9.000E+00
</event>
<event>
      5  10001  3.52971E+09  3.03458E+00 -1.00000E+00  2.95355E-01
      -1    -1     0     0     0   512  0.000000000E+00  0.000000000E+00  1.202980283E+01  1.202980283E+01  0.000000000E+00  0.00000E+00  9.000E+00
      21    -1     0     0   512   514  0.000000000E+00  0.000000000E+00 -4.481158113E+01  4.481158113E+01  0.000000000E+00  0.00000E+00  9.000E+00
      -1     1     1     2     0   513  6.674608126E+00  6.630927890E+00  7.578377279E+00  1.208554097E+01  3.300000131E-01  0.00000E+00  9.000E+00
      21     1     1     2   511   514 -8.118156748E+00 -9.823216034E+00 -3.894559449E+01  4.097754717E+01  4.768371582E-07  0.00000E+00  9.000E+00
      21     1     1     2   513   511  1.443548622E+00  3.192288144E+00 -1.414561089E+00  3.778295818E+00  5.960464478E-08  0.00000E+00  9.000E+00
</event>
<event>
      5  10001  3.52971E+09  5.05679E+00 -1.00000E+00  2.37656E-01
      21    -1     0     0   515   511  0.000000000E+00  0.000000000E+00  1.155841774E+02  1.155841774E+02  0.000000000E+00  0.00000E+00  9.000E+00
      21    -1     0     0   512   516  0.000000000E+00  0.000000000E+00 -3.365909341E+00  3.365909341E+00  0.000000000E+00  0.00000E+00  9.000E+00
      21     1     1     2   515   516  8.994953911E-01 -1.160789421E+01  9.737177999E+01  9.806536513E+01  1.348699152E-06  0.00000E+00  9.000E+00
      21     1     1     2   514   511  4.704201903E-01  6.807823625E+00  2.013231932E+00  7.114833834E+00  3.139869497E-07  0.00000E+00  9.000E+00
      21     1     1     2   512   514 -1.369915581E+00  4.800070589E+00  1.283325618E+01  1.376988782E+01  0.000000000E+00  0.00000E+00  9.000E+00
</event>
<event>
      5  10001  3.52971E+09  6.32991E+00 -1.00000E+00  2.21915E-01
      21    -1     0     0   513   514  0.000000000E+00  0.000000000E+00  2.139536716E+01  2.139536716E+01  0.000000000E+00  0.00000E+00  9.000E+00
      21    -1     0     0   512   511  0.000000000E+00  0.000000000E+00 -9.759810017E+01  9.759810017E+01  0.000000000E+00  0.00000E+00  9.000E+00
      21     1     1     2   512   517  1.110899832E+01  3.320141189E+00 -5.549568323E+01  5.669395063E+01  6.743495762E-07  0.00000E+00  9.000E+00
      21     1     1     2   517   514 -1.433370419E+01  2.126786379E+00  1.798319898E+01  2.309488562E+01  6.307962682E-07  0.00000E+00  9.000E+00
      21     1     1     2   513   511  3.224705871E+00 -5.446927568E+00 -3.869024876E+01  3.920463107E+01  0.000000000E+00  0.00000E+00  9.000E+00
</event>
<event>
      5  10001  3.52971E+09  9.20503E+00 -1.00000E+00  2.00005E-01
      21    -1     0     0   511   512  0.000000000E+00  0.000000000E+00  4.674254571E+01  4.674254571E+01  0.000000000E+00  0.00000E+00  9.000E+00
      21    -1     0     0   515   511  0.000000000E+00  0.000000000E+00 -6.455679539E+00  6.455679539E+00  0.000000000E+00  0.00000E+00  9.000E+00
      -3     1     1     2     0   512 -8.456955403E+00 -5.204237893E+00  3.146306139E+01  3.299664254E+01  5.000000000E-01  0.00000E+00  9.000E+00
       3     1     1     2   514     0  1.285534301E+01  2.859563949E+00  6.112184760E+00  1.452741382E+01  5.000000000E-01  0.00000E+00  9.000E+00
      21     1     1     2   515   514 -4.398387604E+00  2.344673944E+00  2.711620018E+00  5.674168886E+00  9.424321831E-08  0.00000E+00  9.000E+00
</event>
<event>
      5  10001  3.52971E+09  2.86251E+00 -1.00000E+00  3.03179E-01
       2    -1     0     0   511     0  0.000000000E+00  0.000000000E+00  1.163907607E+03  1.163907607E+03  0.000000000E+00  0.00000E+00  9.000E+00
      21    -1     0     0   514   511  0.000000000E+00  0.000000000E+00 -1.441975069E+00  1.441975069E+00  0.000000000E+00  0.00000E+00  9.000E+00
      21     1     1     2   512   513  1.031977156E+01  4.038086805E+00  2.311757360E+01  2.563642017E+01  4.768371582E-07  0.00000E+00  9.000E+00
       2     1     1     2   513     0 -1.332169018E+01 -2.554358272E+00  1.119671221E+03  1.119753430E+03  3.300000131E-01  0.00000E+00  9.000E+00
      21     1     1     2   514   512  3.001918619E+00 -1.483728533E+00  1.967683653E+01  1.995973100E+01  6.743495762E-07  0.00000E+00  9.000E+00
</event>
<event>
      5  10001  3.52971E+09  1.12470E+01 -1.00000E+00  1.90032E-01
      21    -1     0     0   515   513  0.000000000E+00  0.000000000E+00  9.787202459E+00  9.787202459E+00  0.000000000E+00  0.00000E+00  9.000E+00
      21    -1     0     0   514   512  0.000000000E+00  0.000000000E+00 -3.467663512E+01  3.467663512E+01  0.000000000E+00  0.00000E+00  9.000E+00
      21     1     1     2   515   512  1.514561300E+01 -5.878285126E+00 -8.314658997E+00  1.825040776E+01  2.384185791E-07  0.00000E+00  9.000E+00
       5     1     1     2   514     0 -2.965705263E+00  3.058163372E+00 -2.800653393E+00  7.002244795E+00  4.800000191E+00  0.00000E+00  9.000E+00
      -5     1     1     2     0   513 -1.217990773E+01  2.820121754E+00 -1.377412027E+01  1.921118503E+01  4.800000191E+00  0.00000E+00  9.000E+00
</event>
<event>
      5  10001  3.52971E+09  1.48787E+01 -1.00000E+00  1.77713E-01
      21    -1     0     0   511   512  0.000000000E+00  0.000000000E+00  2.111082079E+00  2.111082079E+00  0.000000000E+00  0.00000E+00  9.000E+00
      21    -1     0     0   516   513  0.000000000E+00  0.000000000E+00 -6.584567525E+02  6.584567525E+02  0.000000000E+00  0.00000E+00  9.000E+00
      21     1     1     2   511   513  9.933525576E+00 -4.560680659E+00 -1.382786569E+01  1.762624770E+01  6.951036328E-07  0.00000E+00  9.000E+00
      21     1     1     2   514   512 -1.566949188E+01  6.295391131E+00 -4.120487394E+02  4.123946272E+02  7.629394531E-06  0.00000E+00  9.000E+00
      21     1     1     2   516   514  5.735966302E+00 -1.734710472E+00 -2.304690654E+02  2.305469597E+02  4.672030912E-06  0.00000E+00  9.000E+00
</event>
<event>
      5  10001  3.52971E+09  5.22761E+01 -1.00000E+00  1.37979E-01
       4    -1     0     0   511     0  0.000000000E+00  0.000000000E+00  8.314057338E+02  8.314057338E+02  0.000000000E+00  0.00000E+00  9.000E+00
      21    -1     0     0   514   511  0.000000000E+00  0.000000000E+00 -7.356794092E+00  7.356794092E+00  0.000000000E+00  0.00000E+00  9.000E+00
      21     1     1     2   512   515 -8.502983709E+00 -7.702561631E+00  4.225999736E+01  4.378969701E+01  4.768371582E-07  0.00000E+00  9.000E+00
       4     1     1     2   515     0  2.186749163E+01  3.613757786E+01  7.466121938E+02  7.478075486E+02  1.500000000E+00  0.00000E+00  9.000E+00
      21     1     1     2   514   512 -1.336450792E+01 -2.843501623E+01  3.517674856E+01  4.716528235E+01  2.078484985E-06  0.00000E+00  9.000E+00
</event>
<event>
      5  10001  3.52971E+09  2.26677E+01 -1.00000E+00  1.62001E-01
      21    -1     0     0   513   515  0.000000000E+00  0.000000000E+00  3.809670296E+01  3.809670296E+01  0.000000000E+00  0.00000E+00  9.000E+00
      21    -1     0     0   511   512  0.000000000E+00  0.000000000E+00 -3.609694738E+02  3.609694738E+02  0.000000000E+00  0.00000E+00  9.000E+00
      21     1     1     2   513   512  4.607279095E+00 -4.605968424E+01 -1.360818116E+02  1.437392813E+02  2.697398305E-06  0.00000E+00  9.000E+00
      21     1     1     2   514   515 -8.530102075E+00  2.373405047E+01  2.895197161E+01  3.839641198E+01  3.371747881E-07  0.00000E+00  9.000E+00
      21     1     1     2   511   514  3.922822980E+00  2.232563377E+01 -2.157429308E+02  2.169304835E+02  4.672030912E-06  0.00000E+00  9.000E+00
</event>
<event>
      5  10001  3.52971E+09  1.53501E+01 -1.00000E+00  1.76441E-01
      21    -1     0     0   516   514  0.000000000E+00  0.000000000E+00  1.404087284E+02  1.404087284E+02  0.000000000E+00  0.00000E+00  9.000E+00
      21    -1     0     0   514   513  0.000000000E+00  0.000000000E+00 -1.761615582E+01  1.761615582E+01  0.000000000E+00  0.00000E+00  9.000E+00
      -3     1     1     2     0   513 -1.064033925E+01  4.783411612E+00 -1.486657657E+01  1.890404573E+01  5.000000000E-01  0.00000E+00  9.000E+00
       3     1     1     2   512     0  5.158121346E+00 -1.068109976E+01  7.241836827E+01  7.338502688E+01  5.000000000E-01  0.00000E+00  9.000E+00
      21     1     1     2   516   512  5.482217902E+00  5.897688149E+00  6.524078091E+01  6.573581165E+01  1.348699152E-06  0.00000E+00  9.000E+00
</event>
<event>
      5  10001  3.52971E+09  5.77667E+00 -1.00000E+00  2.28055E-01
      21    -1     0     0   511   512  0.000000000E+00  0.000000000E+00  1.536814039E+01  1.536814039E+01  0.000000000E+00  0.00000E+00  9.000E+00
      21    -1     0     0   514   515  0.000000000E+00  0.000000000E+00 -1.197411596E+02  1.197411596E+02  0.000000000E+00  0.00000E+00  9.000E+00
      21     1     1     2   511   515 -1.073523560E+01  7.286694619E+00  1.210762788E+01  1.774643217E+01  6.743495762E-07  0.00000E+00  9.000E+00
      21     1     1     2   513   512  3.135316059E+00 -5.499426986E+00 -6.264989866E+01  6.296891063E+01  6.743495762E-07  0.00000E+00  9.000E+00
      21     1     1     2   514   513  7.599919542E+00 -1.787267633E+00 -5.383074843E+01  5.439395720E+01  0.000000000E+00  0.00000E+00  9.000E+00
</event>
<event>
      5  10001  3.52971E+09  5.69135E+00 -1.00000E+00  2.29087E-01
      21    -1     0     0   516   513  0.000000000E+00  0.000000000E+00  5.904545240E+00  5.904545240E+00  0.000000000E+00  0.00000E+00  9.000E+00
      21    -1     0     0   514   517  0.000000000E+00  0.000000000E+00 -3.229626152E+02  3.229626152E+02  0.000000000E+00  0.00000E+00  9.000E+00
      21     1     1     2   516   517 -1.317073077E+01 -3.046732638E+00 -3.136173893E+02  3.139086134E+02  5.394796609E-06  0.00000E+00  9.000E+00
      21     1     1     2   511   513  3.673609521E+00  1.285468271E+00  1.423093185E+00  4.144035449E+00  8.792947824E-07  0.00000E+00  9.000E+00
      21     1     1     2   514   511  9.497121253E+00  1.761264367E+00 -4.863773885E+00  1.081451158E+01  7.539457465E-07  0.00000E+00  9.000E+00
</event>
<event>
      5  10001  3.52971E+09  5.50949E+00 -1.00000E+00  2.31376E-01
      21    -1     0     0   512   513  0.000000000E+00  0.000000000E+00  3.534765180E+01  3.534765180E+01  0.000000000E+00  0.00000E+00  9.000E+00
      21    -1     0     0   514   515  0.000000000E+00  0.000000000E+00 -1.806881943E+01  1.806881943E+01  0.000000000E+00  0.00000E+00  9.000E+00
      21     1     1     2   511   513  1.019174081E+01 -8.758116030E+00  1.944747110E+01  2.363853441E+01  0.000000000E+00  0.00000E+00  9.000E+00
      21     1     1     2   514   511 -9.578814016E+00  3.282828995E+00  1.133170882E+01  1.519665322E+01  2.920019320E-07  0.00000E+00  9.000E+00
      21     1     1     2   512   515 -6.129267933E-01  5.475287035E+00 -1.350034755E+01  1.458128359E+01  2.384185791E-07  0.00000E+00  9.000E+00
</event>
<event>
      5  10001  3.52971E+09  5.16207E+00 -1.00000E+00  2.36114E-01
      -1    -1     0     0     0   515  0.000000000E+00  0.000000000E+00  7.560016430E+00  7.560016430E+00  0.000000000E+00  0.00000E+00  9.000E+00
      -2    -1     0     0     0   512  0.000000000E+00  0.000000000E+00 -6.162945969E+01  6.162945969E+01  0.000000000E+00  0.00000E+00  9.000E+00
      -2     1     1     2     0   515  5.395702265E+00 -1.209851376E+01 -5.254494705E+01  5.419010979E+01  3.300000131E-01  0.00000E+00  9.000E+00
      -1     1     1     2     0   511 -4.382732636E+00  1.030079794E+01 -3.894357702E+00  1.185705298E+01  3.300000131E-01  0.00000E+00  9.000E+00
      21     1     1     2   511   512 -1.012969629E+00  1.797715825E+00  2.369861497E+00  3.142313348E+00  4.214684851E-08  0.00000E+00  9.000E+00
</event>
<event>
      5  10001  3.52971E+09  3.44161E+00 -1.00000E+00  2.79860E-01
      21    -1     0     0   513   516  0.000000000E+00  0.000000000E+00  9.480651298E+01  9.480651298E+01  0.000000000E+00  0.00000E+00  9.000E+00
      21    -1     0     0   515   514  0.000000000E+00  0.000000000E+00 -9.193366448E+00  9.193366448E+00  0.000000000E+00  0.00000E+00  9.000E+00
      21     1     1     2   513   514 -3.933642388E+00  1.020219404E+01 -4.642851307E+00  1.187915712E+01  3.625608999E-07  0.00000E+00  9.000E+00
      21     1     1     2   515   512  3.431638663E+00 -1.360699177E+01  8.173547222E+01  8.293137999E+01  9.536743164E-07  0.00000E+00  9.000E+00
      21     1     1     2   512   516  5.020037244E-01  3.404797726E+00  8.520525624E+00  9.189342316E+00  0.000000000E+00  0.00000E+00  9.000E+00
</event>
<event>
      5  10001  3.52971E+09  8.43087E+00 -1.00000E+00  2.04731E-01
      21    -1     0     0   513   514  0.000000000E+00  0.000000000E+00  5.832118746E+01  5.832118746E+01  0.000000000E+00  0.00000E+00  9.000E+00
      21    -1     0     0   517   516  0.000000000E+00  0.000000000E+00 -1.347118645E+02  1.347118645E+02  0.000000000E+00  0.00000E+00  9.000E+00
      21     1     1     2   511   516 -1.800518853E+01 -3.729953682E+00  3.621650074E+01  4.061692128E+01  1.719260824E-06  0.00000E+00  9.000E+00
      21     1     1     2   517   514  1.733909028E+01 -4.674565623E+00 -1.309778540E+02  1.322032294E+02  2.697398305E-06  0.00000E+00  9.000E+00
      21     1     1     2   513   511  6.660982521E-01  8.404519305E+00  1.837067626E+01  2.021290128E+01  2.384185791E-07  0.00000E+00  9.000E+00
</event>
<event>
      5  10001  3.52971E+09  5.49078E+00 -1.00000E+00  2.31618E-01
      21    -1     0     0   512   511  0.000000000E+00  0.000000000E+00  9.073973497E+00  9.073973497E+00  0.000000000E+00  0.00000E+00  9.000E+00
      21    -1     0     0   515   512  0.000000000E+00  0.000000000E+00 -3.742191020E+01  3.742191020E+01  0.000000000E+00  0.00000E+00  9.000E+00
      21     1     1     2   517   511  2.187292562E+00 -1.248718888E+01  1.084736789E+00  1.272363112E+01  3.628669876E-07  0.00000E+00  9.000E+00
      -5     1     1     2     0   517 -1.006013899E+00  3.891116859E+00 -1.507415693E+01  1.632247112E+01  4.800000191E+00  0.00000E+00  9.000E+00
       5     1     1     2   515     0 -1.181278663E+00  8.596072020E+00 -1.435851656E+01  1.744978147E+01  4.800000191E+00  0.00000E+00  9.000E+00
</event>
<event>
      5  10001  3.52971E+09  5.95681E+00 -1.00000E+00  2.25954E-01
      -3    -1     0     0     0   513  0.000000000E+00  0.000000000E+00  1.092460605E+00  1.092460605E+00  0.000000000E+00  0.00000E+00  9.000E+00
      21    -1     0     0   513   512  0.000000000E+00  0.000000000E+00 -3.081709737E+02  3.081709737E+02  0.000000000E+00  0.00000E+00  9.000E+00
      -3     1     1     2     0   514 -2.866099548E+00  1.283914947E+01 -5.305297185E+01  5.466192558E+01  5.000000000E-01  0.00000E+00  9.000E+00
      21     1     1     2   514   511  1.340376641E+00 -9.079421895E+00 -2.334153494E+02  2.335957146E+02  2.697398305E-06  0.00000E+00  9.000E+00
      21     1     1     2   511   512  1.525722907E+00 -3.759727576E+00 -2.061019176E+01  2.100579411E+01  2.384185791E-07  0.00000E+00  9.000E+00
</event>
<event>
      5  10001  3.52971E+09  2.03614E+00 -1.00000E+00  3.59465E-01
       1    -1     0     0   511     0  0.000000000E+00  0.000000000E+00  6.505106538E+02  6.505106538E+02  0.000000000E+00  0.00000E+00  9.000E+00
      -3    -1     0     0     0   511  0.000000000E+00  0.000000000E+00 -2.150363501E+00  2.150363501E+00  0.000000000E+00  0.00000E+00  9.000E+00
      -3     1     1     2     0   512 -3.143122264E+00  1.501167477E+01  2.672854493E+01  3.082036196E+01  5.000000000E-01  0.00000E+00  9.000E+00
       1     1     1     2   513     0  2.597335626E+00 -1.135633102E+01  5.394151957E+02  5.395410779E+02  3.300000131E-01  0.00000E+00  9.000E+00
      21     1     1     2   512   513  5.457866372E-01 -3.655343747E+00  8.221654965E+01  8.229957750E+01  0.000000000E+00  0.00000E+00  9.000E+00
</event>
<event>
      5  10001  3.52971E+09  5.67642E+00 -1.00000E+00  2.29271E-01
      -2    -1     0     0     0   513  0.000000000E+00  0.000000000E+00  3.822104168E+01  3.822104168E+01  0.000000000E+00  0.00000E+00  9.000E+00
      -5    -1     0     0     0   511  0.000000000E+00  0.000000000E+00 -9.196300176E+01  9.196300176E+01  0.000000000E+00  0.00000E+00  9.000E+00
      -5     1     1     2     0   514 -1.918588104E+00  8.530708206E+00 -7.689840992E+01  7.754262965E+01  4.800000191E+00  0.00000E+00  9.000E+00
      -2     1     1     2     0   511  6.634208344E+00 -1.301306536E+01  3.566524978E+01  3.854181537E+01  3.300000131E-01  0.00000E+00  9.000E+00
      21     1     1     2   514   513 -4.715620239E+00  4.482357154E+00 -1.250879993E+01  1.409959842E+01  2.920019320E-07  0.00000E+00  9.000E+00
</event>
<event>
      5  10001  3.52971E+09  1.66457E+01 -1.00000E+00  1.73224E-01
      21    -1     0     0   512   515  0.000000000E+00  0.000000000E+00  2.925813753E+02  2.925813753E+02  0.000000000E+00  0.00000E+00  9.000E+00
      21    -1     0     0   514   511  0.000000000E+00  0.000000000E+00 -2.725841781E+01  2.725841781E+01  0.000000000E+00  0.00000E+00  9.000E+00
      21     1     1     2   512   513  3.442043367E+00 -8.479078088E+00  2.790837554E+02  2.792337461E+02  5.394796609E-06  0.00000E+00  9.000E+00
      21     1     1     2   514   515  1.262966170E+01  1.281246734E+01 -1.566090832E+01  2.385228968E+01  1.526623782E-06  0.00000E+00  9.000E+00
      21     1     1     2   513   511 -1.607170506E+01 -4.333389249E+00  1.900110421E+00  1.675375736E+01  2.421152116E-07  0.00000E+00  9.000E+00
</event>
<event>
      5  10001  3.52971E+09  3.27065E+00 -1.00000E+00  2.85921E-01
      21    -1     0     0   516   511  0.000000000E+00  0.000000000E+00  8.657571817E+01  8.657571817E+01  0.000000000E+00  0.00000E+00  9.000E+00
      21    -1     0     0   512   517  0.000000000E+00  0.000000000E+00 -2.663334259E+02  2.663334259E+02  0.000000000E+00  0.00000E+00  9.000E+00
      21     1     1     2   516   517 -1.969305034E+00  1.375855287E+01  5.071553603E+01  5.258556393E+01  6.743495762E-07  0.00000E+00  9.000E+00
      21     1     1     2   513   511  5.129144835E+00 -1.460267343E+01  3.319981766E+01  3.663023465E+01  6.743495762E-07  0.00000E+00  9.000E+00
      21     1     1     2   512   513 -3.159839800E+00  8.441205591E-01 -2.636730614E+02  2.636933454E+02  3.814697266E-06  0.00000E+00  9.000E+00
</event>
<event>
      5  10001  3.52971E+09  1.62081E+01 -1.00000E+00  1.74268E-01
      21    -1     0     0   514   513  0.000000000E+00  0.000000000E+00  3.156289835E+01  3.156289835E+01  0.000000000E+00  0.00000E+00  9.000E+00
      21    -1     0     0   512   515  0.000000000E+00  0.000000000E+00 -1.584154635E+01  1.584154635E+01  0.000000000E+00  0.00000E+00  9.000E+00
      21     1     1     2   514   515  5.940849244E+00  1.188366147E+01 -9.845609111E+00  1.653635747E+01  3.576278687E-07  0.00000E+00  9.000E+00
      21     1     1     2   512   511 -6.269674478E+00 -3.413311496E+00  5.273000334E+00  8.874911038E+00  5.960464478E-08  0.00000E+00  9.000E+00
      21     1     1     2   511   513  3.288252335E-01 -8.470349971E+00  2.029396078E+01  2.199317619E+01  2.384185791E-07  0.00000E+00  9.000E+00
</event>
<event>
      5  10001  3.52971E+09  1.62079E+01 -1.00000E+00  1.74269E-01
      21    -1     0     0   516   512  0.000000000E+00  0.000000000E+00  5.919681327E+00  5.919681327E+00  0.000000000E+00  0.00000E+00  9.000E+00
      21    -1     0     0   517   513  0.000000000E+00  0.000000000E+00 -1.041517386E+02  1.041517386E+02  0.000000000E+00  0.00000E+00  9.000E+00
      21     1     1     2   516   513  9.253310968E+00 -2.675489388E+00 -7.796047518E+01  7.855327935E+01  0.000000000E+00  0.00000E+00  9.000E+00
      21     1     1     2   517   514  2.686866654E-01  6.770788709E+00  1.904949423E+00  7.038792835E+00  4.616955931E-07  0.00000E+00  9.000E+00
      21     1     1     2   514   512 -9.521997634E+00 -4.095299321E+00 -2.217653152E+01  2.447934774E+01  2.384185791E-07  0.00000E+00  9.000E+00
</event>
<event>
      5  10001  3.52971E+09  9.27882E+00 -1.00000E+00  1.99587E-01
       5    -1     0     0   513     0  0.000000000E+00  0.000000000E+00  2.317657452E+00  2.317657452E+00  0.000000000E+00  0.00000E+00  9.000E+00
      21    -1     0     0   511   514  0.000000000E+00  0.000000000E+00 -5.210170618E+01  5.210170618E+01  0.000000000E+00  0.00000E+00  9.000E+00
      21     1     1     2   513   514 -5.732920043E+00 -6.051708559E+00 -1.956777552E+01  2.126940026E+01  2.384185791E-07  0.00000E+00  9.000E+00
      21     1     1     2   511   515  5.091033272E+00  1.043893464E+00 -2.078472713E+01  2.142459370E+01  2.384185791E-07  0.00000E+00  9.000E+00
       5     1     1     2   515     0  6.418867709E-01  5.007815095E+00 -9.431546081E+00  1.172536967E+01  4.800000191E+00  0.00000E+00  9.000E+00
</event>
<event>
      5  10001  3.52971E+09  3.30571E+00 -1.00000E+00  2.84629E-01
      21    -1     0     0   512   511  0.000000000E+00  0.000000000E+00  7.972699003E+01  7.972699003E+01  0.000000000E+00  0.00000E+00  9.000E+00
      21    -1     0     0   517   513  0.000000000E+00  0.000000000E+00 -1.642393445E+01  1.642393445E+01  0.000000000E+00  0.00000E+00  9.000E+00
      21     1     1     2   512   516  1.248505800E+01 -5.452105366E-01  1.928348847E+01  2.297883494E+01  2.384185791E-07  0.00000E+00  9.000E+00
      21     1     1     2   517   511 -1.057003458E+01 -2.149298883E+00  5.790373756E+01  5.889981273E+01  6.743495762E-07  0.00000E+00  9.000E+00
      21     1     1     2   516   513 -1.915023421E+00  2.694509419E+00 -1.388417046E+01  1.427227680E+01  3.769728732E-07  0.00000E+00  9.000E+00
</event>
<event>
      5  10001  3.52971E+09  9.42863E+00 -1.00000E+00  1.98753E-01
      21    -1     0     0   512   511  0.000000000E+00  0.000000000E+00  7.554652343E+02  7.554652343E+02  0.000000000E+00  0.00000E+00  9.000E+00
      21    -1     0     0   515   514  0.000000000E+00  0.000000000E+00 -9.335140909E-01  9.335140909E-01  0.000000000E+00  0.00000E+00  9.000E+00
      21     1     1     2   513   511  1.775753850E+01  3.459905919E+00  1.154835797E+02  1.168920797E+02  1.348699152E-06  0.00000E+00  9.000E+00
      21     1     1     2   515   513 -1.091556946E+01  3.027514016E+00  1.768723609E+02  1.772347244E+02  3.814697266E-06  0.00000E+00  9.000E+00
      21     1     1     2   512   514 -6.841969039E+00 -6.487419935E+00  4.621757797E+02  4.622719443E+02  5.394796609E-06  0.00000E+00  9.000E+00
</event>
<event>
      5  10001  3.52971E+09  1.65064E+00 -1.00000E+00  4.07041E-01
      21    -1     0     0   515   511  0.000000000E+00  0.000000000E+00  3.308181200E+02  3.308181200E+02  0.000000000E+00  0.00000E+00  9.000E+00
       2    -1     0     0   511     0  0.000000000E+00  0.000000000E+00 -7.193177233E-01  7.193177233E-01  0.000000000E+00  0.00000E+00  9.000E+00
      21     1     1     2   515   516 -1.089689237E+01  9.178156254E+00  2.117593158E+02  2.122380471E+02  0.000000000E+00  0.00000E+00  9.000E+00
       2     1     1     2   513     0  9.414070212E+00 -9.643418328E+00  1.021996611E+02  1.030849158E+02  3.300000131E-01  0.00000E+00  9.000E+00
      21     1     1     2   516   513  1.482822153E+00  4.652620742E-01  1.613982540E+01  1.621447484E+01  4.129530925E-07  0.00000E+00  9.000E+00
</event>
<event>
      5  10001  3.52971E+09  4.25457E+00 -1.00000E+00  2.57304E-01
      21    -1     0     0   512   513  0.000000000E+00  0.000000000E+00  8.164450984E+00  8.164450984E+00  0.000000000E+00  0.00000E+00  9.000E+00
      21    -1     0     0   511   514  0.000000000E+00  0.000000000E+00 -2.012776853E+02  2.012776853E+02  0.000000000E+00  0.00000E+00  9.000E+00
      21     1     1     2   512   514  6.762444856E+00  7.632191899E+00  4.765326792E+00  1.125563650E+01  3.722308873E-07  0.00000E+00  9.000E+00
       4     1     1     2   511     0 -6.379698938E-01 -1.893622580E+00 -4.994173160E+01  5.000419350E+01  1.500000000E+00  0.00000E+00  9.000E+00
      -4     1     1     2     0   513 -6.124474962E+00 -5.738569319E+00 -1.479368295E+02  1.481823063E+02  1.500000000E+00  0.00000E+00  9.000E+00
</event>
<event>
      5  10001  3.52971E+09  3.92129E+00 -1.00000E+00  2.65512E-01
       1    -1     0     0   515     0  0.000000000E+00  0.000000000E+00  3.552638548E+01  3.552638548E+01  0.000000000E+00  0.00000E+00  9.000E+00
       1    -1     0     0   513     0  0.000000000E+00  0.000000000E+00 -2.104462590E+02  2.104462590E+02  0.000000000E+00  0.00000E+00  9.000E+00
      21     1     1     2   513   511 -1.309442090E+01  3.474286826E-01 -1.574479586E+02  1.579919119E+02  3.814697266E-06  0.00000E+00  9.000E+00
       1     1     1     2   515     0  9.173239088E+00 -3.642135839E-01 -5.221427627E+01  5.301622877E+01  3.300000131E-01  0.00000E+00  9.000E+00
       1     1     1     2   511     0  3.921181808E+00  1.678490129E-02  3.474236139E+01  3.496450376E+01  3.300000131E-01  0.00000E+00  9.000E+00
</event>
<event>
      5  10001  3.52971E+09  9.81375E+00 -1.00000E+00  1.96701E-01
       1    -1     0     0   511     0  0.000000000E+00  0.000000000E+00  1.956823015E+02  1.956823015E+02  0.000000000E+00  0.00000E+00  9.000E+00
      21    -1     0     0   512   514  0.000000000E+00  0.000000000E+00 -1.598576931E+00  1.598576931E+00  0.000000000E+00  0.00000E+00  9.000E+00
      21     1     1     2   511   514  2.230537862E+00  1.588290259E+01  7.824664774E+01  7.987352363E+01  9.536743164E-07  0.00000E+00  9.000E+00
      21     1     1     2   512   513  3.510307772E+00 -9.523253360E+00  5.047527603E+01  5.148561066E+01  6.743495762E-07  0.00000E+00  9.000E+00
       1     1     1     2   513     0 -5.740845633E+00 -6.359649227E+00  6.536180083E+01  6.592174417E+01  3.300000131E-01  0.00000E+00  9.000E+00
</event>
<event>
      5  10001  3.52971E+09  4.69679E+00 -1.00000E+00  2.48044E-01
      21    -1     0     0   515   512  0.000000000E+00  0.000000000E+00  1.122987720E+01  1.122987720E+01  0.000000000E+00  0.00000E+00  9.000E+00
      21    -1     0     0   511   515  0.000000000E+00  0.000000000E+00 -3.119465151E+02  3.119465151E+02  0.000000000E+00  0.00000E+00  9.000E+00
      21     1     1     2   516   517 -1.288862396E+01 -6.926808908E+00 -1.965683158E+02  1.971121510E+02  2.697398305E-06  0.00000E+00  9.000E+00
      21     1     1     2   517   512  8.986858033E+00  4.312227323E+00  8.632103458E+00  1.318605824E+01  9.684608465E-07  0.00000E+00  9.000E+00
      21     1     1     2   511   516  3.901765928E+00  2.614581585E+00 -1.127804255E+02  1.128781830E+02  1.907348633E-06  0.00000E+00  9.000E+00
</event>
<event>
      5  10001  3.52971E+09  6.95257E+00 -1.00000E+00  2.15966E-01
      21    -1     0     0   512   516  0.000000000E+00  0.000000000E+00  2.856575433E+01  2.856575433E+01  0.000000000E+00  0.00000E+00  9.000E+00
      21    -1     0     0   511   514  0.000000000E+00  0.000000000E+00 -1.566929996E+01  1.566929996E+01  0.000000000E+00  0.00000E+00  9.000E+00
      21     1     1     2   513   514 -1.885068096E+00  1.035118551E+01 -6.152922375E-01  1.053940737E+01  1.393875996E-07  0.00000E+00  9.000E+00
      21     1     1     2   511   516  2.512655948E+00 -1.727537375E+01 -1.123135432E+00  1.749323902E+01  1.954268969E-07  0.00000E+00  9.000E+00
      21     1     1     2   512   513 -6.275878517E-01  6.924188245E+00  1.463488204E+01  1.620240790E+01  2.384185791E-07  0.00000E+00  9.000E+00
</event>
<event>
      5  10001  3.52971E+09  5.96984E+00 -1.00000E+00  2.25806E-01
      21    -1     0     0   515   511  0.000000000E+00  0.000000000E+00  3.804845435E+01  3.804845435E+01  0.000000000E+00  0.00000E+00  9.000E+00
      21    -1     0     0   517   515  0.000000000E+00  0.000000000E+00 -1.844104751E+02  1.844104751E+02  0.000000000E+00  0.00000E+00  9.000E+00
      21     1     1     2   517   513 -1.592736457E+00 -1.049846072E+01 -1.829753855E+02  1.832832403E+02  0.000000000E+00  0.00000E+00  9.000E+00
       2     1     1     2   513     0  4.223659401E+00  4.598956402E+00  2.604567675E+01  2.678574016E+01  3.300000131E-01  0.00000E+00  9.000E+00
      -2     1     1     2     0   511 -2.630922944E+00  5.899504321E+00  1.056768798E+01  1.238994899E+01  3.300000131E-01  0.00000E+00  9.000E+00
</event>
<event>
      5  10001  3.52971E+09  8.32065E+00 -1.00000E+00  2.05459E-01
       1    -1     0     0   513     0  0.000000000E+00  0.000000000E+00  1.567765268E+02  1.567765268E+02  0.000000000E+00  0.00000E+00  9.000E+00
      21    -1     0     0   512   514  0.000000000E+00  0.000000000E+00 -1.330652406E+00  1.330652406E+00  0.000000000E+00  0.00000E+00  9.000E+00
       2     1     1     2   513     0  1.519032185E+00  3.123647370E+00  7.648253173E+00  8.406503927E+00  3.300000131E-01  0.00000E+00  9.000E+00
       1     1     1     2   512     0 -1.043815508E+01 -4.117143815E+00  1.191700287E+02  1.196975797E+02  3.300000131E-01  0.00000E+00  9.000E+00
      -2     1     1     2     0   514  8.919122896E+00  9.934964446E-01  2.862759251E+01  3.000309553E+01  3.300000131E-01  0.00000E+00  9.000E+00
</event>
<event>
      5  10001  3.52971E+09  8.83665E+00 -1.00000E+00  2.02173E-01
      21    -1     0     0   511   514  0.000000000E+00  0.000000000E+00  5.249400834E+00  5.249400834E+00  0.000000000E+00  0.00000E+00  9.000E+00
      21    -1     0     0   515   511  0.000000000E+00  0.000000000E+00 -9.882769999E+01  9.882769999E+01  0.000000000E+00  0.00000E+00  9.000E+00
      21     1     1     2   512   514  7.103811124E+00 -6.424611499E+00 -4.549710597E-01  9.588887530E+00  1.986666266E-07  0.00000E+00  9.000E+00
      21     1     1     2   513   512 -1.070209874E+01  5.005828702E+00 -6.107351753E+01  6.220585006E+01  9.536743164E-07  0.00000E+00  9.000E+00
      21     1     1     2   515   513  3.598287618E+00  1.418782797E+00 -3.204981056E+01  3.228236323E+01  6.743495762E-07  0.00000E+00  9.000E+00
</event>
<event>
      5  10001  3.52971E+09  6.64206E+00 -1.00000E+00  2.18821E-01
      21    -1     0     0   516   513  0.000000000E+00  0.000000000E+00  6.200071772E+00  6.200071772E+00  0.000000000E+00  0.00000E+00  9.000E+00
      21    -1     0     0   514   517  0.000000000E+00  0.000000000E+00 -2.751094938E+01  2.751094938E+01  0.000000000E+00  0.00000E+00  9.000E+00
      21     1     1     2   516   517 -2.882806648E+00  9.639458869E+00 -7.748385938E-01  1.009109094E+01  7.742870484E-08  0.00000E+00  9.000E+00
      21     1     1     2   511   513 -1.611080061E+00 -4.590734896E+00 -9.630675137E+00  1.078982527E+01  2.064765462E-07  0.00000E+00  9.000E+00
      21     1     1     2   514   511  4.493886709E+00 -5.048723973E+00 -1.090536388E+01  1.283010494E+01  2.384185791E-07  0.00000E+00  9.000E+00
</event>
<event>
      5  10001  3.52971E+09  1.13987E+01 -1.00000E+00  1.89402E-01
      21    -1     0     0   512   513  0.000000000E+00  0.000000000E+00  1.919101515E+02  1.919101515E+02  0.000000000E+00  0.00000E+00  9.000E+00
      21    -1     0     0   514   512  0.000000000E+00  0.000000000E+00 -1.451628014E+01  1.451628014E+01  0.000000000E+00  0.00000E+00  9.000E+00
      21     1     1     2   511   513  2.254771584E+00 -1.024055749E+01  1.885270049E+02  1.888183905E+02  0.000000000E+00  0.00000E+00  9.000E+00
      21     1     1     2   515   511 -5.762063245E-01  7.867985752E+00 -2.165000943E+00  8.180736067E+00  2.230201594E-07  0.00000E+00  9.000E+00
      21     1     1     2   514   515 -1.678565259E+00  2.372571733E+00 -8.968132620E+00  9.427305058E+00  1.099055345E-06  0.00000E+00  9.000E+00
</event>
<event>
      5  10001  3.52971E+09  3.34097E+01 -1.00000E+00  1.49859E-01
      21    -1     0     0   514   512  0.000000000E+00  0.000000000E+00  2.121761907E+01  2.121761907E+01  0.000000000E+00  0.00000E+00  9.000E+00
       2    -1     0     0   511     0  0.000000000E+00  0.000000000E+00 -2.933856635E+02  2.933856635E+02  0.000000000E+00  0.00000E+00  9.000E+00
       2     1     1     2   514     0  1.874704884E+01 -2.061627262E+01 -2.232522212E+02  2.249847677E+02  3.300000131E-01  0.00000E+00  9.000E+00
       5     1     1     2   511     0  8.095302933E+00  4.033194787E+01 -2.817925802E+01  5.009301881E+01  4.800000191E+00  0.00000E+00  9.000E+00
      -5     1     1     2     0   512 -2.684235178E+01 -1.971567525E+01 -2.073656522E+01  3.952549606E+01  4.800000191E+00  0.00000E+00  9.000E+00
</event>
<event>
      5  10001  3.52971E+09  7.26518E+00 -1.00000E+00  2.13291E-01
      21    -1     0     0   513   512  0.000000000E+00  0.000000000E+00  8.642369572E+01  8.642369572E+01  0.000000000E+00  0.00000E+00  9.000E+00
      -2    -1     0     0     0   513  0.000000000E+00  0.000000000E+00 -5.668720296E+00  5.668720296E+00  0.000000000E+00  0.00000E+00  9.000E+00
      -2     1     1     2     0   511  1.042297075E+00  1.364060814E+01  6.272989579E+00  1.505363318E+01  3.300000131E-01  0.00000E+00  9.000E+00
      21     1     1     2   514   512 -1.407692953E+00 -9.687978869E+00  7.125149180E+01  7.192088443E+01  0.000000000E+00  0.00000E+00  9.000E+00
      21     1     1     2   511   514  3.653958777E-01 -3.952629271E+00  3.230494048E+00  5.117898406E+00  1.032382731E-07  0.00000E+00  9.000E+00
</event>
<event>
      5  10001  3.52971E+09  3.14012E+00 -1.00000E+00  2.90969E-01
       3    -1     0     0   511     0  0.000000000E+00  0.000000000E+00  1.140806488E+01  1.140806488E+01  0.000000000E+00  0.00000E+00  9.000E+00
      21    -1     0     0   515   513  0.000000000E+00  0.000000000E+00 -2.091841784E+01  2.091841784E+01  0.000000000E+00  0.00000E+00  9.000E+00
      21     1     1     2   512   513 -4.238576190E+00  3.941753123E-01 -4.687594990E+00  6.332017773E+00  1.332800375E-07  0.00000E+00  9.000E+00
       3     1     1     2   515     0  1.059804705E+01 -5.767958446E-01  6.891056152E+00  1.266443641E+01  5.000000000E-01  0.00000E+00  9.000E+00
      21     1     1     2   511   512 -6.359470856E+00  1.826205323E-01 -1.171381411E+01  1.333002854E+01  1.685873940E-07  0.00000E+00  9.000E+00
</event>
<event>
      5  10001  3.52971E+09  1.62948E+01 -1.00000E+00  1.74058E-01
      -2    -1     0     0     0   512  0.000000000E+00  0.000000000E+00  3.901852190E+00  3.901852190E+00  0.000000000E+00  0.00000E+00  9.000E+00
      21    -1     0     0   512   511  0.000000000E+00  0.000000000E+00 -2.921178967E+02  2.921178967E+02  0.000000000E+00  0.00000E+00  9.000E+00
      21     1     1     2   513   514 -7.204796132E+00  9.187486834E-01 -7.372931326E+00  1.034955568E+01  2.384185791E-07  0.00000E+00  9.000E+00
      21     1     1     2   514   511  3.767116267E+00 -9.901007451E+00 -2.731352603E+02  2.733406145E+02  0.000000000E+00  0.00000E+00  9.000E+00
      -2     1     1     2     0   513  3.437679864E+00  8.982258767E+00 -7.707852907E+00  1.232957874E+01  3.300000131E-01  0.00000E+00  9.000E+00
</event>
<event>
      5  10001  3.52971E+09  6.26687E+00 -1.00000E+00  2.22570E-01
      21    -1     0     0   513   515  0.000000000E+00  0.000000000E+00  1.248023661E+01  1.248023661E+01  0.000000000E+00  0.00000E+00  9.000E+00
       1    -1     0     0   515     0  0.000000000E+00  0.000000000E+00 -5.574014229E+02  5.574014229E+02  0.000000000E+00  0.00000E+00  9.000E+00
      -5     1     1     2     0   511 -7.503186931E+00 -9.040190389E+00 -8.297794900E+00  1.516298976E+01  4.800000191E+00  0.00000E+00  9.000E+00
       5     1     1     2   513     0  1.114487634E+01  3.970547056E+00  4.516274018E+00  1.354290387E+01  4.800000191E+00  0.00000E+00  9.000E+00
       1     1     1     2   511     0 -3.641689405E+00  5.069643333E+00 -5.411396654E+02  5.411757659E+02  3.300000131E-01  0.00000E+00  9.000E+00
</event>
<event>
      5  10001  3.52971E+09  3.82083E+00 -1.00000E+00  2.68241E-01
      21    -1     0     0   512   516  0.000000000E+00  0.000000000E+00  1.805725391E+02  1.805725391E+02  0.000000000E+00  0.00000E+00  9.000E+00
      21    -1     0     0   514   512  0.000000000E+00  0.000000000E+00 -2.205538453E+00  2.205538453E+00  0.000000000E+00  0.00000E+00  9.000E+00
      21     1     1     2   515   516  4.462753312E+00  1.740673874E+01  1.145063797E+02  1.159078156E+02  2.336015456E-06  0.00000E+00  9.000E+00
      21     1     1     2   513   515 -3.597353060E+00 -1.461954311E+01  3.844923547E+01  4.129183573E+01  9.536743164E-07  0.00000E+00  9.000E+00
      21     1     1     2   514   513 -8.654002518E-01 -2.787195634E+00  2.541138542E+01  2.557842619E+01  0.000000000E+00  0.00000E+00  9.000E+00
</event>
<event>
      5  10001  3.52971E+09  4.35257E+00 -1.00000E+00  2.55107E-01
      21    -1     0     0   511   513  0.000000000E+00  0.000000000E+00  9.768652593E+01  9.768652593E+01  0.000000000E+00  0.00000E+00  9.000E+00
      21    -1     0     0   512   517  0.000000000E+00  0.000000000E+00 -5.239633185E+01  5.239633185E+01  0.000000000E+00  0.00000E+00  9.000E+00
      21     1     1     2   511   517 -3.957839775E+00 -1.641508124E+01  5.190708860E+01  5.458447797E+01  0.000000000E+00  0.00000E+00  9.000E+00
      21     1     1     2   514   513  8.285792825E+00  1.687730300E+01  4.235129374E+01  4.633713198E+01  1.168007728E-06  0.00000E+00  9.000E+00
      21     1     1     2   512   514 -4.327953050E+00 -4.622217576E-01 -4.896818826E+01  4.916124782E+01  1.168007728E-06  0.00000E+00  9.000E+00
</event>
<event>
      5  10001  3.52971E+09  2.49446E+01 -1.00000E+00  1.58820E-01
      21    -1     0     0   515   513  0.000000000E+00  0.000000000E+00  2.194742832E+02  2.194742832E+02  0.000000000E+00  0.00000E+00  9.000E+00
      21    -1     0     0   512   515  0.000000000E+00  0.000000000E+00 -8.140028491E-01  8.140028491E-01  0.000000000E+00  0.00000E+00  9.000E+00
      21     1     1     2   514   513  2.403597488E+00  3.791970634E-01  2.451008198E+01  2.463057429E+01  0.000000000E+00  0.00000E+00  9.000E+00
      21     1     1     2   511   514 -2.381314760E-01  7.973157296E+00  1.665342286E+02  1.667251548E+02  2.697398305E-06  0.00000E+00  9.000E+00
      21     1     1     2   512   511 -2.165466012E+00 -8.352354360E+00  2.761596979E+01  2.893255699E+01  5.840038640E-07  0.00000E+00  9.000E+00
</event>
<event>
      5  10001  3.52971E+09  9.93058E+00 -1.00000E+00  1.96103E-01
      21    -1     0     0   516   513  0.000000000E+00  0.000000000E+00  1.161495354E+02  1.161495354E+02  0.000000000E+00  0.00000E+00  9.000E+00
      21    -1     0     0   512   516  0.000000000E+00  0.000000000E+00 -8.591575198E+01  8.591575198E+01  0.000000000E+00  0.00000E+00  9.000E+00
      21     1     1     2   511   514 -1.716760496E+00  1.536503605E+01  9.604980226E+01  9.728615581E+01  1.907348633E-06  0.00000E+00  9.000E+00
      21     1     1     2   512   511  1.512732656E+00 -5.436554848E+00 -8.393113506E+01  8.412062720E+01  0.000000000E+00  0.00000E+00  9.000E+00
      21     1     1     2   514   513  2.040278396E-01 -9.928481204E+00  1.811511618E+01  2.065850431E+01  0.000000000E+00  0.00000E+00  9.000E+00
</event>
<event>
      5  10001  3.52971E+09  8.53270E+00 -1.00000E+00  2.04071E-01
       2    -1     0     0   511     0  0.000000000E+00  0.000000000E+00  3.604675812E+02  3.604675812E+02  0.000000000E+00  0.00000E+00  9.000E+00
      21    -1     0     0   514   511  0.000000000E+00  0.000000000E+00 -1.447772088E+00  1.447772088E+00  0.000000000E+00  0.00000E+00  9.000E+00
      21     1     1     2   514   515  6.399780644E-01  9.615703569E+00  1.661359611E+01  1.920632455E+01  5.331201500E-07  0.00000E+00  9.000E+00
      21     1     1     2   515   512 -3.826769660E+00 -9.573652886E+00  1.988883623E+02  1.991554158E+02  0.000000000E+00  0.00000E+00  9.000E+00
       2     1     1     2   512     0  3.186791596E+00 -4.205068343E-02  1.435178508E+02  1.435536130E+02  3.300000131E-01  0.00000E+00  9.000E+00
</event>
<event>
      5  10001  3.52971E+09  6.62878E+00 -1.00000E+00  2.18948E-01
      21    -1     0     0   512   513  0.000000000E+00  0.000000000E+00  2.166492800E+01  2.166492800E+01  0.000000000E+00  0.00000E+00  9.000E+00
       2    -1     0     0   511     0  0.000000000E+00  0.000000000E+00 -3.136630851E+01  3.136630851E+01  0.000000000E+00  0.00000E+00  9.000E+00
      21     1     1     2   515   513  1.459986038E+01 -1.640242176E+00  1.160452009E+01  1.872194446E+01  4.129530925E-07  0.00000E+00  9.000E+00
       2     1     1     2   512     0 -1.135326572E+01  7.418958355E+00 -1.772177007E+00  1.368163357E+01  3.300000131E-01  0.00000E+00  9.000E+00
      21     1     1     2   511   515 -3.246594657E+00 -5.778716179E+00 -1.953372359E+01  2.062765849E+01  2.384185791E-07  0.00000E+00  9.000E+00
</event>
<event>
      5  10001  3.52971E+09  6.59528E+00 -1.00000E+00  2.19269E-01
      21    -1     0     0   514   513  0.000000000E+00  0.000000000E+00  1.209716209E+01  1.209716209E+01  0.000000000E+00  0.00000E+00  9.000E+00
      21    -1     0     0   511   514  0.000000000E+00  0.000000000E+00 -2.835247682E+01  2.835247682E+01  0.000000000E+00  0.00000E+00  9.000E+00
      21     1     1     2   511   515  5.387259113E+00 -9.972821133E+00 -2.374714081E+01  2.631361660E+01  0.000000000E+00  0.00000E+00  9.000E+00
      21     1     1     2   512   513 -2.171968915E+00  1.133065211E+00  2.445768810E+00  3.461657234E+00  1.074538015E-07  0.00000E+00  9.000E+00
      21     1     1     2   515   512 -3.215290198E+00  8.839755922E+00  5.046057267E+00  1.067436508E+01  4.768371582E-07  0.00000E+00  9.000E+00
</event>
<event>
      5  10001  3.52971E+09  7.64096E+00 -1.00000E+00  2.10307E-01
      21    -1     0     0   516   512  0.000000000E+00  0.000000000E+00  5.064093358E+00  5.064093358E+00  0.000000000E+00  0.00000E+00  9.000E+00
      21    -1     0     0   513   517  0.000000000E+00  0.000000000E+00 -1.308667536E+02  1.308667536E+02  0.000000000E+00  0.00000E+00  9.000E+00
      21     1     1     2   516   517  7.706552375E+00  1.539488194E+00 -6.921470092E+00  1.047223575E+01  2.795705652E-07  0.00000E+00  9.000E+00
      21     1     1     2   511   512 -1.052956103E+01 -8.639833422E+00 -1.155733898E+01  1.786310336E+01  3.769728732E-07  0.00000E+00  9.000E+00
      21     1     1     2   513   511  2.823008660E+00  7.100345227E+00 -1.073238512E+02  1.075955079E+02  1.348699152E-06  0.00000E+00  9.000E+00
</event>
<event>
      5  10001  3.52971E+09  7.24508E+00 -1.00000E+00  2.13457E-01
      21    -1     0     0   514   511  0.000000000E+00  0.000000000E+00  6.479400224E+00  6.479400224E+00  0.000000000E+00  0.00000E+00  9.000E+00
      21    -1     0     0   513   515  0.000000000E+00  0.000000000E+00 -5.732596248E+01  5.732596248E+01  0.000000000E+00  0.00000E+00  9.000E+00
      21     1     1     2   514   515 -1.414563851E+01  9.635681224E+00 -3.436287886E+01  3.838948925E+01  4.768371582E-07  0.00000E+00  9.000E+00
      21     1     1     2   512   511  6.261377154E+00 -9.360726582E+00 -7.892880915E+00  1.375229490E+01  1.192092896E-07  0.00000E+00  9.000E+00
      21     1     1     2   513   512  7.884261360E+00 -2.749546421E-01 -8.590802484E+00  1.166357855E+01  1.192092896E-07  0.00000E+00  9.000E+00
</event>
<event>
      5  10001  3.52971E+09  4.83086E+00 -1.00000E+00  2.45535E-01
      21    -1     0     0   512   511  0.000000000E+00  0.000000000E+00  5.042483052E+01  5.042483052E+01  0.000000000E+00  0.00000E+00  9.000E+00
       2    -1     0     0   511     0  0.000000000E+00  0.000000000E+00 -1.171221232E+02  1.171221232E+02  0.000000000E+00  0.00000E+00  9.000E+00
      21     1     1     2   512   514 -1.068625037E+01  1.785224182E+01  4.525508699E+01  4.980884844E+01  1.168007728E-06  0.00000E+00  9.000E+00
       2     1     1     2   513     0  6.995453370E+00 -1.876172120E+01 -1.121575234E+02  1.139313719E+02  3.300000131E-01  0.00000E+00  9.000E+00
      21     1     1     2   514   513  3.690797001E+00  9.094793750E-01  2.051437099E-01  3.806733400E+00  8.449924158E-08  0.00000E+00  9.000E+00
</event>
<event>
      5  10001  3.52971E+09  4.04677E+00 -1.00000E+00  2.62278E-01
       2    -1     0     0   515     0  0.000000000E+00  0.000000000E+00  5.577154118E+02  5.577154118E+02  0.000000000E+00  0.00000E+00  9.000E+00
      21    -1     0     0   511   515  0.000000000E+00  0.000000000E+00 -1.538503006E+01  1.538503006E+01  0.000000000E+00  0.00000E+00  9.000E+00
      21     1     1     2   513   516 -6.241590957E+00 -6.457388760E+00  8.782565379E+01  8.828363830E+01  1.907348633E-06  0.00000E+00  9.000E+00
      21     1     1     2   511   513  1.017290938E+01  5.497718520E+00 -1.294033154E+01  1.735411117E+01  5.057621821E-07  0.00000E+00  9.000E+00
       2     1     1     2   516     0 -3.931318423E+00  9.596702394E-01  4.674450595E+02  4.674626924E+02  3.300000131E-01  0.00000E+00  9.000E+00
</event>
<event>
      5  10001  3.52971E+09  6.08102E+00 -1.00000E+00  2.24565E-01
      21    -1     0     0   512   511  0.000000000E+00  0.000000000E+00  8.298415758E-01  8.298415758E-01  0.000000000E+00  0.00000E+00  9.000E+00
       2    -1     0     0   513     0  0.000000000E+00  0.000000000E+00 -7.242244401E+02  7.242244401E+02  0.000000000E+00  0.00000E+00  9.000E+00
      21     1     1     2   514   511  9.014473573E+00 -1.525005897E+01 -1.423089583E+02  1.434073382E+02  0.000000000E+00  0.00000E+00  9.000E+00
       2     1     1     2   512     0 -1.443205281E+01  1.248878879E+01 -3.933926416E+02  3.938554726E+02  3.300000131E-01  0.00000E+00  9.000E+00
      21     1     1     2   513   514  5.417579240E+00  2.761270180E+00 -1.876929986E+02  1.877914708E+02  0.000000000E+00  0.00000E+00  9.000E+00
</event>
<event>
      5  10001  3.52971E+09  6.74810E+00 -1.00000E+00  2.17822E-01
      21    -1     0     0   515   511  0.000000000E+00  0.000000000E+00  6.295273552E+01  6.295273552E+01  0.000000000E+00  0.00000E+00  9.000E+00
      21    -1     0     0   513   515  0.000000000E+00  0.000000000E+00 -9.354448397E+00  9.354448397E+00  0.000000000E+00  0.00000E+00  9.000E+00
      21     1     1     2   513   514 -4.439973531E+00  1.192505840E+01 -3.631189889E+00  1.323275946E+01  3.526258339E-07  0.00000E+00  9.000E+00
      21     1     1     2   514   512  5.614092311E+00 -7.440094289E+00  2.883520261E+01  3.030415723E+01  5.840038640E-07  0.00000E+00  9.000E+00
      21     1     1     2   512   511 -1.174118780E+00 -4.484964113E+00  2.839427440E+01  2.877026723E+01  4.768371582E-07  0.00000E+00  9.000E+00
</event>
<event>
      5  10001  3.52971E+09  2.49462E+01 -1.00000E+00  1.58818E-01
      21    -1     0     0   516   514  0.000000000E+00  0.000000000E+00  7.454818393E+02  7.454818393E+02  0.000000000E+00  0.00000E+00  9.000E+00
      21    -1     0     0   513   511  0.000000000E+00  0.000000000E+00 -5.309389471E+00  5.309389471E+00  0.000000000E+00  0.00000E+00  9.000E+00
      21     1     1     2   516   511 -1.503703190E+01  1.783507243E+00  6.109714340E+02  6.111590516E+02  1.078959322E-05  0.00000E+00  9.000E+00
      21     1     1     2   515   514  1.551323562E+01 -1.536113841E+01  2.005874397E+01  2.964756756E+01  8.920806376E-07  0.00000E+00  9.000E+00
      21     1     1     2   513   515 -4.762037188E-01  1.357763117E+01  1.091422719E+02  1.099846096E+02  0.000000000E+00  0.00000E+00  9.000E+00
</event>
<event>
      5  10001  3.52971E+09  6.94372E+00 -1.00000E+00  2.16045E-01
      21    -1     0     0   511   514  0.000000000E+00  0.000000000E+00  1.736125617E+01  1.736125617E+01  0.000000000E+00  0.00000E+00  9.000E+00
      21    -1     0     0   513   512  0.000000000E+00  0.000000000E+00 -2.605460622E+02  2.605460622E+02  0.000000000E+00  0.00000E+00  9.000E+00
      21     1     1     2   515   514 -7.118584355E+00 -2.971450922E+00  1.202523953E+01  1.428671235E+01  6.951036328E-07  0.00000E+00  9.000E+00
      21     1     1     2   513   515  1.403265621E+01  3.612381360E+00 -2.561975755E+02  2.566070194E+02  3.814697266E-06  0.00000E+00  9.000E+00
      21     1     1     2   511   512 -6.914071853E+00 -6.409304380E-01  9.875299176E-01  7.013586582E+00  7.223605897E-08  0.00000E+00  9.000E+00
</event>
<event>
      5  10001  3.52971E+09  4.49446E+00 -1.00000E+00  2.52079E-01
      21    -1     0     0   516   512  0.000000000E+00  0.000000000E+00  5.959584085E+02  5.959584085E+02  0.000000000E+00  0.00000E+00  9.000E+00
      21    -1     0     0   514   517  0.000000000E+00  0.000000000E+00 -3.646108206E-01  3.646108206E-01  0.000000000E+00  0.00000E+00  9.000E+00
      21     1     1     2   516   517  1.190919615E+01  3.878409416E+00  4.429558582E+02  4.431328958E+02  9.344061824E-06  0.00000E+00  9.000E+00
      21     1     1     2   514   513 -5.229326031E+00 -1.434082415E+00  8.676163773E+01  8.693091639E+01  1.348699152E-06  0.00000E+00  9.000E+00
      21     1     1     2   513   512 -6.679870118E+00 -2.444327002E+00  6.587630178E+01  6.625920717E+01  9.536743164E-07  0.00000E+00  9.000E+00
</event>
<event>
      5  10001  3.52971E+09  3.31852E+00 -1.00000E+00  2.84164E-01
      21    -1     0     0   513   514  0.000000000E+00  0.000000000E+00  6.088024283E+01  6.088024283E+01  0.000000000E+00  0.00000E+00  9.000E+00
       3    -1     0     0   512     0  0.000000000E+00  0.000000000E+00 -3.777851211E+01  3.777851211E+01  0.000000000E+00  0.00000E+00  9.000E+00
      21     1     1     2   513   511  1.212033782E+01  4.282220261E+00  6.440772393E+00  1.437788400E+01  2.665600750E-07  0.00000E+00  9.000E+00
       3     1     1     2   511     0 -1.057436759E+01 -1.345916231E+00 -3.291104931E+01  3.459791767E+01  5.000000000E-01  0.00000E+00  9.000E+00
      21     1     1     2   512   514 -1.545970235E+00 -2.936304030E+00  4.957200763E+01  4.968295327E+01  0.000000000E+00  0.00000E+00  9.000E+00
</event>
<event>
      5  10001  3.52971E+09  1.57623E+01 -1.00000E+00  1.75375E-01
      21    -1     0     0   513   511  0.000000000E+00  0.000000000E+00  2.114077027E+01  2.114077027E+01  0.000000000E+00  0.00000E+00  9.000E+00
      21    -1     0     0   512   514  0.000000000E+00  0.000000000E+00 -1.589008027E+02  1.589008027E+02  0.000000000E+00  0.00000E+00  9.000E+00
      21     1     1     2   515   514 -2.262338925E+01  3.584482254E-01  8.579809986E+00  2.419833395E+01  7.539457465E-07  0.00000E+00  9.000E+00
      21     1     1     2   512   511  7.647062514E+00  4.556889007E+00 -1.374674865E+02  1.377554088E+02  2.697398305E-06  0.00000E+00  9.000E+00
      21     1     1     2   513   515  1.497632674E+01 -4.915337233E+00 -8.872355875E+00  1.808783020E+01  2.064765462E-07  0.00000E+00  9.000E+00
</event>
<event>
      5  10001  3.52971E+09  3.55602E+00 -1.00000E+00  2.76112E-01
      21    -1     0     0   512   516  0.000000000E+00  0.000000000E+00  7.586127081E+00  7.586127081E+00  0.000000000E+00  0.00000E+00  9.000E+00
      -3    -1     0     0     0   515  0.000000000E+00  0.000000000E+00 -2.551935885E+02  2.551935885E+02  0.000000000E+00  0.00000E+00  9.000E+00
      -3     1     1     2     0   511  1.233433686E+01  2.675496802E+00 -2.402670824E+02  2.405988675E+02  5.000000000E-01  0.00000E+00  9.000E+00
      21     1     1     2   511   516 -9.075085363E+00 -1.253620511E+00 -1.275432981E+01  1.570355589E+01  5.057621821E-07  0.00000E+00  9.000E+00
      21     1     1     2   512   515 -3.259251497E+00 -1.421876291E+00  5.413950735E+00  6.477292264E+00  2.308477966E-07  0.00000E+00  9.000E+00
</event>
<event>
      5  10001  3.52971E+09  2.68027E+01 -1.00000E+00  1.56516E-01
       3    -1     0     0   512     0  0.000000000E+00  0.000000000E+00  3.330552731E+01  3.330552731E+01  0.000000000E+00  0.00000E+00  9.000E+00
      -5    -1     0     0     0   512  0.000000000E+00  0.000000000E+00 -2.098173307E+01  2.098173307E+01  0.000000000E+00  0.00000E+00  9.000E+00
      21     1     1     2   511   513 -1.505702665E+01  6.344068574E+00  4.747281444E+00  1.701463896E+01  2.795705652E-07  0.00000E+00  9.000E+00
       3     1     1     2   513     0  7.355897700E+00 -1.374560174E+01  1.638273470E+01  2.262067184E+01  5.000000000E-01  0.00000E+00  9.000E+00
      -5     1     1     2     0   511  7.701128954E+00  7.401533168E+00 -8.806221906E+00  1.465194958E+01  4.800000191E+00  0.00000E+00  9.000E+00
</event>
<event>
      5  10001  3.52971E+09  8.67910E+00 -1.00000E+00  2.03144E-01
       2    -1     0     0   513     0  0.000000000E+00  0.000000000E+00  5.211599383E+02  5.211599383E+02  0.000000000E+00  0.00000E+00  9.000E+00
      21    -1     0     0   514   512  0.000000000E+00  0.000000000E+00 -8.417871906E-01  8.417871906E-01  0.000000000E+00  0.00000E+00  9.000E+00
      21     1     1     2   513   515 -6.537131026E+00  1.059871305E+01  8.421860200E+01  8.513424530E+01  1.348699152E-06  0.00000E+00  9.000E+00
       2     1     1     2   514     0  1.311973729E+01 -1.328639278E+01  2.973582179E+02  2.979440793E+02  3.300000131E-01  0.00000E+00  9.000E+00
      21     1     1     2   515   512 -6.582606265E+00  2.687679733E+00  1.387413312E+02  1.389234008E+02  0.000000000E+00  0.00000E+00  9.000E+00
</event>
<event>
      5  10001  3.52971E+09  4.16679E+00 -1.00000E+00  2.59351E-01
      21    -1     0     0   511   512  0.000000000E+00  0.000000000E+00  9.676223760E+01  9.676223760E+01  0.000000000E+00  0.00000E+00  9.000E+00
      21    -1     0     0   515   513  0.000000000E+00  0.000000000E+00 -1.036454277E+02  1.036454277E+02  0.000000000E+00  0.00000E+00  9.000E+00
      21     1     1     2   511   516 -8.258775541E+00  9.262913712E+00  1.200324702E+01  1.726519281E+01  1.685873940E-07  0.00000E+00  9.000E+00
      21     1     1     2   515   512  8.086738049E+00 -5.099678484E+00  8.180655305E+01  8.236330600E+01  2.336015456E-06  0.00000E+00  9.000E+00
      21     1     1     2   516   513  1.720374925E-01 -4.163235228E+00 -1.006929901E+02  1.007791664E+02  1.348699152E-06  0.00000E+00  9.000E+00
</event>
<event>
      5  10001  3.52971E+09  1.13775E+01 -1.00000E+00  1.89490E-01
      21    -1     0     0   511   512  0.000000000E+00  0.000000000E+00  1.318524537E+02  1.318524537E+02  0.000000000E+00  0.00000E+00  9.000E+00
      21    -1     0     0   517   514  0.000000000E+00  0.000000000E+00 -2.151209391E+01  2.151209391E+01  0.000000000E+00  0.00000E+00  9.000E+00
      21     1     1     2   513   512  1.320516023E+01 -8.121019124E+00 -2.552364244E+00  1.571119892E+01  3.513641990E-07  0.00000E+00  9.000E+00
      21     1     1     2   517   513 -9.317526647E+00 -2.571637266E+00 -1.019044130E+01  1.404545175E+01  2.064765462E-07  0.00000E+00  9.000E+00
      21     1     1     2   511   514 -3.887633584E+00  1.069265639E+01  1.230831653E+02  1.236078969E+02  1.907348633E-06  0.00000E+00  9.000E+00
</event>
<event>
      5  10001  3.52971E+09  6.33632E+00 -1.00000E+00  2.21849E-01
      21    -1     0     0   515   513  0.000000000E+00  0.000000000E+00  4.385795508E+01  4.385795508E+01  0.000000000E+00  0.00000E+00  9.000E+00
      21    -1     0     0   516   515  0.000000000E+00  0.000000000E+00 -6.724293005E+01  6.724293005E+01  0.000000000E+00  0.00000E+00  9.000E+00
      21     1     1     2   514   513  3.427987911E+00  1.053160429E+01  4.200677344E+01  4.344231583E+01  8.259061849E-07  0.00000E+00  9.000E+00
      21     1     1     2   512   514 -2.409871201E-01 -4.600747983E+00 -5.551147174E+01  5.570231998E+01  0.000000000E+00  0.00000E+00  9.000E+00
      21     1     1     2   516   512 -3.187000791E+00 -5.930856302E+00 -9.880276668E+00  1.195624931E+01  1.192092896E-07  0.00000E+00  9.000E+00
</event>
<event>
      5  10001  3.52971E+09  6.70150E+00 -1.00000E+00  2.18258E-01
      21    -1     0     0   511   512  0.000000000E+00  0.000000000E+00  1.552851838E+01  1.552851838E+01  0.000000000E+00  0.00000E+00  9.000E+00
      21    -1     0     0   516   511  0.000000000E+00  0.000000000E+00 -1.021805791E+02  1.021805791E+02  0.000000000E+00  0.00000E+00  9.000E+00
      21     1     1     2   516   517 -8.876283798E+00 -7.661350491E+00 -9.306940936E+01  9.380511534E+01  1.348699152E-06  0.00000E+00  9.000E+00
      21     1     1     2   513   512  1.098328573E+01  3.920881592E+00  1.208466617E+01  1.679419644E+01  1.155776944E-06  0.00000E+00  9.000E+00
      21     1     1     2   517   513 -2.107001930E+00  3.740468899E+00 -5.667317570E+00  7.109785732E+00  8.429369702E-08  0.00000E+00  9.000E+00
</event>
<event>
      5  10001  3.52971E+09  9.55216E+00 -1.00000E+00  1.98081E-01
      21    -1     0     0   514   513  0.000000000E+00  0.000000000E+00  1.308777341E+02  1.308777341E+02  0.000000000E+00  0.00000E+00  9.000E+00
       1    -1     0     0   516     0  0.000000000E+00  0.000000000E+00 -2.029892821E+02  2.029892821E+02  0.000000000E+00  0.00000E+00  9.000E+00
      21     1     1     2   514   515  3.917111999E+00  7.965058006E+00 -1.275462611E+01  1.553918926E+01  1.130918620E-06  0.00000E+00  9.000E+00
      21     1     1     2   516   513  2.849623814E+00 -1.470707664E+01  1.289305418E+02  1.297979317E+02  1.907348633E-06  0.00000E+00  9.000E+00
       1     1     1     2   515     0 -6.766735812E+00  6.742018636E+00 -1.882874637E+02  1.885298953E+02  3.300000131E-01  0.00000E+00  9.000E+00
</event>
<event>
      5  10001  3.52971E+09  3.46975E+00 -1.00000E+00  2.78917E-01
      21    -1     0     0   511   513  0.000000000E+00  0.000000000E+00  2.214516956E+01  2.214516956E+01  0.000000000E+00  0.00000E+00  9.000E+00
      21    -1     0     0   512   514  0.000000000E+00  0.000000000E+00 -2.423943645E+01  2.423943645E+01  0.000000000E+00  0.00000E+00  9.000E+00
      21     1     1     2   516   513  7.840195945E+00  8.853086099E+00  1.771138893E+01  2.129645754E+01  2.384185791E-07  0.00000E+00  9.000E+00
      21     1     1     2   512   516 -4.991167467E+00 -1.083354151E+01 -1.517418460E+01  1.930112050E+01  3.371747881E-07  0.00000E+00  9.000E+00
      21     1     1     2   511   514 -2.849028478E+00  1.980455413E+00 -4.631471227E+00  5.787027962E+00  1.032382731E-07  0.00000E+00  9.000E+00
</event>
<event>
      5  10001  3.52971E+09  3.79951E+00 -1.00000E+00  2.68837E-01
      21    -1     0     0   515   516  0.000000000E+00  0.000000000E+00  2.798079646E+01  2.798079646E+01  0.000000000E+00  0.00000E+00  9.000E+00
      21    -1     0     0   513   517  0.000000000E+00  0.000000000E+00 -3.892649867E+01  3.892649867E+01  0.000000000E+00  0.00000E+00  9.000E+00
      21     1     1     2   515   517 -1.219414701E+01  1.514930953E+00 -1.777657374E+00  1.241580859E+01  4.053554090E-07  0.00000E+00  9.000E+00
      21     1     1     2   513   512  1.001619779E+01 -4.628258751E+00 -3.070221058E+01  3.262469512E+01  3.371747881E-07  0.00000E+00  9.000E+00
      21     1     1     2   512   516  2.177949220E+00  3.113327798E+00  2.153416574E+01  2.186679141E+01  2.384185791E-07  0.00000E+00  9.000E+00
</event>
<event>
      5  10001  3.52971E+09  7.43317E+00 -1.00000E+00  2.11927E-01
      21    -1     0     0   512   513  0.000000000E+00  0.000000000E+00  2.523793424E+02  2.523793424E+02  0.000000000E+00  0.00000E+00  9.000E+00
      21    -1     0     0   514   511  0.000000000E+00  0.000000000E+00 -3.612785922E+00  3.612785922E+00  0.000000000E+00  0.00000E+00  9.000E+00
      -5     1     1     2     0   513  3.011174096E+00  1.692030430E+01  3.919052000E+01  4.306159224E+01  4.800000191E+00  0.00000E+00  9.000E+00
      21     1     1     2   512   511 -1.024569269E+01 -1.714682301E+01  1.945683628E+02  1.955909905E+02  3.814697266E-06  0.00000E+00  9.000E+00
       5     1     1     2   514     0  7.234518594E+00  2.265187053E-01  1.500767367E+01  1.733954558E+01  4.800000191E+00  0.00000E+00  9.000E+00
</event>
<event>
      5  10001  3.52971E+09  5.79911E+00 -1.00000E+00  2.27787E-01
       2    -1     0     0   515     0  0.000000000E+00  0.000000000E+00  5.572702385E+02  5.572702385E+02  0.000000000E+00  0.00000E+00  9.000E+00
      21    -1     0     0   513   516  0.000000000E+00  0.000000000E+00 -1.122727748E+01  1.122727748E+01  0.000000000E+00  0.00000E+00  9.000E+00
      21     1     1     2   515   516 -8.232023113E+00  1.124373699E+01  1.762449931E+01  2.246799506E+01  0.000000000E+00  0.00000E+00  9.000E+00
      21     1     1     2   513   514  3.252886670E+00 -8.270925554E+00 -6.543130625E+00  1.103639613E+01  1.685873940E-07  0.00000E+00  9.000E+00
       2     1     1     2   514     0  4.979136443E+00 -2.972811435E+00  5.349615923E+02  5.349931248E+02  3.300000131E-01  0.00000E+00  9.000E+00
</event>
<event>
      5  10001  3.52971E+09  4.04488E+00 -1.00000E+00  2.62325E-01
      21    -1     0     0   512   513  0.000000000E+00  0.000000000E+00  4.176954341E+01  4.176954341E+01  0.000000000E+00  0.00000E+00  9.000E+00
       1    -1     0     0   513     0  0.000000000E+00  0.000000000E+00 -8.856027494E+01  8.856027494E+01  0.000000000E+00  0.00000E+00  9.000E+00
      21     1     1     2   512   515  2.375308551E+00 -4.503556203E+00  2.599021080E+01  2.648424374E+01  4.768371582E-07  0.00000E+00  9.000E+00
       1     1     1     2   511     0 -7.674907384E+00  7.945981200E+00 -8.730733571E+01  8.800410553E+01  3.300000131E-01  0.00000E+00  9.000E+00
      21     1     1     2   515   511  5.299598833E+00 -3.442424996E+00  1.452639339E+01  1.584146907E+01  1.685873940E-07  0.00000E+00  9.000E+00
</event>
<event>
      5  10001  3.52971E+09  8.89051E+00 -1.00000E+00  2.01848E-01
      21    -1     0     0   514   511  0.000000000E+00  0.000000000E+00  1.813143831E+01  1.813143831E+01  0.000000000E+00  0.00000E+00  9.000E+00
      21    -1     0     0   513   512  0.000000000E+00  0.000000000E+00 -1.685794432E+02  1.685794432E+02  0.000000000E+00  0.00000E+00  9.000E+00
      21     1     1     2   514   516  1.001662441E+01  2.387394913E+00 -1.456984859E+02  1.460619088E+02  0.000000000E+00  0.00000E+00  9.000E+00
      21     1     1     2   513   511 -1.363870523E+01 -1.050661764E+01  1.247795916E+01  2.126270818E+01  9.536743164E-07  0.00000E+00  9.000E+00
      21     1     1     2   516   512  3.622080814E+00  8.119222725E+00 -1.722747815E+01  1.938626448E+01  0.000000000E+00  0.00000E+00  9.000E+00
</event>
<event>
      5  10001  3.52971E+09  4.97467E+00 -1.00000E+00  2.42976E-01
      21    -1     0     0   515   511  0.000000000E+00  0.000000000E+00  1.260262606E+01  1.260262606E+01  0.000000000E+00  0.00000E+00  9.000E+00
      21    -1     0     0   517   515  0.000000000E+00  0.000000000E+00 -1.300023341E+02  1.300023341E+02  0.000000000E+00  0.00000E+00  9.000E+00
      21     1     1     2   517   512 -9.368797540E+00  6.071319919E-01 -1.111324450E+02  1.115283073E+02  1.907348633E-06  0.00000E+00  9.000E+00
      21     1     1     2   512   513  1.117179515E+01  4.029301465E+00 -1.612990565E+01  2.003043018E+01  9.233911863E-07  0.00000E+00  9.000E+00
      21     1     1     2   513   511 -1.802997607E+00 -4.636433457E+00  9.862642668E+00  1.104622270E+01  1.685873940E-07  0.00000E+00  9.000E+00
</event>
<event>
      5  10001  3.52971E+09  8.75525E+00 -1.00000E+00  2.02672E-01
      -2    -1     0     0     0   511  0.000000000E+00  0.000000000E+00  6.949051466E+02  6.949051466E+02  0.000000000E+00  0.00000E+00  9.000E+00
      21    -1     0     0   511   514  0.000000000E+00  0.000000000E+00 -1.635279696E+01  1.635279696E+01  0.000000000E+00  0.00000E+00  9.000E+00
      -2     1     1     2     0   513 -1.965471800E+01  7.252202659E+00  6.787148332E+02  6.790381698E+02  3.300000131E-01  0.00000E+00  9.000E+00
      21     1     1     2   513   512  1.985357611E+01  5.824825008E-01 -7.741364231E+00  2.131742223E+01  1.410503336E-06  0.00000E+00  9.000E+00
      21     1     1     2   512   514 -1.988581130E-01 -7.834685160E+00  7.578880679E+00  1.090235151E+01  2.384185791E-07  0.00000E+00  9.000E+00
</event>
<event>
      5  10001  3.52971E+09  1.18225E+01 -1.00000E+00  1.87707E-01
      21    -1     0     0   512   511  0.000000000E+00  0.000000000E+00  2.302655373E+00  2.302655373E+00  0.000000000E+00  0.00000E+00  9.000E+00
      -3    -1     0     0     0   514  0.000000000E+00  0.000000000E+00 -3.662041467E+02  3.662041467E+02  0.000000000E+00  0.00000E+00  9.000E+00
      -3     1     1     2     0   511 -2.655410403E+01  7.917467956E+00 -1.305767743E+02  1.334853952E+02  5.000000000E-01  0.00000E+00  9.000E+00
      21     1     1     2   513   514  3.258597851E+00 -2.453434850E+00 -4.453315918E+01  4.471957143E+01  0.000000000E+00  0.00000E+00  9.000E+00
      21     1     1     2   512   513  2.329550618E+01 -5.464033106E+00 -1.887915578E+02  1.903018354E+02  2.697398305E-06  0.00000E+00  9.000E+00
</event>
<event>
      5  10001  3.52971E+09  5.94004E+00 -1.00000E+00  2.26145E-01
      21    -1     0     0   515   513  0.000000000E+00  0.000000000E+00  5.298578390E+01  5.298578390E+01  0.000000000E+00  0.00000E+00  9.000E+00
      21    -1     0     0   514   516  0.000000000E+00  0.000000000E+00 -2.098008523E+01  2.098008523E+01  0.000000000E+00  0.00000E+00  9.000E+00
      21     1     1     2   515   516 -8.413258519E+00 -8.993285313E+00  4.773919914E+01  4.930206116E+01  0.000000000E+00  0.00000E+00  9.000E+00
      21     1     1     2   511   513  9.131381124E+00  3.096810029E+00 -2.208534363E+00  9.891914760E+00  3.182017282E-07  0.00000E+00  9.000E+00
      21     1     1     2   514   511 -7.181226050E-01  5.896475285E+00 -1.352496611E+01  1.477189321E+01  2.384185791E-07  0.00000E+00  9.000E+00
</event>
<event>
      5  10001  3.52971E+09  5.81892E+00 -1.00000E+00  2.27552E-01
      21    -1     0     0   512   511  0.000000000E+00  0.000000000E+00  2.238313397E+01  2.238313397E+01  0.000000000E+00  0.00000E+00  9.000E+00
       2    -1     0     0   513     0  0.000000000E+00  0.000000000E+00 -4.211819051E+02  4.211819051E+02  0.000000000E+00  0.00000E+00  9.000E+00
      21     1     1     2   515   511 -8.272710591E+00  4.805946714E+00  1.988026259E+01  2.206263142E+01  2.078484985E-06  0.00000E+00  9.000E+00
       2     1     1     2   512     0  1.369906898E+01 -3.378822077E+00 -4.138758877E+02  4.141164573E+02  3.300000131E-01  0.00000E+00  9.000E+00
      21     1     1     2   513   515 -5.426358392E+00 -1.427124637E+00 -4.803145999E+00  7.385950285E+00  2.230201594E-07  0.00000E+00  9.000E+00
</event>
<event>
      5  10001  3.52971E+09  9.48832E+00 -1.00000E+00  1.98427E-01
      21    -1     0     0   514   511  0.000000000E+00  0.000000000E+00  1.628927655E+02  1.628927655E+02  0.000000000E+00  0.00000E+00  9.000E+00
      21    -1     0     0   513   514  0.000000000E+00  0.000000000E+00 -2.628419121E+01  2.628419121E+01  0.000000000E+00  0.00000E+00  9.000E+00
      21     1     1     2   513   515 -1.852681489E+01 -3.116208698E+00 -2.222246185E+01  2.909968105E+01  9.830249847E-07  0.00000E+00  9.000E+00
      21     1     1     2   515   512  3.127701778E+00  1.579905384E+00  5.359655857E+01  5.371098315E+01  6.743495762E-07  0.00000E+00  9.000E+00
      21     1     1     2   512   511  1.539911311E+01  1.536303314E+00  1.052344776E+02  1.063662926E+02  2.336015456E-06  0.00000E+00  9.000E+00
</event>
<event>
      5  10001  3.52971E+09  1.61492E+01 -1.00000E+00  1.74412E-01
      21    -1     0     0   516   512  0.000000000E+00  0.000000000E+00  8.567715452E+00  8.567715452E+00  0.000000000E+00  0.00000E+00  9.000E+00
      21    -1     0     0   511   516  0.000000000E+00  0.000000000E+00 -1.571348612E+01  1.571348612E+01  0.000000000E+00  0.00000E+00  9.000E+00
      21     1     1     2   517   512 -7.211300493E+00 -1.871171341E+00 -2.392650781E+00  7.824890718E+00  1.632340424E-07  0.00000E+00  9.000E+00
      21     1     1     2   511   513  2.394336544E+00 -4.114759445E+00 -6.987042608E+00  8.454753526E+00  8.429369702E-08  0.00000E+00  9.000E+00
      21     1     1     2   513   517  4.816963948E+00  5.985930786E+00  2.233922717E+00  8.001557333E+00  1.908279728E-07  0.00000E+00  9.000E+00
</event>
<event>
      5  10001  3.52971E+09  1.79668E+01 -1.00000E+00  1.70301E-01
      21    -1     0     0   514   511  0.000000000E+00  0.000000000E+00  2.138158417E+02  2.138158417E+02  0.000000000E+00  0.00000E+00  9.000E+00
      21    -1     0     0   513   514  0.000000000E+00  0.000000000E+00 -1.906214163E+01  1.906214163E+01  0.000000000E+00  0.00000E+00  9.000E+00
      -1     1     1     2     0   511 -1.155653422E+01 -5.551099045E+00  1.984431838E+02  1.988571706E+02  3.300000131E-01  0.00000E+00  9.000E+00
      21     1     1     2   513   512  1.825320233E+01 -4.827083331E+00 -8.572033355E+00  2.073547407E+01  1.052827938E-06  0.00000E+00  9.000E+00
       1     1     1     2   512     0 -6.696668110E+00  1.037818238E+01  4.882549578E+00  1.328533867E+01  3.300000131E-01  0.00000E+00  9.000E+00
</event>
<event>
      5  10001  3.52971E+09  1.50529E+01 -1.00000E+00  1.77236E-01
      21    -1     0     0   515   511  0.000000000E+00  0.000000000E+00  2.015178975E+01  2.015178975E+01  0.000000000E+00  0.00000E+00  9.000E+00
      21    -1     0     0   513   515  0.000000000E+00  0.000000000E+00 -2.701341174E+02  2.701341174E+02  0.000000000E+00  0.00000E+00  9.000E+00
      21     1     1     2   516   517  1.933345713E+01  1.699129560E+01 -1.642677365E+01  3.053400699E+01  3.371747881E-07  0.00000E+00  9.000E+00
      21     1     1     2   517   511 -2.722394590E+01 -2.981040302E+01 -1.891173966E+01  4.458090685E+01  4.129530925E-07  0.00000E+00  9.000E+00
      21     1     1     2   513   516  7.890488777E+00  1.281910742E+01 -2.146438143E+02  2.151709933E+02  3.814697266E-06  0.00000E+00  9.000E+00
</event>
<event>
      5  10001  3.52971E+09  8.42940E+00 -1.00000E+00  2.04740E-01
      21    -1     0     0   512   511  0.000000000E+00  0.000000000E+00  4.125140748E+02  4.125140748E+02  0.000000000E+00  0.00000E+00  9.000E+00
      21    -1     0     0   513   512  0.000000000E+00  0.000000000E+00 -9.054364287E+01  9.054364287E+01  0.000000000E+00  0.00000E+00  9.000E+00
      21     1     1     2   514   511  1.930162992E+00  1.294826292E+01  4.100888655E+02  4.102977707E+02  5.394796609E-06  0.00000E+00  9.000E+00
      21     1     1     2   515   514 -1.430095481E+00 -1.926303974E+01 -8.081856155E+01  8.309482393E+01  1.907348633E-06  0.00000E+00  9.000E+00
      21     1     1     2   513   515 -5.000675114E-01  6.314776823E+00 -7.299871958E+00  9.665123095E+00  4.915124924E-07  0.00000E+00  9.000E+00
</event>
<event>
      5  10001  3.52971E+09  1.17674E+01 -1.00000E+00  1.87922E-01
      -4    -1     0     0     0   513  0.000000000E+00  0.000000000E+00  2.290998791E-01  2.290998791E-01  0.000000000E+00  0.00000E+00  9.000E+00
       2    -1     0     0   511     0  0.000000000E+00  0.000000000E+00 -1.682493316E+03  1.682493316E+03  0.000000000E+00  0.00000E+00  9.000E+00
      -4     1     1     2     0   512  1.260396900E+01 -8.252358765E-01 -3.551007443E+02  3.553284813E+02  1.500000000E+00  0.00000E+00  9.000E+00
       2     1     1     2   512     0 -7.833656016E+00 -9.904021319E+00 -7.999076864E+02  8.000074197E+02  3.300000131E-01  0.00000E+00  9.000E+00
      21     1     1     2   511   513 -4.770312986E+00  1.072925720E+01 -5.272557852E+02  5.273865147E+02  0.000000000E+00  0.00000E+00  9.000E+00
</event>
<event>
      5  10001  3.52971E+09  6.88234E+00 -1.00000E+00  2.16594E-01
      21    -1     0     0   514   512  0.000000000E+00  0.000000000E+00  1.684867071E+01  1.684867071E+01  0.000000000E+00  0.00000E+00  9.000E+00
      21    -1     0     0   515   514  0.000000000E+00  0.000000000E+00 -9.115139275E+01  9.115139275E+01  0.000000000E+00  0.00000E+00  9.000E+00
      21     1     1     2   511   513 -1.464907239E+01  7.753663985E+00 -1.467558819E+01  2.213792032E+01  2.920019320E-07  0.00000E+00  9.000E+00
      21     1     1     2   513   512  1.104772875E+01 -1.888770939E+00  1.052384702E+01  1.537436575E+01  0.000000000E+00  0.00000E+00  9.000E+00
      21     1     1     2   515   511  3.601343638E+00 -5.864893045E+00 -7.015098086E+01  7.048777739E+01  9.536743164E-07  0.00000E+00  9.000E+00
</event>
<event>
      5  10001  3.52971E+09  1.22751E+01 -1.00000E+00  1.85995E-01
       2    -1     0     0   511     0  0.000000000E+00  0.000000000E+00  3.229267429E+02  3.229267429E+02  0.000000000E+00  0.00000E+00  9.000E+00
      -4    -1     0     0     0   511  0.000000000E+00  0.000000000E+00 -3.322326854E+01  3.322326854E+01  0.000000000E+00  0.00000E+00  9.000E+00
      -4     1     1     2     0   512 -1.250469306E+01  9.729903879E+00 -3.052601993E+01  3.442566297E+01  1.500000000E+00  0.00000E+00  9.000E+00
       2     1     1     2   513     0  2.259072771E+00 -3.175395770E+00  2.705278627E+02  2.705561308E+02  3.300000131E-01  0.00000E+00  9.000E+00
      21     1     1     2   512   513  1.024562028E+01 -6.554508109E+00  4.970163162E+01  5.116821765E+01  9.536743164E-07  0.00000E+00  9.000E+00
</event>
<event>
      5  10001  3.52971E+09  4.87534E+00 -1.00000E+00  2.44729E-01
      21    -1     0     0   513   515  0.000000000E+00  0.000000000E+00  3.026890153E+01  3.026890153E+01  0.000000000E+00  0.00000E+00  9.000E+00
      21    -1     0     0   511   513  0.000000000E+00  0.000000000E+00 -2.703198912E+01  2.703198912E+01  0.000000000E+00  0.00000E+00  9.000E+00
      -5     1     1     2     0   515 -4.612675363E+00  8.229727205E+00  2.137600970E+01  2.385328020E+01  4.800000191E+00  0.00000E+00  9.000E+00
       5     1     1     2   514     0  9.636067030E-01 -1.126913588E+01  2.268842954E+00  1.249438320E+01  4.800000191E+00  0.00000E+00  9.000E+00
      21     1     1     2   511   514  3.649068660E+00  3.039408676E+00 -2.040794024E+01  2.095322725E+01  0.000000000E+00  0.00000E+00  9.000E+00
</event>
<event>
      5  10001  3.52971E+09  1.96191E+01 -1.00000E+00  1.67058E-01
      21    -1     0     0   511   514  0.000000000E+00  0.000000000E+00  1.800897683E+02  1.800897683E+02  0.000000000E+00  0.00000E+00  9.000E+00
      21    -1     0     0   513   512  0.000000000E+00  0.000000000E+00 -1.574749208E+01  1.574749208E+01  0.000000000E+00  0.00000E+00  9.000E+00
      -5     1     1     2     0   514  1.877381321E+00  2.332232105E+01  4.320265918E+01  4.936562551E+01  4.800000191E+00  0.00000E+00  9.000E+00
      21     1     1     2   511   512 -2.112516066E+01 -2.034582244E+01  1.228848795E+02  1.263365288E+02  1.348699152E-06  0.00000E+00  9.000E+00
       5     1     1     2   513     0  1.924777934E+01 -2.976498615E+00 -1.745262448E+00  2.013510607E+01  4.800000191E+00  0.00000E+00  9.000E+00
</event>
<event>
      5  10001  3.52971E+09  9.45399E+00 -1.00000E+00  1.98614E-01
      21    -1     0     0   515   514  0.000000000E+00  0.000000000E+00  6.519495808E+00  6.519495808E+00  0.000000000E+00  0.00000E+00  9.000E+00
      21    -1     0     0   513   511  0.000000000E+00  0.000000000E+00 -1.289136872E+02  1.289136872E+02  0.000000000E+00  0.00000E+00  9.000E+00
      21     1     1     2   513   516 -4.409773215E+00  1.129318917E+01 -3.220327015E+01  3.440977812E+01  8.259061849E-07  0.00000E+00  9.000E+00
      21     1     1     2   516   514  3.430208116E+00 -2.069629100E+01 -1.639707453E+01  2.662643127E+01  7.539457465E-07  0.00000E+00  9.000E+00
      21     1     1     2   515   511  9.795650989E-01  9.403101834E+00 -7.379384666E+01  7.439697357E+01  9.536743164E-07  0.00000E+00  9.000E+00
</event>
<event>
      5  10001  3.52971E+09  1.05068E+01 -1.00000E+00  1.93303E-01
      21    -1     0     0   512   511  0.000000000E+00  0.000000000E+00  1.255250009E+03  1.255250009E+03  0.000000000E+00  0.00000E+00  9.000E+00
      21    -1     0     0   513   517  0.000000000E+00  0.000000000E+00 -3.481244321E-01  3.481244321E-01  0.000000000E+00  0.00000E+00  9.000E+00
      21     1     1     2   512   517  1.506036548E+00  8.972613096E+00  1.060047085E+03  1.060086128E+03  1.525878906E-05  0.00000E+00  9.000E+00
      21     1     1     2   513   514  5.250185722E+00 -5.400930558E+00  6.550244759E+01  6.593409696E+01  2.523185073E-06  0.00000E+00  9.000E+00
      21     1     1     2   514   511 -6.756222270E+00 -3.571682537E+00  1.293523520E+02  1.295779087E+02  3.303624740E-06  0.00000E+00  9.000E+00
</event>
<event>
      5  10001  3.52971E+09  7.15209E+00 -1.00000E+00  2.14237E-01
      -2    -1     0     0     0   511  0.000000000E+00  0.000000000E+00  1.056673493E+02  1.056673493E+02  0.000000000E+00  0.00000E+00  9.000E+00
      21    -1     0     0   511   513  0.000000000E+00  0.000000000E+00 -1.779233214E+01  1.779233214E+01  0.000000000E+00  0.00000E+00  9.000E+00
      -2     1     1     2     0   514 -8.079216069E+00  3.569237517E+00  6.850513175E+01  6.907296986E+01  3.300000131E-01  0.00000E+00  9.000E+00
      21     1     1     2   514   512  1.001535378E+01 -1.045411641E+01  3.462964964E+01  3.753409777E+01  0.000000000E+00  0.00000E+00  9.000E+00
      21     1     1     2   512   513 -1.936137715E+00  6.884878897E+00 -1.525976425E+01  1.685261379E+01  2.384185791E-07  0.00000E+00  9.000E+00
</event>
<event>
      5  10001  3.52971E+09  8.83673E+00 -1.00000E+00  2.02173E-01
       2    -1     0     0   514     0  0.000000000E+00  0.000000000E+00  4.485253069E-01  4.485253069E-01  0.000000000E+00  0.00000E+00  9.000E+00
      21    -1     0     0   512   511  0.000000000E+00  0.000000000E+00 -6.443269728E+02  6.443269728E+02  0.000000000E+00  0.00000E+00  9.000E+00
      21     1     1     2   514   513 -6.300187060E+00 -7.688616143E+00 -1.201873534E+02  1.205977077E+02  2.697398305E-06  0.00000E+00  9.000E+00
       2     1     1     2   512     0 -1.060012299E+00  1.257692360E+01 -2.231964625E+02  2.235532876E+02  3.300000131E-01  0.00000E+00  9.000E+00
      21     1     1     2   513   511  7.360199358E+00 -4.888307457E+00 -3.004946315E+02  3.006245028E+02  3.814697266E-06  0.00000E+00  9.000E+00
</event>
<event>
      5  10001  3.52971E+09  3.35856E+00 -1.00000E+00  2.82731E-01
      21    -1     0     0   515   512  0.000000000E+00  0.000000000E+00  3.031233745E+01  3.031233745E+01  0.000000000E+00  0.00000E+00  9.000E+00
      21    -1     0     0   516   514  0.000000000E+00  0.000000000E+00 -2.722989347E+01  2.722989347E+01  0.000000000E+00  0.00000E+00  9.000E+00
      21     1     1     2   511   512 -1.363499877E+01 -6.238715845E+00  2.352669666E+01  2.789874948E+01  3.371747881E-07  0.00000E+00  9.000E+00
      21     1     1     2   516   511  1.596013380E+01  3.815147681E+00 -1.135991989E+01  1.995818135E+01  3.769728732E-07  0.00000E+00  9.000E+00
      21     1     1     2   515   514 -2.325135031E+00  2.423568164E+00 -9.084332790E+00  9.685300089E+00  1.685873940E-07  0.00000E+00  9.000E+00
</event>
<event>
      5  10001  3.52971E+09  4.51385E+00 -1.00000E+00  2.51679E-01
       1    -1     0     0   515     0  0.000000000E+00  0.000000000E+00  3.441016667E+00  3.441016667E+00  0.000000000E+00  0.00000E+00  9.000E+00
      21    -1     0     0   513   514  0.000000000E+00  0.000000000E+00 -6.664074234E+01  6.664074234E+01  0.000000000E+00  0.00000E+00  9.000E+00
      21     1     1     2   511   514 -2.292054884E+00 -4.218360061E+00 -3.434823509E+01  3.468211832E+01  6.743495762E-07  0.00000E+00  9.000E+00
       1     1     1     2   513     0  7.311020540E+00  8.295931883E+00 -8.230611443E+00  1.378859572E+01  3.300000131E-01  0.00000E+00  9.000E+00
      21     1     1     2   515   511 -5.018965657E+00 -4.077571822E+00 -2.062087915E+01  2.161104498E+01  4.129530925E-07  0.00000E+00  9.000E+00
</event>
<event>
      5  10001  3.52971E+09  7.94522E+00 -1.00000E+00  2.08056E-01
      21    -1     0     0   512   513  0.000000000E+00  0.000000000E+00  3.326044499E+02  3.326044499E+02  0.000000000E+00  0.00000E+00  9.000E+00
      21    -1     0     0   514   511  0.000000000E+00  0.000000000E+00 -2.681972370E+00  2.681972370E+00  0.000000000E+00  0.00000E+00  9.000E+00
      21     1     1     2   512   511  1.173099544E+01 -8.398116360E+00  7.200994411E+01  7.344097401E+01  0.000000000E+00  0.00000E+00  9.000E+00
      21     1     1     2   516   513 -9.346157781E+00  8.192615277E-01  2.513923315E+02  2.515673393E+02  5.394796609E-06  0.00000E+00  9.000E+00
      21     1     1     2   514   516 -2.384837662E+00  7.578854833E+00  6.520201926E+00  1.027810899E+01  5.397430145E-07  0.00000E+00  9.000E+00
</event>
<event>
      5  10001  3.52971E+09  5.30295E+00 -1.00000E+00  2.34131E-01
      21    -1     0     0   514   513  0.000000000E+00  0.000000000E+00  3.441374562E+01  3.441374562E+01  0.000000000E+00  0.00000E+00  9.000E+00
       1    -1     0     0   515     0  0.000000000E+00  0.000000000E+00 -1.053960634E+01  1.053960634E+01  0.000000000E+00  0.00000E+00  9.000E+00
      21     1     1     2   515   511  4.861012914E+00 -4.852599830E+00  1.108043606E+01  1.303661133E+01  0.000000000E+00  0.00000E+00  9.000E+00
       1     1     1     2   514     0 -7.001141457E+00  9.882333169E+00 -5.145770938E+00  1.316299165E+01  3.300000131E-01  0.00000E+00  9.000E+00
      21     1     1     2   511   513  2.140128544E+00 -5.029733338E+00  1.793947416E+01  1.875374898E+01  2.384185791E-07  0.00000E+00  9.000E+00
</event>
<event>
      5  10001  3.52971E+09  4.90999E+00 -1.00000E+00  2.44110E-01
      21    -1     0     0   512   515  0.000000000E+00  0.000000000E+00  6.329032947E+01  6.329032947E+01  0.000000000E+00  0.00000E+00  9.000E+00
      21    -1     0     0   511   513  0.000000000E+00  0.000000000E+00 -8.143118778E+00  8.143118778E+00  0.000000000E+00  0.00000E+00  9.000E+00
      21     1     1     2   512   513  5.477569374E+00  1.353896231E+01  5.233102462E+01  5.433086972E+01  0.000000000E+00  0.00000E+00  9.000E+00
      21     1     1     2   514   515 -7.623088352E+00 -1.083142342E+01  3.201838001E+00  1.362655407E+01  2.149076030E-07  0.00000E+00  9.000E+00
      21     1     1     2   511   514  2.145518978E+00 -2.707538896E+00 -3.856519361E-01  3.476024450E+00  1.486386161E-07  0.00000E+00  9.000E+00
</event>
<event>
      5  10001  3.52971E+09  7.88083E+00 -1.00000E+00  2.08521E-01
       2    -1     0     0   511     0  0.000000000E+00  0.000000000E+00  2.192221775E+02  2.192221775E+02  0.000000000E+00  0.00000E+00  9.000E+00
      21    -1     0     0   512   514  0.000000000E+00  0.000000000E+00 -5.654295648E+00  5.654295648E+00  0.000000000E+00  0.00000E+00  9.000E+00
      21     1     1     2   511   514 -1.651725130E+00  1.922450666E+01  6.205757028E+01  6.498809030E+01  2.431401974E-06  0.00000E+00  9.000E+00
       2     1     1     2   516     0  9.398090876E+00 -2.067295645E+01  1.501905574E+02  1.518980174E+02  3.300000131E-01  0.00000E+00  9.000E+00
      21     1     1     2   512   516 -7.746365746E+00  1.448449794E+00  1.319754117E+00  7.990365449E+00  2.987673529E-07  0.00000E+00  9.000E+00
</event>
<event>
      5  10001  3.52971E+09  1.27843E+01 -1.00000E+00  1.84179E-01
      21    -1     0     0   513   514  0.000000000E+00  0.000000000E+00  8.509451443E+00  8.509451443E+00  0.000000000E+00  0.00000E+00  9.000E+00
      21    -1     0     0   512   515  0.000000000E+00  0.000000000E+00 -4.900743409E+01  4.900743409E+01  0.000000000E+00  0.00000E+00  9.000E+00
      21     1     1     2   513   515 -5.885122695E+00  9.295350421E+00 -3.728881782E+01  3.887793903E+01  0.000000000E+00  0.00000E+00  9.000E+00
      21     1     1     2   512   511  9.068070038E+00 -1.042287214E+00  2.750035437E-01  9.131915670E+00  2.634704815E-07  0.00000E+00  9.000E+00
      21     1     1     2   511   514 -3.182947343E+00 -8.253063207E+00 -3.484168370E+00  9.507030836E+00  1.632340424E-07  0.00000E+00  9.000E+00
</event>
<event>
      5  10001  3.52971E+09  6.05642E+00 -1.00000E+00  2.24836E-01
      21    -1     0     0   512   513  0.000000000E+00  0.000000000E+00  2.282222559E+00  2.282222559E+00  0.000000000E+00  0.00000E+00  9.000E+00
       2    -1     0     0   514     0  0.000000000E+00  0.000000000E+00 -4.002717234E+02  4.002717234E+02  0.000000000E+00  0.00000E+00  9.000E+00
      21     1     1     2   512   511  6.827312730E+00  3.850337940E+00 -6.949213065E+01  6.993277861E+01  1.907348633E-06  0.00000E+00  9.000E+00
       2     1     1     2   511     0 -1.152178240E+01 -7.676528975E+00 -3.256231574E+02  3.259175204E+02  3.300000131E-01  0.00000E+00  9.000E+00
      21     1     1     2   514   513  4.694469670E+00  3.826191035E+00 -2.874212791E+00  6.703646954E+00  5.347835554E-07  0.00000E+00  9.000E+00
</event>
<event>
      5  10001  3.52971E+09  1.20952E+01 -1.00000E+00  1.86664E-01
       1    -1     0     0   511     0  0.000000000E+00  0.000000000E+00  4.903827395E+00  4.903827395E+00  0.000000000E+00  0.00000E+00  9.000E+00
       2    -1     0     0   515     0  0.000000000E+00  0.000000000E+00 -1.434423884E+03  1.434423884E+03  0.000000000E+00  0.00000E+00  9.000E+00
      21     1     1     2   511   516 -2.610915478E+00 -3.861219505E+01 -2.783497424E+02  2.810272186E+02  0.000000000E+00  0.00000E+00  9.000E+00
       1     1     1     2   515     0 -5.449055118E+00  2.959401291E+01 -6.057712199E+01  6.764018340E+01  3.300000131E-01  0.00000E+00  9.000E+00
       2     1     1     2   516     0  8.059970597E+00  9.018182133E+00 -1.090593192E+03  1.090660309E+03  3.300000131E-01  0.00000E+00  9.000E+00
</event>
<event>
      5  10001  3.52971E+09  2.70669E+00 -1.00000E+00  3.11109E-01
      -4    -1     0     0     0   512  0.000000000E+00  0.000000000E+00  1.458913867E+01  1.458913867E+01  0.000000000E+00  0.00000E+00  9.000E+00
      21    -1     0     0   511   514  0.000000000E+00  0.000000000E+00 -3.372860587E+01  3.372860587E+01  0.000000000E+00  0.00000E+00  9.000E+00
      -4     1     1     2     0   513  1.059578367E+01 -8.694479672E-01  1.086064093E+01  1.527187260E+01  1.500000000E+00  0.00000E+00  9.000E+00
      21     1     1     2   511   512 -1.006410290E+01 -1.781217632E+00 -1.758120789E+01  2.033611994E+01  5.331201500E-07  0.00000E+00  9.000E+00
      21     1     1     2   513   514 -5.316807666E-01  2.650665599E+00 -1.241890024E+01  1.270975199E+01  0.000000000E+00  0.00000E+00  9.000E+00
</event>
<event>
      5  10001  3.52971E+09  7.94060E+00 -1.00000E+00  2.08089E-01
      21    -1     0     0   515   511  0.000000000E+00  0.000000000E+00  2.449748812E+00  2.449748812E+00  0.000000000E+00  0.00000E+00  9.000E+00
       2    -1     0     0   513     0  0.000000000E+00  0.000000000E+00 -1.118799513E+03  1.118799513E+03  0.000000000E+00  0.00000E+00  9.000E+00
      21     1     1     2   515   516 -1.018747050E+01  5.294359337E+00 -4.433946444E+02  4.435432622E+02  0.000000000E+00  0.00000E+00  9.000E+00
      21     1     1     2   513   511  1.339290584E+01  1.970360668E+00 -1.713224533E+01  2.183497373E+01  9.830249847E-07  0.00000E+00  9.000E+00
       2     1     1     2   516     0 -3.205435340E+00 -7.264720006E+00 -6.558228745E+02  6.558710259E+02  3.300000131E-01  0.00000E+00  9.000E+00
</event>
<event>
      5  10001  3.52971E+09  7.32075E+00 -1.00000E+00  2.12834E-01
      21    -1     0     0   512   513  0.000000000E+00  0.000000000E+00  8.518579265E+01  8.518579265E+01  0.000000000E+00  0.00000E+00  9.000E+00
      21    -1     0     0   511   512  0.000000000E+00  0.000000000E+00 -4.322097694E+00  4.322097694E+00  0.000000000E+00  0.00000E+00  9.000E+00
      21     1     1     2   514   517 -1.503326441E+01  5.588385135E+00  4.393205392E+01  4.676809221E+01  6.743495762E-07  0.00000E+00  9.000E+00
      21     1     1     2   517   513  9.164738360E+00 -9.964890386E+00  2.864082613E+01  3.167946323E+01  4.768371582E-07  0.00000E+00  9.000E+00
      21     1     1     2   511   514  5.868526049E+00  4.376505252E+00  8.290814903E+00  1.106033489E+01  1.192092896E-07  0.00000E+00  9.000E+00
</event>
<event>
      5  10001  3.52971E+09  4.76881E+00 -1.00000E+00  2.46680E-01
       2    -1     0     0   515     0  0.000000000E+00  0.000000000E+00  5.727553234E+02  5.727553234E+02  0.000000000E+00  0.00000E+00  9.000E+00
      21    -1     0     0   511   515  0.000000000E+00  0.000000000E+00 -2.740638454E+01  2.740638454E+01  0.000000000E+00  0.00000E+00  9.000E+00
      21     1     1     2   516   513  8.230384293E+00 -8.583744893E+00  3.284503077E+01  3.493158954E+01  4.768371582E-07  0.00000E+00  9.000E+00
      21     1     1     2   511   516 -9.615029886E+00  1.314709916E+01 -2.383565821E+01  2.886925039E+01  0.000000000E+00  0.00000E+00  9.000E+00
       2     1     1     2   513     0  1.384645593E+00 -4.563354265E+00  5.363395663E+02  5.363608680E+02  3.300000131E-01  0.00000E+00  9.000E+00
</event>
<event>
      5  10001  3.52971E+09  4.62884E+00 -1.00000E+00  2.49364E-01
      21    -1     0     0   511   513  0.000000000E+00  0.000000000E+00  6.620379759E+01  6.620379759E+01  0.000000000E+00  0.00000E+00  9.000E+00
       2    -1     0     0   513     0  0.000000000E+00  0.000000000E+00 -1.577658176E+02  1.577658176E+02  0.000000000E+00  0.00000E+00  9.000E+00
       3     1     1     2   511     0 -3.490869224E+00  4.179263991E+00  4.433764384E+01  4.467358366E+01  5.000000000E-01  0.00000E+00  9.000E+00
       2     1     1     2   512     0  9.783994553E+00 -6.297588498E+00 -1.568661948E+02  1.572974829E+02  3.300000131E-01  0.00000E+00  9.000E+00
      -3     1     1     2     0   512 -6.293125329E+00  2.118324507E+00  2.096653089E+01  2.199854865E+01  5.000000000E-01  0.00000E+00  9.000E+00
</event>
<event>
      5  10001  3.52971E+09  1.03583E+01 -1.00000E+00  1.94002E-01
      21    -1     0     0   514   512  0.000000000E+00  0.000000000E+00  4.813002947E+01  4.813002947E+01  0.000000000E+00  0.00000E+00  9.000E+00
      21    -1     0     0   513   514  0.000000000E+00  0.000000000E+00 -5.037996868E+00  5.037996868E+00  0.000000000E+00  0.00000E+00  9.000E+00
      21     1     1     2   513   515  6.164094950E+00 -7.229846533E+00  3.235997387E+00  1.003685342E+01  5.960464478E-08  0.00000E+00  9.000E+00
      21     1     1     2   515   511  3.612444110E-01  5.873154488E+00  3.317995761E+01  3.369768580E+01  6.743495762E-07  0.00000E+00  9.000E+00
      21     1     1     2   511   512 -6.525339361E+00  1.356692044E+00  6.676077600E+00  9.433487118E+00  1.685873940E-07  0.00000E+00  9.000E+00
</event>
<event>
      5  10001  3.52971E+09  2.83016E+00 -1.00000E+00  3.04755E-01
      21    -1     0     0   514   515  0.000000000E+00  0.000000000E+00  1.109854435E+01  1.109854435E+01  0.000000000E+00  0.00000E+00  9.000E+00
      21    -1     0     0   513   512  0.000000000E+00  0.000000000E+00 -2.903119147E+02  2.903119147E+02  0.000000000E+00  0.00000E+00  9.000E+00
      21     1     1     2   516   512 -1.361728891E+01  3.946599232E+00 -6.060903148E+01  6.224516768E+01  1.651812370E-06  0.00000E+00  9.000E+00
      21     1     1     2   513   515  1.079479629E+01 -3.738410829E+00 -2.285446263E+02  2.288299577E+02  2.697398305E-06  0.00000E+00  9.000E+00
      21     1     1     2   514   516  2.822492621E+00 -2.081884030E-01  9.940287435E+00  1.033533363E+01  7.152557373E-07  0.00000E+00  9.000E+00
</event>
<event>
      5  10001  3.52971E+09  8.06011E+00 -1.00000E+00  2.07241E-01
      21    -1     0     0   511   512  0.000000000E+00  0.000000000E+00  1.893234920E+00  1.893234920E+00  0.000000000E+00  0.00000E+00  9.000E+00
      21    -1     0     0   517   513  0.000000000E+00  0.000000000E+00 -5.726560401E+02  5.726560401E+02  0.000000000E+00  0.00000E+00  9.000E+00
      21     1     1     2   511   516  1.320948870E+01  7.788426522E+00 -1.541672642E+02  1.549280334E+02  2.697398305E-06  0.00000E+00  9.000E+00
      21     1     1     2   517   512 -6.061675187E+00 -4.063626263E+00 -7.564809313E+00  1.051110386E+01  6.637292341E-07  0.00000E+00  9.000E+00
      21     1     1     2   516   513 -7.147813517E+00 -3.724800259E+00 -4.090307317E+02  4.091101378E+02  0.000000000E+00  0.00000E+00  9.000E+00
</event>
<event>
      5  10001  3.52971E+09  1.00323E+01 -1.00000E+00  1.95591E-01
       1    -1     0     0   511     0  0.000000000E+00  0.000000000E+00  6.216954727E+00  6.216954727E+00  0.000000000E+00  0.00000E+00  9.000E+00
      21    -1     0     0   515   511  0.000000000E+00  0.000000000E+00 -6.647957554E+02  6.647957554E+02  0.000000000E+00  0.00000E+00  9.000E+00
      21     1     1     2   515   512 -4.134775204E+00  3.706622596E+00 -2.459788345E+02  2.460415055E+02  0.000000000E+00  0.00000E+00  9.000E+00
       1     1     1     2   514     0  1.094787278E+01  1.086763178E-01  1.270732334E+00  1.102684858E+01  3.300000131E-01  0.00000E+00  9.000E+00
      21     1     1     2   512   514 -6.813097574E+00 -3.815298914E+00 -4.138706985E+02  4.139443561E+02  5.394796609E-06  0.00000E+00  9.000E+00
</event>
<event>
      5  10001  3.52971E+09  1.75034E+01 -1.00000E+00  1.71290E-01
      21    -1     0     0   513   515  0.000000000E+00  0.000000000E+00  5.105489185E+01  5.105489185E+01  0.000000000E+00  0.00000E+00  9.000E+00
      21    -1     0     0   516   513  0.000000000E+00  0.000000000E+00 -2.717029883E+01  2.717029883E+01  0.000000000E+00  0.00000E+00  9.000E+00
      21     1     1     2   514   515  8.848967419E+00  1.184740522E+01  4.671083055E+01  4.899558067E+01  6.743495762E-07  0.00000E+00  9.000E+00
      21     1     1     2   516   511  2.335707226E+00 -3.348325295E+00 -6.671667321E+00  7.821633804E+00  8.429369702E-08  0.00000E+00  9.000E+00
      21     1     1     2   511   514 -1.118467465E+01 -8.499079921E+00 -1.615457021E+01  2.140797620E+01  3.371747881E-07  0.00000E+00  9.000E+00
</event>
<event>
      5  10001  3.52971E+09  5.72925E+00 -1.00000E+00  2.28626E-01
      21    -1     0     0   512   516  0.000000000E+00  0.000000000E+00  5.052501266E+00  5.052501266E+00  0.000000000E+00  0.00000E+00  9.000E+00
      21    -1     0     0   515   513  0.000000000E+00  0.000000000E+00 -3.396497572E+02  3.396497572E+02  0.000000000E+00  0.00000E+00  9.000E+00
      21     1     1     2   512   514 -9.109097446E+00  9.419310545E+00 -5.102141903E+00  1.406168267E+01  5.960464478E-08  0.00000E+00  9.000E+00
      21     1     1     2   515   516  3.541426522E+00 -8.068248981E+00 -3.507812947E+01  3.616785189E+01  8.259061849E-07  0.00000E+00  9.000E+00
      21     1     1     2   514   513  5.567670924E+00 -1.351061563E+00 -2.944169846E+02  2.944727239E+02  0.000000000E+00  0.00000E+00  9.000E+00
</event>
<event>
      5  10001  3.52971E+09  3.72869E+00 -1.00000E+00  2.70862E-01
      21    -1     0     0   511   514  0.000000000E+00  0.000000000E+00  1.763492099E+01  1.763492099E+01  0.000000000E+00  0.00000E+00  9.000E+00
      21    -1     0     0   517   512  0.000000000E+00  0.000000000E+00 -9.059159635E+00  9.059159635E+00  0.000000000E+00  0.00000E+00  9.000E+00
      21     1     1     2   517   513 -6.888526769E+00  9.834426985E+00  5.356318586E+00  1.314754365E+01  2.457562462E-07  0.00000E+00  9.000E+00
      21     1     1     2   513   514  4.239501351E+00 -7.210348530E+00  4.629590598E+00  9.560104954E+00  2.731427965E-07  0.00000E+00  9.000E+00
      21     1     1     2   511   512  2.649025418E+00 -2.624078455E+00 -1.410147827E+00  3.986432025E+00  3.650024150E-08  0.00000E+00  9.000E+00
</event>
<event>
      5  10001  3.52971E+09  4.77455E+00 -1.00000E+00  2.46573E-01
      -3    -1     0     0     0   515  0.000000000E+00  0.000000000E+00  4.781902900E+01  4.781902900E+01  0.000000000E+00  0.00000E+00  9.000E+00
      21    -1     0     0   515   513  0.000000000E+00  0.000000000E+00 -1.430931316E+01  1.430931316E+01  0.000000000E+00  0.00000E+00  9.000E+00
      -3     1     1     2     0   512  1.277300022E+00 -1.299256920E+01  3.100109808E+01  3.364158784E+01  5.000000000E-01  0.00000E+00  9.000E+00
      21     1     1     2   512   511 -2.029667876E-01  8.341043528E+00  1.385705964E+01  1.617505192E+01  2.384185791E-07  0.00000E+00  9.000E+00
      21     1     1     2   511   513 -1.074333234E+00  4.651525673E+00 -1.134844188E+01  1.231170241E+01  2.920019320E-07  0.00000E+00  9.000E+00
</event>
<event>
      5  10001  3.52971E+09  2.15265E+01 -1.00000E+00  1.63773E-01
      21    -1     0     0   514   512  0.000000000E+00  0.000000000E+00  7.635947433E+00  7.635947433E+00  0.000000000E+00  0.00000E+00  9.000E+00
      21    -1     0     0   515   516  0.000000000E+00  0.000000000E+00 -6.049675888E+01  6.049675888E+01  0.000000000E+00  0.00000E+00  9.000E+00
      21     1     1     2   514   516  6.580384433E-01 -1.508961298E+01 -6.908031214E+00  1.660874257E+01  3.039252468E-07  0.00000E+00  9.000E+00
      21     1     1     2   517   512 -3.810447640E+00  8.686511098E+00 -6.664500956E+00  1.159269422E+01  2.384185791E-07  0.00000E+00  9.000E+00
      21     1     1     2   515   517  3.152409197E+00  6.403101880E+00 -3.928827928E+01  3.993126953E+01  4.768371582E-07  0.00000E+00  9.000E+00
</event>
<event>
      5  10001  3.52971E+09  5.49873E+00 -1.00000E+00  2.31515E-01
      21    -1     0     0   511   516  0.000000000E+00  0.000000000E+00  4.290288668E+02  4.290288668E+02  0.000000000E+00  0.00000E+00  9.000E+00
      21    -1     0     0   513   511  0.000000000E+00  0.000000000E+00 -1.932014920E+00  1.932014920E+00  0.000000000E+00  0.00000E+00  9.000E+00
      21     1     1     2   513   515  1.314694485E+01  1.544227614E+01  6.081493950E+01  6.410743263E+01  1.507891493E-06  0.00000E+00  9.000E+00
      21     1     1     2   515   512 -2.504173544E+00 -4.014218062E+00  6.938285724E+01  6.954398400E+01  9.536743164E-07  0.00000E+00  9.000E+00
      21     1     1     2   512   516 -1.064277131E+01 -1.142805808E+01  2.968990551E+02  2.973094651E+02  0.000000000E+00  0.00000E+00  9.000E+00
</event>
<event>
      5  10001  3.52971E+09  6.18813E+00 -1.00000E+00  2.23403E-01
       2    -1     0     0   514     0  0.000000000E+00  0.000000000E+00  2.217403329E+00  2.217403329E+00  0.000000000E+00  0.00000E+00  9.000E+00
      21    -1     0     0   512   511  0.000000000E+00  0.000000000E+00 -2.702270299E+02  2.702270299E+02  0.000000000E+00  0.00000E+00  9.000E+00
      21     1     1     2   513   511 -3.419091086E+00  3.685517041E+00 -1.875147337E+02  1.875821115E+02  2.697398305E-06  0.00000E+00  9.000E+00
       2     1     1     2   512     0  2.880330284E+00 -1.026192139E+01 -1.201245193E+01  1.606272812E+01  3.300000131E-01  0.00000E+00  9.000E+00
      21     1     1     2   514   513  5.387608018E-01  6.576404344E+00 -6.848244095E+01  6.879959358E+01  0.000000000E+00  0.00000E+00  9.000E+00
</event>
<event>
      5  10001  3.52971E+09  7.29103E+00 -1.00000E+00  2.13078E-01
       2    -1     0     0   511     0  0.000000000E+00  0.000000000E+00  8.595140110E+02  8.595140110E+02  0.000000000E+00  0.00000E+00  9.000E+00
      21    -1     0     0   514   515  0.000000000E+00  0.000000000E+00 -1.956595205E-01  1.956595205E-01  0.000000000E+00  0.00000E+00  9.000E+00
      21     1     1     2   512   515 -5.065369610E-01  4.264156508E+00  1.100591546E+02  1.101428941E+02  1.348699152E-06  0.00000E+00  9.000E+00
       2     1     1     2   514     0 -2.439529404E+00 -1.193255858E+01  3.254728792E+02  3.257008463E+02  3.300000131E-01  0.00000E+00  9.000E+00
      21     1     1     2   511   512  2.946066365E+00  7.668402068E+00  4.237863176E+02  4.238659301E+02  5.394796609E-06  0.00000E+00  9.000E+00
</event>
<event>
      5  10001  3.52971E+09  4.31187E+00 -1.00000E+00  2.56009E-01
      -1    -1     0     0     0   512  0.000000000E+00  0.000000000E+00  2.692518492E+02  2.692518492E+02  0.000000000E+00  0.00000E+00  9.000E+00
      21    -1     0     0   512   511  0.000000000E+00  0.000000000E+00 -7.077739193E+00  7.077739193E+00  0.000000000E+00  0.00000E+00  9.000E+00
      -1     1     1     2     0   513  1.083246276E+01  7.824610595E+00  2.617027611E+02  2.620439102E+02  3.300000131E-01  0.00000E+00  9.000E+00
      21     1     1     2   513   514 -7.332159552E+00 -6.648954012E+00  2.305305075E+00  1.016285317E+01  7.771494872E-07  0.00000E+00  9.000E+00
      21     1     1     2   514   511 -3.500303209E+00 -1.175656583E+00 -1.833956197E+00  4.122825038E+00  5.140360686E-07  0.00000E+00  9.000E+00
</event>
<event>
      5  10001  3.52971E+09  5.42967E+00 -1.00000E+00  2.32420E-01
      21    -1     0     0   515   511  0.000000000E+00  0.000000000E+00  9.798449038E+01  9.798449038E+01  0.000000000E+00  0.00000E+00  9.000E+00
      21    -1     0     0   512   513  0.000000000E+00  0.000000000E+00 -1.153022870E+01  1.153022870E+01  0.000000000E+00  0.00000E+00  9.000E+00
      21     1     1     2   515   516 -1.087104328E+01 -8.319525288E+00  2.354929077E+01  2.723900106E+01  3.371747881E-07  0.00000E+00  9.000E+00
      21     1     1     2   512   511  7.851939489E+00  3.806616996E+00  7.154286104E+01  7.207304803E+01  9.536743164E-07  0.00000E+00  9.000E+00
      21     1     1     2   516   513  3.019103793E+00  4.512908292E+00 -8.637890132E+00  1.020266999E+01  3.576278687E-07  0.00000E+00  9.000E+00
</event>
<event>
      5  10001  3.52971E+09  6.49798E+00 -1.00000E+00  2.20219E-01
      21    -1     0     0   511   512  0.000000000E+00  0.000000000E+00  4.171834257E+02  4.171834257E+02  0.000000000E+00  0.00000E+00  9.000E+00
      21    -1     0     0   516   517  0.000000000E+00  0.000000000E+00 -1.791503621E+01  1.791503621E+01  0.000000000E+00  0.00000E+00  9.000E+00
      21     1     1     2   514   517 -1.445586616E+01  9.860940077E-01 -8.962952189E+00  1.703757494E+01  2.920019320E-07  0.00000E+00  9.000E+00
      21     1     1     2   516   512  8.069354240E+00 -2.184532844E+00 -1.315330712E+00  8.462668401E+00  2.950279396E-07  0.00000E+00  9.000E+00
      21     1     1     2   511   514  6.386511923E+00  1.198438837E+00  4.095466724E+02  4.095982186E+02  7.629394531E-06  0.00000E+00  9.000E+00
</event>
<event>
      5  10001  3.52971E+09  8.02844E+00 -1.00000E+00  2.07464E-01
       2    -1     0     0   512     0  0.000000000E+00  0.000000000E+00  7.258052490E+02  7.258052490E+02  0.000000000E+00  0.00000E+00  9.000E+00
      21    -1     0     0   511   513  0.000000000E+00  0.000000000E+00 -6.130740393E+00  6.130740393E+00  0.000000000E+00  0.00000E+00  9.000E+00
      21     1     1     2   515   513 -1.500478873E+01  6.970180028E+00  5.495936028E+00  1.743365731E+01  6.529361695E-07  0.00000E+00  9.000E+00
       2     1     1     2   511     0  7.821718739E+00 -3.384327685E+00  5.914290654E+02  5.914905589E+02  3.300000131E-01  0.00000E+00  9.000E+00
      21     1     1     2   512   515  7.183069988E+00 -3.585852343E+00  1.227495072E+02  1.230117732E+02  1.907348633E-06  0.00000E+00  9.000E+00
</event>
<event>
      5  10001  3.52971E+09  4.60883E+00 -1.00000E+00  2.49760E-01
      21    -1     0     0   514   513  0.000000000E+00  0.000000000E+00  3.411547651E+02  3.411547651E+02  0.000000000E+00  0.00000E+00  9.000E+00
       1    -1     0     0   512     0  0.000000000E+00  0.000000000E+00 -3.258893508E+01  3.258893508E+01  0.000000000E+00  0.00000E+00  9.000E+00
      21     1     1     2   512   511  1.037511230E+01 -9.083993342E+00  7.930676576E+01  8.049673897E+01  0.000000000E+00  0.00000E+00  9.000E+00
       1     1     1     2   514     0 -6.344015428E+00  6.849844057E+00 -3.129116320E+01  3.265597480E+01  3.300000131E-01  0.00000E+00  9.000E+00
      21     1     1     2   511   513 -4.031096868E+00  2.234149285E+00  2.605502275E+02  2.605909864E+02  5.394796609E-06  0.00000E+00  9.000E+00
</event>
<event>
      5  10001  3.52971E+09  7.73377E+00 -1.00000E+00  2.09606E-01
      21    -1     0     0   512   514  0.000000000E+00  0.000000000E+00  5.273922828E+01  5.273922828E+01  0.000000000E+00  0.00000E+00  9.000E+00
      -1    -1     0     0     0   515  0.000000000E+00  0.000000000E+00 -6.195354651E+01  6.195354651E+01  0.000000000E+00  0.00000E+00  9.000E+00
      -1     1     1     2     0   513  5.191556856E+00 -2.138395238E+01 -5.653406381E+01  6.066658844E+01  3.300000131E-01  0.00000E+00  9.000E+00
      21     1     1     2   512   515 -6.519593772E+00  1.376512438E+01  1.740666602E+01  2.312954331E+01  8.259061849E-07  0.00000E+00  9.000E+00
      21     1     1     2   513   514  1.328036916E+00  7.618828000E+00  2.991307956E+01  3.089664304E+01  4.768371582E-07  0.00000E+00  9.000E+00
</event>
<event>
      5  10001  3.52971E+09  5.94904E+00 -1.00000E+00  2.26042E-01
      21    -1     0     0   511   513  0.000000000E+00  0.000000000E+00  5.849009687E+01  5.849009687E+01  0.000000000E+00  0.00000E+00  9.000E+00
      21    -1     0     0   514   511  0.000000000E+00  0.000000000E+00 -1.581241128E+01  1.581241128E+01  0.000000000E+00  0.00000E+00  9.000E+00
      21     1     1     2   514   516 -9.242299062E+00 -4.572728177E+00 -1.225354512E+01  1.601497122E+01  2.384185791E-07  0.00000E+00  9.000E+00
      21     1     1     2   512   513  6.536156815E+00  2.753442810E+00  5.454469569E+01  5.500387823E+01  9.536743164E-07  0.00000E+00  9.000E+00
      21     1     1     2   516   512  2.706142247E+00  1.819285367E+00  3.865350336E-01  3.283658697E+00  1.028342079E-07  0.00000E+00  9.000E+00
</event>
<event>
      5  10001  3.52971E+09  5.74626E+00 -1.00000E+00  2.28420E-01
      21    -1     0     0   511   512  0.000000000E+00  0.000000000E+00  6.399112979E+01  6.399112979E+01  0.000000000E+00  0.00000E+00  9.000E+00
      21    -1     0     0   517   515  0.000000000E+00  0.000000000E+00 -1.263613173E+01  1.263613173E+01  0.000000000E+00  0.00000E+00  9.000E+00
      21     1     1     2   517   514 -2.322255616E+00  1.148069512E+01 -2.153415365E+00  1.190951003E+01  3.500980176E-07  0.00000E+00  9.000E+00
      21     1     1     2   514   512 -3.332230657E+00 -1.045782246E+01  7.488040823E-02  1.097612950E+01  1.241771194E-07  0.00000E+00  9.000E+00
      21     1     1     2   511   515  5.654486272E+00 -1.022872661E+00  5.343353301E+01  5.374162199E+01  9.536743164E-07  0.00000E+00  9.000E+00
</event>
<event>
      5  10001  3.52971E+09  5.22911E+00 -1.00000E+00  2.35159E-01
      21    -1     0     0   513   515  0.000000000E+00  0.000000000E+00  5.052572374E+01  5.052572374E+01  0.000000000E+00  0.00000E+00  9.000E+00
      21    -1     0     0   512   513  0.000000000E+00  0.000000000E+00 -8.271321258E+01  8.271321258E+01  0.000000000E+00  0.00000E+00  9.000E+00
      -3     1     1     2     0   511  9.993748461E+00 -1.288861595E+01 -1.990380672E+01  2.573719005E+01  5.000000000E-01  0.00000E+00  9.000E+00
      21     1     1     2   511   515 -5.897805814E+00  9.638498157E+00  4.682043038E+01  4.816469102E+01  6.743495762E-07  0.00000E+00  9.000E+00
       3     1     1     2   512     0 -4.095942647E+00  3.250117796E+00 -5.910411250E+01  5.933705526E+01  5.000000000E-01  0.00000E+00  9.000E+00
</event>
<event>
      5  10001  3.52971E+09  5.56574E+00 -1.00000E+00  2.30655E-01
      21    -1     0     0   514   515  0.000000000E+00  0.000000000E+00  1.325163850E+00  1.325163850E+00  0.000000000E+00  0.00000E+00  9.000E+00
      21    -1     0     0   512   514  0.000000000E+00  0.000000000E+00 -2.678480985E+02  2.678480985E+02  0.000000000E+00  0.00000E+00  9.000E+00
      21     1     1     2   516   515 -4.154212438E+00 -1.331989840E+01 -4.689474304E+01  4.892641515E+01  6.743495762E-07  0.00000E+00  9.000E+00
      21     1     1     2   511   516  3.801730041E+00  7.660565157E+00 -1.812897548E+02  1.814913569E+02  2.697398305E-06  0.00000E+00  9.000E+00
      21     1     1     2   512   511  3.524823966E-01  5.659333245E+00 -3.833843680E+01  3.875549036E+01  4.768371582E-07  0.00000E+00  9.000E+00
</event>
<event>
      5  10001  3.52971E+09  6.73252E+00 -1.00000E+00  2.17967E-01
      21    -1     0     0   513   511  0.000000000E+00  0.000000000E+00  2.155914849E+01  2.155914849E+01  0.000000000E+00  0.00000E+00  9.000E+00
      21    -1     0     0   512   514  0.000000000E+00  0.000000000E+00 -3.045300915E+01  3.045300915E+01  0.000000000E+00  0.00000E+00  9.000E+00
      21     1     1     2   513   517 -1.455778845E+01 -7.807933375E+00  8.984034785E+00  1.880441196E+01  6.078504936E-07  0.00000E+00  9.000E+00
      21     1     1     2   512   511  1.930583326E+01  3.034786644E+00 -7.701084977E+00  2.100551922E+01  1.192092896E-07  0.00000E+00  9.000E+00
      21     1     1     2   517   514 -4.748044806E+00  4.773146731E+00 -1.017681047E+01  1.220222646E+01  1.192092896E-07  0.00000E+00  9.000E+00
</event>
<event>
      5  10001  3.52971E+09  3.89655E+01 -1.00000E+00  1.45547E-01
      21    -1     0     0   515   511  0.000000000E+00  0.000000000E+00  2.623343097E+00  2.623343097E+00  0.000000000E+00  0.00000E+00  9.000E+00
      21    -1     0     0   511   513  0.000000000E+00  0.000000000E+00 -1.951515181E+02  1.951515181E+02  0.000000000E+00  0.00000E+00  9.000E+00
      -1     1     1     2     0   513 -4.995458684E+00  1.057556897E+01 -8.280498203E+01  8.362757449E+01  3.300000131E-01  0.00000E+00  9.000E+00
      21     1     1     2   515   512  5.907099988E+00  2.667989480E+00 -9.079290738E+01  9.102397502E+01  1.348699152E-06  0.00000E+00  9.000E+00
       1     1     1     2   512     0 -9.116413041E-01 -1.324355845E+01 -1.893028555E+01  2.312331164E+01  3.300000131E-01  0.00000E+00  9.000E+00
</event>
<event>
      5  10001  3.52971E+09  1.73956E+01 -1.00000E+00  1.71525E-01
      21    -1     0     0   514   511  0.000000000E+00  0.000000000E+00  8.193454541E+01  8.193454541E+01  0.000000000E+00  0.00000E+00  9.000E+00
      21    -1     0     0   512   514  0.000000000E+00  0.000000000E+00 -2.656759620E+00  2.656759620E+00  0.000000000E+00  0.00000E+00  9.000E+00
      -1     1     1     2     0   511 -1.233778894E+00 -8.730646663E+00  4.546062325E+01  4.630900093E+01  3.300000131E-01  0.00000E+00  9.000E+00
       1     1     1     2   513     0  5.877297317E+00  5.346320627E+00  3.076487683E+01  3.177597071E+01  3.300000131E-01  0.00000E+00  9.000E+00
      21     1     1     2   512   513 -4.643518423E+00  3.384326036E+00  3.052285710E+00  6.506333385E+00  1.837138534E-07  0.00000E+00  9.000E+00
</event>
<event>
      5  10001  3.52971E+09  8.41292E+00 -1.00000E+00  2.04848E-01
       3    -1     0     0   514     0  0.000000000E+00  0.000000000E+00  3.068283918E+01  3.068283918E+01  0.000000000E+00  0.00000E+00  9.000E+00
      21    -1     0     0   513   514  0.000000000E+00  0.000000000E+00 -1.399725978E+01  1.399725978E+01  0.000000000E+00  0.00000E+00  9.000E+00
      21     1     1     2   513   511  9.630453287E+00 -1.106146400E+01 -2.370174170E+00  1.485662620E+01  1.861154437E-07  0.00000E+00  9.000E+00
       3     1     1     2   515     0 -1.223980215E+01  1.323394935E+01  1.110561356E+01  2.117864076E+01  5.000000000E-01  0.00000E+00  9.000E+00
      21     1     1     2   511   515  2.609348864E+00 -2.172485344E+00  7.950140017E+00  8.644832003E+00  1.685873940E-07  0.00000E+00  9.000E+00
</event>
<event>
      5  10001  3.52971E+09  8.80976E+00 -1.00000E+00  2.02337E-01
       2    -1     0     0   511     0  0.000000000E+00  0.000000000E+00  3.765288970E+02  3.765288970E+02  0.000000000E+00  0.00000E+00  9.000E+00
      21    -1     0     0   513   514  0.000000000E+00  0.000000000E+00 -2.906715491E+00  2.906715491E+00  0.000000000E+00  0.00000E+00  9.000E+00
      21     1     1     2   511   514 -6.859598232E+00  1.035313169E+01  1.952746199E+01  2.314223834E+01  1.283923342E-06  0.00000E+00  9.000E+00
       2     1     1     2   512     0 -1.948192632E+00 -1.017832738E+01  3.360809965E+02  3.362408942E+02  3.300000131E-01  0.00000E+00  9.000E+00
      21     1     1     2   513   512  8.807790864E+00 -1.748043140E-01  1.801372304E+01  2.005248000E+01  4.129530925E-07  0.00000E+00  9.000E+00
</event>
<event>
      5  10001  3.52971E+09  6.68918E+00 -1.00000E+00  2.18374E-01
       2    -1     0     0   513     0  0.000000000E+00  0.000000000E+00  2.470172849E+00  2.470172849E+00  0.000000000E+00  0.00000E+00  9.000E+00
      21    -1     0     0   515   512  0.000000000E+00  0.000000000E+00 -8.114163663E+01  8.114163663E+01  0.000000000E+00  0.00000E+00  9.000E+00
      21     1     1     2   513   512 -4.125460962E+00  9.045432304E+00 -5.856721149E+01  5.940502955E+01  6.743495762E-07  0.00000E+00  9.000E+00
       2     1     1     2   511     0 -3.792219817E-01 -5.943887949E+00 -3.956457058E+00  7.157937253E+00  3.300000131E-01  0.00000E+00  9.000E+00
      21     1     1     2   515   511  4.504682944E+00 -3.101544355E+00 -1.614779523E+01  1.704884268E+01  2.384185791E-07  0.00000E+00  9.000E+00
</event>
<event>
      5  10001  3.52971E+09  4.63494E+00 -1.00000E+00  2.49244E-01
      -2    -1     0     0     0   514  0.000000000E+00  0.000000000E+00  4.501742149E+00  4.501742149E+00  0.000000000E+00  0.00000E+00  9.000E+00
      21    -1     0     0   513   511  0.000000000E+00  0.000000000E+00 -5.042535924E+01  5.042535924E+01  0.000000000E+00  0.00000E+00  9.000E+00
      -2     1     1     2     0   511  9.118906876E+00  4.395863408E+00 -3.625941953E+00  1.075799390E+01  3.300000131E-01  0.00000E+00  9.000E+00
      21     1     1     2   512   514 -5.011243261E+00 -3.303652458E+00 -3.644456276E+01  3.693552265E+01  4.768371582E-07  0.00000E+00  9.000E+00
      21     1     1     2   513   512 -4.107663615E+00 -1.092210950E+00 -5.853112383E+00  7.233584844E+00  0.000000000E+00  0.00000E+00  9.000E+00
</event>
<event>
      5  10001  3.52971E+09  5.10629E+00 -1.00000E+00  2.36924E-01
      -2    -1     0     0     0   511  0.000000000E+00  0.000000000E+00  1.137115414E+02  1.137115414E+02  0.000000000E+00  0.00000E+00  9.000E+00
      21    -1     0     0   515   516  0.000000000E+00  0.000000000E+00 -4.706690845E+00  4.706690845E+00  0.000000000E+00  0.00000E+00  9.000E+00
      -2     1     1     2     0   513  4.027548101E+00 -1.127603951E+01  6.970061092E+01  7.072237463E+01  3.300000131E-01  0.00000E+00  9.000E+00
      21     1     1     2   513   516 -6.929144626E+00  7.074698047E+00  2.074609529E+00  1.011772714E+01  4.075406292E-07  0.00000E+00  9.000E+00
      21     1     1     2   515   511  2.901596525E+00  4.201341462E+00  3.722963014E+01  3.757813052E+01  4.768371582E-07  0.00000E+00  9.000E+00
</event>
<event>
      5  10001  3.52971E+09  2.44346E+00 -1.00000E+00  3.26808E-01
      -4    -1     0     0     0   511  0.000000000E+00  0.000000000E+00  7.257515909E-01  7.257515909E-01  0.000000000E+00  0.00000E+00  9.000E+00
       1    -1     0     0   511     0  0.000000000E+00  0.000000000E+00 -4.009730759E+02  4.009730759E+02  0.000000000E+00  0.00000E+00  9.000E+00
      -4     1     1     2     0   512 -1.393453110E+01 -3.424769820E-02 -8.835590964E+01  8.946054492E+01  1.500000000E+00  0.00000E+00  9.000E+00
       1     1     1     2   513     0  1.188511124E+01  1.591840217E+00 -2.381098744E+02  2.384118517E+02  3.300000131E-01  0.00000E+00  9.000E+00
      21     1     1     2   512   513  2.049419861E+00 -1.557592518E+00 -7.378154023E+01  7.382643087E+01  9.536743164E-07  0.00000E+00  9.000E+00
</event>
<event>
      5  10001  3.52971E+09  1.23143E+01 -1.00000E+00  1.85851E-01
      21    -1     0     0   514   511  0.000000000E+00  0.000000000E+00  1.314726653E+01  1.314726653E+01  0.000000000E+00  0.00000E+00  9.000E+00
       2    -1     0     0   512     0  0.000000000E+00  0.000000000E+00 -1.878801694E+01  1.878801694E+01  0.000000000E+00  0.00000E+00  9.000E+00
      21     1     1     2   512   511 -1.127612946E+01 -1.737218912E+00  2.646602681E+00  1.171211044E+01  2.269677253E-07  0.00000E+00  9.000E+00
       2     1     1     2   515     0  5.060602825E+00  1.132650765E+00 -1.191663478E+01  1.300029551E+01  3.300000131E-01  0.00000E+00  9.000E+00
      21     1     1     2   514   515  6.215526640E+00  6.045681472E-01  3.629281688E+00  7.222877517E+00  4.214684851E-08  0.00000E+00  9.000E+00
</event>
<event>
      5  10001  3.52971E+09  4.46873E+00 -1.00000E+00  2.52616E-01
      21    -1     0     0   515   511  0.000000000E+00  0.000000000E+00  1.116229518E+00  1.116229518E+00  0.000000000E+00  0.00000E+00  9.000E+00
       1    -1     0     0   511     0  0.000000000E+00  0.000000000E+00 -2.174429535E+02  2.174429535E+02  0.000000000E+00  0.00000E+00  9.000E+00
      21     1     1     2   515   513 -1.167408226E+01  8.397759206E+00 -7.681402732E+01  7.814858508E+01  9.536743164E-07  0.00000E+00  9.000E+00
      21     1     1     2   513   512  1.029871137E+01 -4.304097389E+00 -8.568925404E+01  8.641317589E+01  9.536743164E-07  0.00000E+00  9.000E+00
       1     1     1     2   512     0  1.375370890E+00 -4.093661817E+00 -5.382344261E+01  5.399742204E+01  3.300000131E-01  0.00000E+00  9.000E+00
</event>
<event>
      5  10001  3.52971E+09  1.72619E+01 -1.00000E+00  1.71820E-01
      -1    -1     0     0     0   514  0.000000000E+00  0.000000000E+00  7.017244209E+02  7.017244209E+02  0.000000000E+00  0.00000E+00  9.000E+00
      21    -1     0     0   512   515  0.000000000E+00  0.000000000E+00 -4.307603274E-01  4.307603274E-01  0.000000000E+00  0.00000E+00  9.000E+00
      -1     1     1     2     0   515 -1.011990752E+01  3.565076876E+00  1.119507964E+02  1.124642699E+02  3.300000131E-01  0.00000E+00  9.000E+00
      21     1     1     2   511   514  1.045920775E+01  4.205256211E-01  1.662885923E+02  1.666177296E+02  3.303624740E-06  0.00000E+00  9.000E+00
      21     1     1     2   512   511 -3.393002288E-01 -3.985602497E+00  4.230542719E+02  4.230731817E+02  5.394796609E-06  0.00000E+00  9.000E+00
</event>
<event>
      5  10001  3.52971E+09  1.40563E+01 -1.00000E+00  1.80080E-01
      21    -1     0     0   511   513  0.000000000E+00  0.000000000E+00  1.934572621E+01  1.934572621E+01  0.000000000E+00  0.00000E+00  9.000E+00
       2    -1     0     0   513     0  0.000000000E+00  0.000000000E+00 -1.049312328E+03  1.049312328E+03  0.000000000E+00  0.00000E+00  9.000E+00
      21     1     1     2   511   512 -2.621407305E-01 -1.798970178E+01  1.410242141E+01  2.285992952E+01  3.371747881E-07  0.00000E+00  9.000E+00
       2     1     1     2   514     0  5.208311528E+00  1.229578031E+01 -1.027571235E+03  1.027658049E+03  3.300000131E-01  0.00000E+00  9.000E+00
      21     1     1     2   512   514 -4.946170798E+00  5.693921472E+00 -1.649778759E+01  1.814007560E+01  2.384185791E-07  0.00000E+00  9.000E+00
</event>
<event>
      5  10001  3.52971E+09  6.23437E+00 -1.00000E+00  2.22912E-01
      21    -1     0     0   515   513  0.000000000E+00  0.000000000E+00  1.760328163E+01  1.760328163E+01  0.000000000E+00  0.00000E+00  9.000E+00
      -2    -1     0     0     0   515  0.000000000E+00  0.000000000E+00 -1.834421337E+02  1.834421337E+02  0.000000000E+00  0.00000E+00  9.000E+00
      -2     1     1     2     0   511 -8.383020460E+00 -5.216020334E+00 -1.793575594E+02  1.796294100E+02  3.300000131E-01  0.00000E+00  9.000E+00
      21     1     1     2   511   516  6.583000703E+00 -5.882347042E-01  1.383311599E+01  1.533091701E+01  6.078504936E-07  0.00000E+00  9.000E+00
      21     1     1     2   516   513  1.800019757E+00  5.804255039E+00 -3.144086407E-01  6.085088370E+00  2.186209075E-07  0.00000E+00  9.000E+00
</event>
<event>
      5  10001  3.52971E+09  4.71382E+00 -1.00000E+00  2.47718E-01
      -4    -1     0     0     0   512  0.000000000E+00  0.000000000E+00  1.268018597E+02  1.268018597E+02  0.000000000E+00  0.00000E+00  9.000E+00
      21    -1     0     0   513   514  0.000000000E+00  0.000000000E+00 -1.080992857E+01  1.080992857E+01  0.000000000E+00  0.00000E+00  9.000E+00
      -4     1     1     2     0   514 -1.151148926E+01 -4.960321793E+00  1.226156996E+02  1.232638591E+02  1.500000000E+00  0.00000E+00  9.000E+00
      21     1     1     2   513   511  1.918486629E+00  1.718458351E+00 -9.828372913E-01  2.756747937E+00  9.305772183E-08  0.00000E+00  9.000E+00
      21     1     1     2   511   512  9.593002626E+00  3.241863442E+00 -5.640931163E+00  1.159118123E+01  3.424026159E-07  0.00000E+00  9.000E+00
</event>
<event>
      5  10001  3.52971E+09  6.87411E+00 -1.00000E+00  2.16668E-01
       2    -1     0     0   513     0  0.000000000E+00  0.000000000E+00  4.441093245E+02  4.441093245E+02  0.000000000E+00  0.00000E+00  9.000E+00
      21    -1     0     0   511   515  0.000000000E+00  0.000000000E+00 -9.484681024E-01  9.484681024E-01  0.000000000E+00  0.00000E+00  9.000E+00
      21     1     1     2   513   515  3.527645257E+00  1.074994479E+01  3.805437138E+01  3.970063948E+01  9.536743164E-07  0.00000E+00  9.000E+00
      21     1     1     2   511   514 -5.809270168E+00 -4.720435588E+00  2.589883317E+02  2.590964802E+02  3.814697266E-06  0.00000E+00  9.000E+00
       2     1     1     2   514     0  2.281624911E+00 -6.029509206E+00  1.461181534E+02  1.462606729E+02  3.300000131E-01  0.00000E+00  9.000E+00
</event>
<event>
      5  10001  3.52971E+09  5.80049E+00 -1.00000E+00  2.27771E-01
      21    -1     0     0   511   512  0.000000000E+00  0.000000000E+00  2.050267449E+01  2.050267449E+01  0.000000000E+00  0.00000E+00  9.000E+00
      21    -1     0     0   513   514  0.000000000E+00  0.000000000E+00 -1.138403495E+02  1.138403495E+02  0.000000000E+00  0.00000E+00  9.000E+00
      -2     1     1     2     0   514 -9.271959282E+00 -6.072862160E+00 -1.077081215E+02  1.082774086E+02  3.300000131E-01  0.00000E+00  9.000E+00
      21     1     1     2   513   512  1.288982261E+01  1.539574683E+00  1.542580645E+01  2.016118354E+01  6.307962682E-07  0.00000E+00  9.000E+00
       2     1     1     2   511     0 -3.617863326E+00  4.533287478E+00 -1.055359975E+00  5.904431817E+00  3.300000131E-01  0.00000E+00  9.000E+00
</event>
<event>
      5  10001  3.52971E+09  8.05262E+00 -1.00000E+00  2.07294E-01
      -2    -1     0     0     0   515  0.000000000E+00  0.000000000E+00  3.223471688E+01  3.223471688E+01  0.000000000E+00  0.00000E+00  9.000E+00
      21    -1     0     0   513   512  0.000000000E+00  0.000000000E+00 -2.453608478E+01  2.453608478E+01  0.000000000E+00  0.00000E+00  9.000E+00
      -2     1     1     2     0   512 -2.453008162E+00 -1.420842507E+01  2.245048342E+01  2.668388461E+01  3.300000131E-01  0.00000E+00  9.000E+00
      21     1     1     2   511   515  8.769236682E+00  9.213955497E+00  6.186074634E-01  1.273495831E+01  2.318076668E-07  0.00000E+00  9.000E+00
      21     1     1     2   513   511 -6.316228519E+00  4.994469576E+00 -1.537045878E+01  1.735195874E+01  2.384185791E-07  0.00000E+00  9.000E+00
</event>
<event>
      5  10001  3.52971E+09  8.25584E+00 -1.00000E+00  2.05894E-01
      21    -1     0     0   514   515  0.000000000E+00  0.000000000E+00  2.563806772E+01  2.563806772E+01  0.000000000E+00  0.00000E+00  9.000E+00
      21    -1     0     0   513   514  0.000000000E+00  0.000000000E+00 -2.167246632E+01  2.167246632E+01  0.000000000E+00  0.00000E+00  9.000E+00
      21     1     1     2   511   515  1.270857132E+01  5.697325206E-01  2.079508651E+01  2.437761274E+01  2.384185791E-07  0.00000E+00  9.000E+00
      21     1     1     2   513   512 -3.458481310E+00  1.024025503E+00 -1.168534742E+01  1.222935262E+01  1.685873940E-07  0.00000E+00  9.000E+00
      21     1     1     2   512   511 -9.250090010E+00 -1.593758024E+00 -5.144137691E+00  1.070356868E+01  1.576990671E-07  0.00000E+00  9.000E+00
</event>
<event>
      5  10001  3.52971E+09  6.85031E+00 -1.00000E+00  2.16883E-01
      21    -1     0     0   516   513  0.000000000E+00  0.000000000E+00  8.040253681E+02  8.040253681E+02  0.000000000E+00  0.00000E+00  9.000E+00
      21    -1     0     0   515   511  0.000000000E+00  0.000000000E+00 -1.477742156E+00  1.477742156E+00  0.000000000E+00  0.00000E+00  9.000E+00
      21     1     1     2   516   511 -5.372178965E+00  8.392006480E+00  7.582474660E+02  7.583129339E+02  0.000000000E+00  0.00000E+00  9.000E+00
      21     1     1     2   515   514  9.332391790E+00 -5.443639777E+00  2.436899352E+01  2.665660511E+01  1.581489940E-06  0.00000E+00  9.000E+00
      21     1     1     2   514   513 -3.960212826E+00 -2.948366703E+00  1.993116644E+01  2.053357123E+01  4.129530925E-07  0.00000E+00  9.000E+00
</event>
<event>
      5  10001  3.52971E+09  1.56303E+01 -1.00000E+00  1.75712E-01
      21    -1     0     0   514   513  0.000000000E+00  0.000000000E+00  2.282282443E+01  2.282282443E+01  0.000000000E+00  0.00000E+00  9.000E+00
       3    -1     0     0   513     0  0.000000000E+00  0.000000000E+00 -2.385080466E+01  2.385080466E+01  0.000000000E+00  0.00000E+00  9.000E+00
      21     1     1     2   514   511 -4.437688586E+00 -1.116782054E+00  1.197625952E+01  1.282072831E+01  5.057621821E-07  0.00000E+00  9.000E+00
       3     1     1     2   512     0 -4.464484697E+00  8.046854789E+00 -1.897065730E+01  2.109074048E+01  5.000000000E-01  0.00000E+00  9.000E+00
      21     1     1     2   511   512  8.902173283E+00 -6.930072735E+00  5.966417549E+00  1.276216030E+01  4.616955931E-07  0.00000E+00  9.000E+00
</event>
<event>
      5  10001  3.52971E+09  9.07741E+00 -1.00000E+00  2.00741E-01
      21    -1     0     0   515   512  0.000000000E+00  0.000000000E+00  1.297613628E+02  1.297613628E+02  0.000000000E+00  0.00000E+00  9.000E+00
      21    -1     0     0   511   516  0.000000000E+00  0.000000000E+00 -6.675313687E+00  6.675313687E+00  0.000000000E+00  0.00000E+00  9.000E+00
      21     1     1     2   515   516 -7.452626900E+00 -2.141007855E+01  1.020371888E+02  1.045252171E+02  0.000000000E+00  0.00000E+00  9.000E+00
      21     1     1     2   513   512  6.604019885E+00  9.253474366E+00  1.318000620E+01  1.740552872E+01  1.685873940E-07  0.00000E+00  9.000E+00
      21     1     1     2   511   513  8.486070156E-01  1.215660418E+01  7.868854078E+00  1.450593064E+01  3.475518164E-07  0.00000E+00  9.000E+00
</event>
<event>
      5  10001  3.52971E+09  1.00903E+01 -1.00000E+00  1.95302E-01
      21    -1     0     0   514   513  0.000000000E+00  0.000000000E+00  3.209025777E+01  3.209025777E+01  0.000000000E+00  0.00000E+00  9.000E+00
      21    -1     0     0   511   517  0.000000000E+00  0.000000000E+00 -8.596460568E+00  8.596460568E+00  0.000000000E+00  0.00000E+00  9.000E+00
      21     1     1     2   514   517 -1.301231274E+01  2.213755432E-01  1.525152470E+01  2.004939639E+01  2.384185791E-07  0.00000E+00  9.000E+00
      21     1     1     2   512   513  1.033528424E+01 -6.399328978E+00  4.736002289E+00  1.304604267E+01  1.976862425E-07  0.00000E+00  9.000E+00
      21     1     1     2   511   512  2.677028504E+00  6.177953435E+00  3.506270222E+00  7.591279281E+00  4.214684851E-08  0.00000E+00  9.000E+00
</event>
<event>
      5  10001  3.52971E+09  6.42376E+00 -1.00000E+00  2.20959E-01
      21    -1     0     0   513   512  0.000000000E+00  0.000000000E+00  2.143947502E+01  2.143947502E+01  0.000000000E+00  0.00000E+00  9.000E+00
      21    -1     0     0   511   516  0.000000000E+00  0.000000000E+00 -3.289277457E+01  3.289277457E+01  0.000000000E+00  0.00000E+00  9.000E+00
      21     1     1     2   515   516  1.481996496E+01  6.281912063E+00  1.237148313E+01  2.030141314E+01  4.460403188E-07  0.00000E+00  9.000E+00
      21     1     1     2   511   512 -8.402505168E+00 -6.566264549E+00 -2.528628114E+01  2.744292144E+01  6.743495762E-07  0.00000E+00  9.000E+00
      21     1     1     2   513   515 -6.417459789E+00  2.843524856E-01  1.461498464E+00  6.587915014E+00  1.173318606E-07  0.00000E+00  9.000E+00
</event>
<event>
      5  10001  3.52971E+09  9.76662E+00 -1.00000E+00  1.96946E-01
      -1    -1     0     0     0   514  0.000000000E+00  0.000000000E+00  7.606322237E+02  7.606322237E+02  0.000000000E+00  0.00000E+00  9.000E+00
      21    -1     0     0   511   513  0.000000000E+00  0.000000000E+00 -6.446532651E-01  6.446532651E-01  0.000000000E+00  0.00000E+00  9.000E+00
      -1     1     1     2     0   513  7.872775685E+00 -1.269913961E+01  4.214704588E+02  4.217353498E+02  3.300000131E-01  0.00000E+00  9.000E+00
      21     1     1     2   512   514 -1.287975367E+01  4.314443440E+00  2.688905120E+02  2.692333745E+02  3.814697266E-06  0.00000E+00  9.000E+00
      21     1     1     2   511   512  5.006977989E+00  8.384696169E+00  6.962659963E+01  7.030815269E+01  2.336015456E-06  0.00000E+00  9.000E+00
</event>
<event>
      5  10001  3.52971E+09  5.42806E+00 -1.00000E+00  2.32441E-01
      21    -1     0     0   511   512  0.000000000E+00  0.000000000E+00  4.102605932E+02  4.102605932E+02  0.000000000E+00  0.00000E+00  9.000E+00
      21    -1     0     0   513   515  0.000000000E+00  0.000000000E+00 -5.338877628E+00  5.338877628E+00  0.000000000E+00  0.00000E+00  9.000E+00
      -2     1     1     2     0   512 -8.631715138E+00 -2.569219182E+00  2.851873098E+01  2.990876645E+01  3.300000131E-01  0.00000E+00  9.000E+00
      21     1     1     2   511   515  1.370054190E+01  6.285217013E-01  3.792874629E+02  3.795353468E+02  5.394796609E-06  0.00000E+00  9.000E+00
       2     1     1     2   513     0 -5.068826763E+00  1.940697481E+00 -2.884478393E+00  6.155357591E+00  3.300000131E-01  0.00000E+00  9.000E+00
</event>
<event>
      5  10001  3.52971E+09  9.87443E+00 -1.00000E+00  1.96389E-01
      21    -1     0     0   514   511  0.000000000E+00  0.000000000E+00  3.214632477E+01  3.214632477E+01  0.000000000E+00  0.00000E+00  9.000E+00
      -2    -1     0     0     0   514  0.000000000E+00  0.000000000E+00 -4.108843514E+02  4.108843514E+02  0.000000000E+00  0.00000E+00  9.000E+00
      -2     1     1     2     0   515  1.067492631E+01 -2.993418345E+00 -4.053347393E+02  4.054864664E+02  3.300000131E-01  0.00000E+00  9.000E+00
      21     1     1     2   515   513 -8.011610662E+00  1.250187140E+01  2.226338823E+01  2.676081370E+01  1.685873940E-06  0.00000E+00  9.000E+00
      21     1     1     2   513   511 -2.663315648E+00 -9.508453059E+00  4.333324483E+00  1.078339607E+01  1.788139343E-07  0.00000E+00  9.000E+00
</event>
<event>
      5  10001  3.52971E+09  1.75200E+01 -1.00000E+00  1.71254E-01
      21    -1     0     0   512   513  0.000000000E+00  0.000000000E+00  9.910609495E-01  9.910609495E-01  0.000000000E+00  0.00000E+00  9.000E+00
      21    -1     0     0   511   512  0.000000000E+00  0.000000000E+00 -1.589219240E+02  1.589219240E+02  0.000000000E+00  0.00000E+00  9.000E+00
      21     1     1     2   516   513  5.420402613E+00  6.822226482E+00 -3.496514442E+01  3.603449546E+01  0.000000000E+00  0.00000E+00  9.000E+00
      21     1     1     2   514   516  2.284773682E+00 -3.841059933E+00 -1.655891801E+01  1.715143428E+01  2.384185791E-07  0.00000E+00  9.000E+00
      21     1     1     2   511   514 -7.705176295E+00 -2.981166549E+00 -1.064068006E+02  1.067270552E+02  1.348699152E-06  0.00000E+00  9.000E+00
</event>
<event>
      5  10001  3.52971E+09  3.09114E+01 -1.00000E+00  1.52140E-01
      21    -1     0     0   515   514  0.000000000E+00  0.000000000E+00  1.149223842E+02  1.149223842E+02  0.000000000E+00  0.00000E+00  9.000E+00
      21    -1     0     0   514   512  0.000000000E+00  0.000000000E+00 -9.756095303E+01  9.756095303E+01  0.000000000E+00  0.00000E+00  9.000E+00
      21     1     1     2   513   512  1.253065752E+01  7.517600749E+00 -1.982375070E+01  2.462748039E+01  8.596304120E-07  0.00000E+00  9.000E+00
       4     1     1     2   515     0 -2.122205983E+01 -3.315058311E+01  1.064346134E+02  1.134897084E+02  1.500000000E+00  0.00000E+00  9.000E+00
      -4     1     1     2     0   513  8.691402311E+00  2.563298236E+01 -6.924943155E+01  7.436614841E+01  1.500000000E+00  0.00000E+00  9.000E+00
</event>
<event>
      5  10001  3.52971E+09  1.93747E+01 -1.00000E+00  1.67512E-01
      21    -1     0     0   511   512  0.000000000E+00  0.000000000E+00  5.474350370E+01  5.474350370E+01  0.000000000E+00  0.00000E+00  9.000E+00
      21    -1     0     0   514   513  0.000000000E+00  0.000000000E+00 -2.508763256E+00  2.508763256E+00  0.000000000E+00  0.00000E+00  9.000E+00
      21     1     1     2   511   513  5.867850246E+00 -2.475399932E+00  1.521278192E+01  1.649205885E+01  0.000000000E+00  0.00000E+00  9.000E+00
      21     1     1     2   515   512  2.871689144E+00  2.336088599E+00  1.206373587E+00  3.893487603E+00  1.115100797E-07  0.00000E+00  9.000E+00
      21     1     1     2   514   515 -8.739539389E+00  1.393113328E-01  3.581558493E+01  3.686672050E+01  8.259061849E-07  0.00000E+00  9.000E+00
</event>
<event>
      5  10001  3.52971E+09  6.78823E+00 -1.00000E+00  2.17451E-01
      21    -1     0     0   516   513  0.000000000E+00  0.000000000E+00  2.517425029E+01  2.517425029E+01  0.000000000E+00  0.00000E+00  9.000E+00
      21    -1     0     0   514   517  0.000000000E+00  0.000000000E+00 -1.111135907E+02  1.111135907E+02  0.000000000E+00  0.00000E+00  9.000E+00
      21     1     1     2   516   517  1.034753765E+01  4.337542746E+00 -1.091297618E+02  1.097050169E+02  1.348699152E-06  0.00000E+00  9.000E+00
      -3     1     1     2     0   513 -7.005251854E+00 -4.468297704E+00  1.023160849E+01  1.318996021E+01  5.000000000E-01  0.00000E+00  9.000E+00
       3     1     1     2   514     0 -3.342285793E+00  1.307549587E-01  1.295881292E+01  1.339286390E+01  5.000000000E-01  0.00000E+00  9.000E+00
</event>
<event>
      5  10001  3.52971E+09  1.00161E+01 -1.00000E+00  1.95672E-01
      21    -1     0     0   511   515  0.000000000E+00  0.000000000E+00  8.127064441E-01  8.127064441E-01  0.000000000E+00  0.00000E+00  9.000E+00
      21    -1     0     0   514   512  0.000000000E+00  0.000000000E+00 -1.675728339E+02  1.675728339E+02  0.000000000E+00  0.00000E+00  9.000E+00
      21     1     1     2   511   512 -7.912444608E+00 -5.026236984E+00 -4.419682813E+01  4.517996741E+01  1.066240300E-06  0.00000E+00  9.000E+00
      21     1     1     2   513   515  4.110270709E+00  2.604952964E+00 -2.158589960E+01  2.212761096E+01  2.384185791E-07  0.00000E+00  9.000E+00
      21     1     1     2   514   513  3.802173898E+00  2.421284020E+00 -1.009773997E+02  1.010779620E+02  0.000000000E+00  0.00000E+00  9.000E+00
</event>
<event>
      5  10001  3.52971E+09  1.68293E+01 -1.00000E+00  1.72798E-01
      21    -1     0     0   516   514  0.000000000E+00  0.000000000E+00  2.665432255E+02  2.665432255E+02  0.000000000E+00  0.00000E+00  9.000E+00
      -1    -1     0     0     0   516  0.000000000E+00  0.000000000E+00 -1.830737524E+01  1.830737524E+01  0.000000000E+00  0.00000E+00  9.000E+00
      -1     1     1     2     0   511 -2.751400921E+01  3.693515336E+00 -5.005904993E+00  2.821047222E+01  3.300000131E-01  0.00000E+00  9.000E+00
      21     1     1     2   512   514  2.809871530E+01 -1.389561918E+01  1.967697983E+02  1.992510466E+02  4.672030912E-06  0.00000E+00  9.000E+00
      21     1     1     2   511   512 -5.847060918E-01  1.020210385E+01  5.647195692E+01  5.738908191E+01  0.000000000E+00  0.00000E+00  9.000E+00
</event>
<event>
      5  10001  3.52971E+09  3.59949E+00 -1.00000E+00  2.74746E-01
      21    -1     0     0   515   512  0.000000000E+00  0.000000000E+00  2.343121407E+02  2.343121407E+02  0.000000000E+00  0.00000E+00  9.000E+00
      -2    -1     0     0     0   514  0.000000000E+00  0.000000000E+00 -6.424350130E-01  6.424350130E-01  0.000000000E+00  0.00000E+00  9.000E+00
      -2     1     1     2     0   512  2.219756380E+00  1.081387285E+01  8.848745348E+01  8.917401801E+01  3.300000131E-01  0.00000E+00  9.000E+00
      21     1     1     2   515   513  1.062533524E+00 -9.338143404E+00  1.152927629E+02  1.156751964E+02  1.907348633E-06  0.00000E+00  9.000E+00
      21     1     1     2   513   514 -3.282289904E+00 -1.475729448E+00  2.988948936E+01  3.010536129E+01  3.371747881E-07  0.00000E+00  9.000E+00
</event>
<event>
      5  10001  3.52971E+09  7.98427E+00 -1.00000E+00  2.07777E-01
      21    -1     0     0   511   514  0.000000000E+00  0.000000000E+00  1.979299441E+01  1.979299441E+01  0.000000000E+00  0.00000E+00  9.000E+00
      21    -1     0     0   512   516  0.000000000E+00  0.000000000E+00 -1.027519852E+02  1.027519852E+02  0.000000000E+00  0.00000E+00  9.000E+00
      21     1     1     2   511   516 -1.130995666E+01 -3.153929973E+00  1.739697212E+01  2.098849763E+01  6.743495762E-07  0.00000E+00  9.000E+00
      21     1     1     2   512   515  1.183174088E+01  2.636456186E+00 -6.095342057E+01  6.214708740E+01  1.168007728E-06  0.00000E+00  9.000E+00
      21     1     1     2   515   514 -5.217842204E-01  5.174737878E-01 -3.940254236E+01  3.940939459E+01  6.743495762E-07  0.00000E+00  9.000E+00
</event>
<event>
      5  10001  3.52971E+09  7.18700E+00 -1.00000E+00  2.13942E-01
       3    -1     0     0   512     0  0.000000000E+00  0.000000000E+00  6.825394892E+00  6.825394892E+00  0.000000000E+00  0.00000E+00  9.000E+00
      21    -1     0     0   513   515  0.000000000E+00  0.000000000E+00 -4.231446301E+01  4.231446301E+01  0.000000000E+00  0.00000E+00  9.000E+00
      21     1     1     2   512   515  9.953202948E+00  7.900166888E+00 -5.349307021E+00  1.378745703E+01  5.960464478E-08  0.00000E+00  9.000E+00
      21     1     1     2   513   511 -7.126390320E+00 -9.304956005E+00 -2.993754572E+01  3.215002782E+01  3.371747881E-07  0.00000E+00  9.000E+00
       3     1     1     2   511     0 -2.826812628E+00  1.404789117E+00 -2.022153798E-01  3.202373051E+00  5.000000000E-01  0.00000E+00  9.000E+00
</event>
<event>
      5  10001  3.52971E+09  1.53640E+01 -1.00000E+00  1.76404E-01
      21    -1     0     0   514   513  0.000000000E+00  0.000000000E+00  3.592309521E+02  3.592309521E+02  0.000000000E+00  0.00000E+00  9.000E+00
      21    -1     0     0   517   516  0.000000000E+00  0.000000000E+00 -4.313575247E+00  4.313575247E+00  0.000000000E+00  0.00000E+00  9.000E+00
      21     1     1     2   514   516  1.104598819E+01  1.037638332E+01  1.065621758E+01  1.852668775E+01  5.462855929E-07  0.00000E+00  9.000E+00
       4     1     1     2   517     0 -1.405667637E+01 -4.006837357E+00  1.799540457E+02  1.805529104E+02  1.500000000E+00  0.00000E+00  9.000E+00
      -4     1     1     2     0   513  3.010688183E+00 -6.369545967E+00  1.643071135E+02  1.644649292E+02  1.500000000E+00  0.00000E+00  9.000E+00
</event>
<event>
      5  10001  3.52971E+09  8.94431E+00 -1.00000E+00  2.01525E-01
      21    -1     0     0   511   515  0.000000000E+00  0.000000000E+00  1.593438688E+02  1.593438688E+02  0.000000000E+00  0.00000E+00  9.000E+00
      21    -1     0     0   513   512  0.000000000E+00  0.000000000E+00 -8.461680594E+00  8.461680594E+00  0.000000000E+00  0.00000E+00  9.000E+00
      21     1     1     2   511   512 -9.971149477E+00  4.358014294E-01  1.532575490E+02  1.535821932E+02  2.697398305E-06  0.00000E+00  9.000E+00
      21     1     1     2   513   514  6.696106664E+00 -4.976511296E+00 -6.648785656E-01  8.369323308E+00  1.739355554E-07  0.00000E+00  9.000E+00
      21     1     1     2   514   515  3.275042813E+00  4.540709867E+00 -1.710482226E+00  5.854032881E+00  1.475139698E-07  0.00000E+00  9.000E+00
</event>
<event>
      5  10001  3.52971E+09  1.55186E+01 -1.00000E+00  1.76000E-01
      21    -1     0     0   516   512  0.000000000E+00  0.000000000E+00  6.480079030E-01  6.480079030E-01  0.000000000E+00  0.00000E+00  9.000E+00
      21    -1     0     0   517   515  0.000000000E+00  0.000000000E+00 -2.458218907E+02  2.458218907E+02  0.000000000E+00  0.00000E+00  9.000E+00
      21     1     1     2   516   515 -3.750872416E+00  6.551005513E+00 -5.651825683E+01  5.702015496E+01  6.743495762E-07  0.00000E+00  9.000E+00
      21     1     1     2   511   512  4.623868436E+00  1.256231564E-01 -1.578079163E+02  1.578756929E+02  2.697398305E-06  0.00000E+00  9.000E+00
      21     1     1     2   517   511 -8.729960203E-01 -6.676628670E+00 -3.084770959E+01  3.157405073E+01  6.743495762E-07  0.00000E+00  9.000E+00
</event>
<event>
      5  10001  3.52971E+09  6.35375E+00 -1.00000E+00  2.21670E-01
      21    -1     0     0   511   514  0.000000000E+00  0.000000000E+00  2.399733064E+02  2.399733064E+02  0.000000000E+00  0.00000E+00  9.000E+00
       2    -1     0     0   512     0  0.000000000E+00  0.000000000E+00 -2.533634990E+02  2.533634990E+02  0.000000000E+00  0.00000E+00  9.000E+00
      21     1     1     2   511   513 -1.590799225E+01 -1.378391874E+01  1.910318791E+01  2.842520751E+01  1.599360450E-06  0.00000E+00  9.000E+00
       2     1     1     2   513     0  9.606030279E+00  1.459347396E+01 -2.483487384E+02  2.489627484E+02  3.300000131E-01  0.00000E+00  9.000E+00
      21     1     1     2   512   514  6.301961974E+00 -8.095552214E-01  2.158553579E+02  2.159488495E+02  2.697398305E-06  0.00000E+00  9.000E+00
</event>
<event>
      5  10001  3.52971E+09  1.93077E+01 -1.00000E+00  1.67638E-01
      21    -1     0     0   513   514  0.000000000E+00  0.000000000E+00  1.634395162E-01  1.634395162E-01  0.000000000E+00  0.00000E+00  9.000E+00
       2    -1     0     0   514     0  0.000000000E+00  0.000000000E+00 -9.598717806E+02  9.598717806E+02  0.000000000E+00  0.00000E+00  9.000E+00
      21     1     1     2   511   512 -3.003478599E+00 -4.775137965E+00 -5.632969051E+02  5.633251514E+02  7.629394531E-06  0.00000E+00  9.000E+00
       2     1     1     2   512     0  5.496458765E+00  1.251823003E+00 -3.599166346E+02  3.599609296E+02  3.300000131E-01  0.00000E+00  9.000E+00
      21     1     1     2   513   511 -2.492980166E+00  3.523314962E+00 -3.649480134E+01  3.674913908E+01  1.348699152E-06  0.00000E+00  9.000E+00
</event>
<event>
      5  10001  3.52971E+09  4.91468E+00 -1.00000E+00  2.44027E-01
      21    -1     0     0   515   511  0.000000000E+00  0.000000000E+00  1.561781007E+01  1.561781007E+01  0.000000000E+00  0.00000E+00  9.000E+00
      21    -1     0     0   514   515  0.000000000E+00  0.000000000E+00 -6.509871849E+01  6.509871849E+01  0.000000000E+00  0.00000E+00  9.000E+00
      21     1     1     2   516   511  1.426630507E+01 -2.930945608E+00  1.054114808E+01  1.797870144E+01  4.915124924E-07  0.00000E+00  9.000E+00
      21     1     1     2   514   512 -1.241201222E+01  6.433306366E+00 -5.104752291E+01  5.292726210E+01  6.743495762E-07  0.00000E+00  9.000E+00
      21     1     1     2   512   516 -1.854292855E+00 -3.502360758E+00 -8.974533591E+00  9.810565021E+00  1.685873940E-07  0.00000E+00  9.000E+00
</event>
<event>
      5  10001  3.52971E+09  1.01348E+01 -1.00000E+00  1.95082E-01
      21    -1     0     0   513   512  0.000000000E+00  0.000000000E+00  1.342243863E+01  1.342243863E+01  0.000000000E+00  0.00000E+00  9.000E+00
      21    -1     0     0   517   513  0.000000000E+00  0.000000000E+00 -1.415260946E+01  1.415260946E+01  0.000000000E+00  0.00000E+00  9.000E+00
      21     1     1     2   514   512 -6.958698290E+00 -5.358373911E+00  7.292503016E+00  1.141561444E+01  1.685873940E-07  0.00000E+00  9.000E+00
      21     1     1     2   511   514  4.471673892E+00 -1.564859146E+00 -7.386946890E+00  8.775627380E+00  1.192092896E-07  0.00000E+00  9.000E+00
      21     1     1     2   517   511  2.487024398E+00  6.923233057E+00 -6.357269529E-01  7.383806273E+00  7.487740830E-08  0.00000E+00  9.000E+00
</event>
<event>
      5  10001  3.52971E+09  1.08525E+01 -1.00000E+00  1.91733E-01
      21    -1     0     0   515   511  0.000000000E+00  0.000000000E+00  2.001852088E+01  2.001852088E+01  0.000000000E+00  0.00000E+00  9.000E+00
       4    -1     0     0   512     0  0.000000000E+00  0.000000000E+00 -8.003276311E+01  8.003276311E+01  0.000000000E+00  0.00000E+00  9.000E+00
      21     1     1     2   515   516 -2.864988103E+01 -3.805516945E-01 -4.672654324E+00  2.903091802E+01  2.230201594E-07  0.00000E+00  9.000E+00
      21     1     1     2   512   511  1.877766923E+01 -4.112776536E+00 -5.505714574E+00  1.999571668E+01  5.364418030E-07  0.00000E+00  9.000E+00
       4     1     1     2   516     0  9.872211795E+00  4.493328231E+00 -4.983587333E+01  5.102464929E+01  1.500000000E+00  0.00000E+00  9.000E+00
</event>
<event>
      5  10001  3.52971E+09  5.56341E+00 -1.00000E+00  2.30685E-01
       2    -1     0     0   514     0  0.000000000E+00  0.000000000E+00  1.837808738E+02  1.837808738E+02  0.000000000E+00  0.00000E+00  9.000E+00
      -3    -1     0     0     0   513  0.000000000E+00  0.000000000E+00 -1.926291205E+00  1.926291205E+00  0.000000000E+00  0.00000E+00  9.000E+00
      -3     1     1     2     0   511 -2.249752325E-01 -1.351781443E+01  4.490149214E+01  4.689537202E+01  5.000000000E-01  0.00000E+00  9.000E+00
      21     1     1     2   514   513 -1.109704537E+00  8.118844608E+00  1.856889039E+01  2.029657046E+01  4.768371582E-07  0.00000E+00  9.000E+00
       2     1     1     2   511     0  1.334679769E+00  5.398969824E+00  1.183842001E+02  1.185152225E+02  3.300000131E-01  0.00000E+00  9.000E+00
</event>
<event>
      5  10001  3.52971E+09  2.64712E+00 -1.00000E+00  3.14385E-01
      21    -1     0     0   512   516  0.000000000E+00  0.000000000E+00  2.075602319E+01  2.075602319E+01  0.000000000E+00  0.00000E+00  9.000E+00
      21    -1     0     0   513   515  0.000000000E+00  0.000000000E+00 -2.770457797E+01  2.770457797E+01  0.000000000E+00  0.00000E+00  9.000E+00
      21     1     1     2   512   515  5.228858722E-01  1.430999747E+01  6.134511865E+00  1.557824358E+01  8.429369702E-08  0.00000E+00  9.000E+00
      21     1     1     2   511   516 -1.700539317E+00 -1.193925958E+01  6.101932469E+00  1.351559593E+01  1.685873940E-07  0.00000E+00  9.000E+00
      21     1     1     2   513   511  1.177653444E+00 -2.370737884E+00 -1.918499912E+01  1.936676165E+01  0.000000000E+00  0.00000E+00  9.000E+00
</event>
<event>
      5  10001  3.52971E+09  1.65323E+01 -1.00000E+00  1.73491E-01
      21    -1     0     0   514   511  0.000000000E+00  0.000000000E+00  3.652979301E+01  3.652979301E+01  0.000000000E+00  0.00000E+00  9.000E+00
      21    -1     0     0   513   517  0.000000000E+00  0.000000000E+00 -1.777588201E+01  1.777588201E+01  0.000000000E+00  0.00000E+00  9.000E+00
      21     1     1     2   514   517  1.249549568E+01 -1.417603518E+00  3.232198234E+01  3.468223688E+01  0.000000000E+00  0.00000E+00  9.000E+00
      21     1     1     2   513   512 -3.208548536E+00 -3.496771410E-01 -1.780092461E-01  3.232451871E+00  6.964400074E-08  0.00000E+00  9.000E+00
      21     1     1     2   512   511 -9.286947147E+00  1.767280659E+00 -1.339006209E+01  1.639098628E+01  4.129530925E-07  0.00000E+00  9.000E+00
</event>
<event>
      5  10001  3.52971E+09  4.86854E+00 -1.00000E+00  2.44851E-01
      -3    -1     0     0     0   513  0.000000000E+00  0.000000000E+00  1.488846727E+02  1.488846727E+02  0.000000000E+00  0.00000E+00  9.000E+00
      21    -1     0     0   516   511  0.000000000E+00  0.000000000E+00 -6.241539612E+01  6.241539612E+01  0.000000000E+00  0.00000E+00  9.000E+00
      21     1     1     2   515   511  9.043049341E+00  5.806737630E+00 -3.677086861E+01  3.830915977E+01  8.259061849E-07  0.00000E+00  9.000E+00
      21     1     1     2   516   513 -1.060745816E+01 -1.196421282E+00 -2.368755453E+01  2.598172112E+01  0.000000000E+00  0.00000E+00  9.000E+00
      -3     1     1     2     0   515  1.564408818E+00 -4.610316348E+00  1.469276997E+02  1.470091879E+02  5.000000000E-01  0.00000E+00  9.000E+00
</event>
<event>
      5  10001  3.52971E+09  8.76126E+00 -1.00000E+00  2.02635E-01
       5    -1     0     0   511     0  0.000000000E+00  0.000000000E+00  7.565294724E+00  7.565294724E+00  0.000000000E+00  0.00000E+00  9.000E+00
      21    -1     0     0   514   511  0.000000000E+00  0.000000000E+00 -2.802337108E+01  2.802337108E+01  0.000000000E+00  0.00000E+00  9.000E+00
      21     1     1     2   514   512  8.360259341E-01  1.223214637E+01 -1.698938869E+01  2.095145991E+01  0.000000000E+00  0.00000E+00  9.000E+00
      21     1     1     2   512   513 -4.287663822E-01 -3.339947530E+00 -3.005247773E+00  4.513380584E+00  4.214684851E-08  0.00000E+00  9.000E+00
       5     1     1     2   513     0 -4.072595519E-01 -8.892198843E+00 -4.634398943E-01  1.012382531E+01  4.800000191E+00  0.00000E+00  9.000E+00
</event>
<event>
      5  10001  3.52971E+09  7.33308E+00 -1.00000E+00  2.12734E-01
      21    -1     0     0   515   512  0.000000000E+00  0.000000000E+00  2.888669571E+01  2.888669571E+01  0.000000000E+00  0.00000E+00  9.000E+00
      21    -1     0     0   514   516  0.000000000E+00  0.000000000E+00 -3.216154448E+01  3.216154448E+01  0.000000000E+00  0.00000E+00  9.000E+00
      21     1     1     2   515   516  1.073041220E+01 -2.707425004E-01  2.598888438E+01  2.811827091E+01  3.371747881E-07  0.00000E+00  9.000E+00
      21     1     1     2   514   511 -4.348659123E+00 -3.358565625E+00 -2.171713950E+01  2.240144967E+01  3.371747881E-07  0.00000E+00  9.000E+00
      21     1     1     2   511   512 -6.381753076E+00  3.629308125E+00 -7.546593651E+00  1.052851963E+01  8.429369702E-08  0.00000E+00  9.000E+00
</event>
<event>
      5  10001  3.52971E+09  1.39197E+01 -1.00000E+00  1.80493E-01
      21    -1     0     0   513   514  0.000000000E+00  0.000000000E+00  6.384408092E+00  6.384408092E+00  0.000000000E+00  0.00000E+00  9.000E+00
      21    -1     0     0   517   512  0.000000000E+00  0.000000000E+00 -3.298226372E+01  3.298226372E+01  0.000000000E+00  0.00000E+00  9.000E+00
      21     1     1     2   513   512  5.801079688E+00  5.227312450E+00 -1.289239096E+01  1.507285857E+01  2.384185791E-07  0.00000E+00  9.000E+00
      21     1     1     2   515   514 -8.452811977E+00 -9.773016282E+00 -1.396365887E+01  1.902486916E+01  2.920019320E-07  0.00000E+00  9.000E+00
      21     1     1     2   517   515  2.651732289E+00  4.545703832E+00  2.581941970E-01  5.268944078E+00  4.857184295E-08  0.00000E+00  9.000E+00
</event>
<event>
      5  10001  3.52971E+09  1.65261E+01 -1.00000E+00  1.73506E-01
      21    -1     0     0   511   512  0.000000000E+00  0.000000000E+00  5.457229228E+01  5.457229228E+01  0.000000000E+00  0.00000E+00  9.000E+00
      -3    -1     0     0     0   516  0.000000000E+00  0.000000000E+00 -1.631429848E+02  1.631429848E+02  0.000000000E+00  0.00000E+00  9.000E+00
      21     1     1     2   511   516 -4.103524524E+00  1.148501531E+01 -1.451379161E+01  1.895770654E+01  3.371747881E-07  0.00000E+00  9.000E+00
      21     1     1     2   517   512 -1.226393650E+01 -9.201919527E+00  5.074711555E+01  5.301272676E+01  9.536743164E-07  0.00000E+00  9.000E+00
      -3     1     1     2     0   517  1.636746103E+01 -2.283095784E+00 -1.448040165E+02  1.457448438E+02  5.000000000E-01  0.00000E+00  9.000E+00
</event>
<event>
      5  10001  3.52971E+09  6.59224E+00 -1.00000E+00  2.19299E-01
      21    -1     0     0   513   516  0.000000000E+00  0.000000000E+00  1.252962206E+01  1.252962206E+01  0.000000000E+00  0.00000E+00  9.000E+00
      21    -1     0     0   515   514  0.000000000E+00  0.000000000E+00 -1.648901871E+01  1.648901871E+01  0.000000000E+00  0.00000E+00  9.000E+00
      21     1     1     2   513   514  9.681029869E+00  1.275222827E+00  8.237908740E+00  1.277543240E+01  1.192092896E-07  0.00000E+00  9.000E+00
      21     1     1     2   511   516 -4.016632892E+00  9.896889679E-01 -2.648176070E+00  4.911787916E+00  4.214684851E-08  0.00000E+00  9.000E+00
      21     1     1     2   515   511 -5.664396977E+00 -2.264911795E+00 -9.549129329E+00  1.133142045E+01  0.000000000E+00  0.00000E+00  9.000E+00
</event>
<event>
      5  10001  3.52971E+09  3.46749E+00 -1.00000E+00  2.78992E-01
       4    -1     0     0   513     0  0.000000000E+00  0.000000000E+00  9.115274442E+00  9.115274442E+00  0.000000000E+00  0.00000E+00  9.000E+00
      21    -1     0     0   511   513  0.000000000E+00  0.000000000E+00 -1.941707752E+02  1.941707752E+02  0.000000000E+00  0.00000E+00  9.000E+00
       5     1     1     2   511     0 -1.484216316E-01  4.298841013E+00 -7.246819439E+01  7.275425255E+01  4.800000191E+00  0.00000E+00  9.000E+00
       4     1     1     2   512     0  3.134452174E+00 -9.368977996E+00  6.030413392E+00  1.167126492E+01  1.500000000E+00  0.00000E+00  9.000E+00
      -5     1     1     2     0   512 -2.986030542E+00  5.070136983E+00 -1.186177197E+02  1.188605321E+02  4.800000191E+00  0.00000E+00  9.000E+00
</event>
<event>
      5  10001  3.52971E+09  3.63285E+00 -1.00000E+00  2.73719E-01
      21    -1     0     0   514   513  0.000000000E+00  0.000000000E+00  6.517476893E+01  6.517476893E+01  0.000000000E+00  0.00000E+00  9.000E+00
      21    -1     0     0   511   515  0.000000000E+00  0.000000000E+00 -3.240798899E+01  3.240798899E+01  0.000000000E+00  0.00000E+00  9.000E+00
      21     1     1     2   514   515  4.013356077E+00 -1.050129049E+01 -1.695919428E+01  2.034695063E+01  2.384185791E-07  0.00000E+00  9.000E+00
      21     1     1     2   511   512 -6.530012598E+00  7.881365530E+00 -1.178988990E+01  1.561276692E+01  1.685873940E-07  0.00000E+00  9.000E+00
      21     1     1     2   512   513  2.516656521E+00  2.619924963E+00  6.151586412E+01  6.162304038E+01  0.000000000E+00  0.00000E+00  9.000E+00
</event>
<event>
      5  10001  3.52971E+09  1.00864E+01 -1.00000E+00  1.95321E-01
      21    -1     0     0   516   511  0.000000000E+00  0.000000000E+00  2.354860238E+01  2.354860238E+01  0.000000000E+00  0.00000E+00  9.000E+00
      21    -1     0     0   517   514  0.000000000E+00  0.000000000E+00 -1.378820903E+02  1.378820903E+02  0.000000000E+00  0.00000E+00  9.000E+00
      21     1     1     2   516   513  2.560256847E+00 -1.131360868E+01 -1.121771416E+02  1.127752799E+02  1.907348633E-06  0.00000E+00  9.000E+00
      21     1     1     2   517   511  7.143255277E+00  8.560806450E+00  2.078946091E+01  2.359057414E+01  6.307962682E-07  0.00000E+00  9.000E+00
      21     1     1     2   513   514 -9.703512124E+00  2.752802233E+00 -2.294580726E+01  2.506483869E+01  0.000000000E+00  0.00000E+00  9.000E+00
</event>
<event>
      5  10001  3.52971E+09  2.20584E+01 -1.00000E+00  1.62931E-01
       1    -1     0     0   513     0  0.000000000E+00  0.000000000E+00  4.495131361E-01  4.495131361E-01  0.000000000E+00  0.00000E+00  9.000E+00
       2    -1     0     0   512     0  0.000000000E+00  0.000000000E+00 -4.436472373E+02  4.436472373E+02  0.000000000E+00  0.00000E+00  9.000E+00
       1     1     1     2   512     0 -2.790970468E+00 -8.223831759E+00 -1.470257572E+02  1.472823924E+02  3.300000131E-01  0.00000E+00  9.000E+00
      21     1     1     2   513   511 -5.413531150E+00  7.414923120E-01 -3.668360108E+01  3.708830973E+01  4.768371582E-07  0.00000E+00  9.000E+00
       2     1     1     2   511     0  8.204501618E+00  7.482339447E+00 -2.594883659E+02  2.597260483E+02  3.300000131E-01  0.00000E+00  9.000E+00
</event>
<event>
      5  10001  3.52971E+09  6.21236E+00 -1.00000E+00  2.23145E-01
      21    -1     0     0   514   511  0.000000000E+00  0.000000000E+00  4.000016801E+01  4.000016801E+01  0.000000000E+00  0.00000E+00  9.000E+00
      21    -1     0     0   515   514  0.000000000E+00  0.000000000E+00 -5.066117704E+00  5.066117704E+00  0.000000000E+00  0.00000E+00  9.000E+00
      21     1     1     2   516   511 -8.095148179E+00  4.833616827E+00  2.898585063E+01  3.048072854E+01  4.768371582E-07  0.00000E+00  9.000E+00
      21     1     1     2   515   512  4.015640432E+00 -7.097908208E+00  1.820102749E+00  8.355743116E+00  1.576990671E-07  0.00000E+00  9.000E+00
      21     1     1     2   512   516  4.079507747E+00  2.264291382E+00  4.128096926E+00  6.229814054E+00  1.192092896E-07  0.00000E+00  9.000E+00
</event>
<event>
      5  10001  3.52971E+09  2.86698E+00 -1.00000E+00  3.02965E-01
      21    -1     0     0   513   511  0.000000000E+00  0.000000000E+00  2.765224651E+02  2.765224651E+02  0.000000000E+00  0.00000E+00  9.000E+00
      21    -1     0     0   514   513  0.000000000E+00  0.000000000E+00 -1.431451100E+01  1.431451100E+01  0.000000000E+00  0.00000E+00  9.000E+00
      21     1     1     2   517   516  9.040521256E+00  1.539030880E+00  8.477294845E+00  1.248856151E+01  7.996802250E-07  0.00000E+00  9.000E+00
      21     1     1     2   516   511 -1.075091238E+01 -3.839931101E+00  2.657483665E+02  2.659934614E+02  7.629394531E-06  0.00000E+00  9.000E+00
      21     1     1     2   514   517  1.710391121E+00  2.300900222E+00 -1.201770729E+01  1.235495319E+01  0.000000000E+00  0.00000E+00  9.000E+00
</event>
<event>
      5  10001  3.52971E+09  1.72045E+01 -1.00000E+00  1.71948E-01
      -1    -1     0     0     0   512  0.000000000E+00  0.000000000E+00  3.900144680E+02  3.900144680E+02  0.000000000E+00  0.00000E+00  9.000E+00
      21    -1     0     0   512   513  0.000000000E+00  0.000000000E+00 -2.485228637E+01  2.485228637E+01  0.000000000E+00  0.00000E+00  9.000E+00
      -1     1     1     2     0   515 -1.021841148E+01 -2.000865683E+00  3.502675107E+02  3.504223985E+02  3.300000131E-01  0.00000E+00  9.000E+00
      21     1     1     2   511   513  2.401495125E+01 -1.038795404E+00 -1.708005201E+01  2.948771195E+01  2.198110689E-06  0.00000E+00  9.000E+00
      21     1     1     2   515   511 -1.379653977E+01  3.039661087E+00  3.197472291E+01  3.495664392E+01  5.840038640E-07  0.00000E+00  9.000E+00
</event>
<event>
      5  10001  3.52971E+09  1.96708E+01 -1.00000E+00  1.66963E-01
      21    -1     0     0   514   513  0.000000000E+00  0.000000000E+00  1.377415295E+02  1.377415295E+02  0.000000000E+00  0.00000E+00  9.000E+00
      21    -1     0     0   512   516  0.000000000E+00  0.000000000E+00 -4.169020343E+01  4.169020343E+01  0.000000000E+00  0.00000E+00  9.000E+00
      21     1     1     2   514   516  9.676988577E+00 -1.178889425E+01 -3.558538747E+01  3.871617152E+01  9.536743164E-07  0.00000E+00  9.000E+00
      21     1     1     2   512   511  9.075616441E+00  1.772845572E+01  2.350078032E+01  3.080505854E+01  4.768371582E-07  0.00000E+00  9.000E+00
      21     1     1     2   511   513 -1.875260502E+01 -5.939561467E+00  1.081359332E+02  1.099105029E+02  1.348699152E-06  0.00000E+00  9.000E+00
</event>
<event>
      5  10001  3.52971E+09  2.31304E+01 -1.00000E+00  1.61318E-01
      21    -1     0     0   515   512  0.000000000E+00  0.000000000E+00  2.725146192E+01  2.725146192E+01  0.000000000E+00  0.00000E+00  9.000E+00
      21    -1     0     0   514   513  0.000000000E+00  0.000000000E+00 -5.653479286E+01  5.653479286E+01  0.000000000E+00  0.00000E+00  9.000E+00
      21     1     1     2   515   513 -3.014933218E+01  1.222135171E+01 -1.613488455E+01  3.631360857E+01  6.743495762E-07  0.00000E+00  9.000E+00
      21     1     1     2   517   512  1.965594610E+01  8.391860033E+00 -1.120298215E+00  2.140174292E+01  2.313282296E-07  0.00000E+00  9.000E+00
      21     1     1     2   514   517  1.049338608E+01 -2.061321174E+01 -1.202814818E+01  2.607090329E+01  4.129530925E-07  0.00000E+00  9.000E+00
</event>
<event>
      5  10001  3.52971E+09  1.90311E+01 -1.00000E+00  1.68165E-01
      21    -1     0     0   511   513  0.000000000E+00  0.000000000E+00  8.307805219E+02  8.307805219E+02  0.000000000E+00  0.00000E+00  9.000E+00
      21    -1     0     0   514   516  0.000000000E+00  0.000000000E+00 -2.511559220E+00  2.511559220E+00  0.000000000E+00  0.00000E+00  9.000E+00
      21     1     1     2   511   516  5.684254317E+00 -8.033278247E+00  9.945171961E+00  1.399109545E+01  1.630162517E-06  0.00000E+00  9.000E+00
      21     1     1     2   512   513 -1.036394701E+01  8.851433588E-01  7.785693434E+02  7.786388234E+02  1.078959322E-05  0.00000E+00  9.000E+00
      21     1     1     2   514   512  4.679692691E+00  7.148134888E+00  3.975444732E+01  4.066216224E+01  1.348699152E-06  0.00000E+00  9.000E+00
</event>
<event>
      5  10001  3.52971E+09  3.04561E+00 -1.00000E+00  2.94883E-01
      21    -1     0     0   515   511  0.000000000E+00  0.000000000E+00  2.806607831E+02  2.806607831E+02  0.000000000E+00  0.00000E+00  9.000E+00
      21    -1     0     0   514   517  0.000000000E+00  0.000000000E+00 -7.356076548E+00  7.356076548E+00  0.000000000E+00  0.00000E+00  9.000E+00
      21     1     1     2   515   517  1.564059356E+00 -1.198113325E+01  3.430757799E+01  3.637311842E+01  6.743495762E-07  0.00000E+00  9.000E+00
      21     1     1     2   514   512 -4.383794573E+00  1.313213879E+01  1.276103145E+00  1.390320694E+01  4.290395990E-07  0.00000E+00  9.000E+00
      21     1     1     2   512   511  2.819735217E+00 -1.151005542E+00  2.377210254E+02  2.377405343E+02  2.697398305E-06  0.00000E+00  9.000E+00
</event>
<event>
      5  10001  3.52971E+09  1.11232E+01 -1.00000E+00  1.90556E-01
      21    -1     0     0   513   514  0.000000000E+00  0.000000000E+00  2.263928179E+01  2.263928179E+01  0.000000000E+00  0.00000E+00  9.000E+00
      21    -1     0     0   511   513  0.000000000E+00  0.000000000E+00 -2.581909991E+01  2.581909991E+01  0.000000000E+00  0.00000E+00  9.000E+00
      21     1     1     2   511   516 -1.141799797E+01 -7.820459342E+00 -1.689168188E+01  2.183710555E+01  3.371747881E-07  0.00000E+00  9.000E+00
      21     1     1     2   516   515  4.809085359E+00  5.883526522E+00  1.727120676E+01  1.886896312E+01  4.129530925E-07  0.00000E+00  9.000E+00
      21     1     1     2   515   514  6.608912611E+00  1.936932821E+00 -3.559343000E+00  7.752313026E+00  1.460009660E-07  0.00000E+00  9.000E+00
</event>
<event>
      5  10001  3.52971E+09  5.58366E+00 -1.00000E+00  2.30428E-01
       2    -1     0     0   512     0  0.000000000E+00  0.000000000E+00  1.711256923E+02  1.711256923E+02  0.000000000E+00  0.00000E+00  9.000E+00
      21    -1     0     0   511   514  0.000000000E+00  0.000000000E+00 -2.600782677E+02  2.600782677E+02  0.000000000E+00  0.00000E+00  9.000E+00
      21     1     1     2   512   514 -5.808945294E+00  1.026000665E+01 -2.153067433E+02  2.156293238E+02  4.672030912E-06  0.00000E+00  9.000E+00
      21     1     1     2   511   516  3.173113464E-01 -1.126953733E+01 -4.385126060E+01  4.527732561E+01  1.966049969E-06  0.00000E+00  9.000E+00
       2     1     1     2   516     0  5.491633948E+00  1.009530680E+00  1.702054285E+02  1.702973106E+02  3.300000131E-01  0.00000E+00  9.000E+00
</event>
<event>
      5  10001  3.52971E+09  6.18640E+00 -1.00000E+00  2.23422E-01
      21    -1     0     0   513   511  0.000000000E+00  0.000000000E+00  6.405498289E+01  6.405498289E+01  0.000000000E+00  0.00000E+00  9.000E+00
      21    -1     0     0   517   515  0.000000000E+00  0.000000000E+00 -6.386025573E+00  6.386025573E+00  0.000000000E+00  0.00000E+00  9.000E+00
      21     1     1     2   513   515 -8.758413809E+00  1.147764278E+01  6.057100267E+00  1.565677361E+01  3.576278687E-07  0.00000E+00  9.000E+00
      21     1     1     2   512   511  5.098725127E+00 -8.586424909E+00  4.758763022E+01  4.862413229E+01  1.168007728E-06  0.00000E+00  9.000E+00
      21     1     1     2   517   512  3.659688682E+00 -2.891217874E+00  4.024226832E+00  6.160102567E+00  1.192092896E-07  0.00000E+00  9.000E+00
</event>
<event>
      5  10001  3.52971E+09  1.24535E+01 -1.00000E+00  1.85346E-01
      21    -1     0     0   514   512  0.000000000E+00  0.000000000E+00  1.255651013E+00  1.255651013E+00  0.000000000E+00  0.00000E+00  9.000E+00
      21    -1     0     0   517   516  0.000000000E+00  0.000000000E+00 -1.268216687E+02  1.268216687E+02  0.000000000E+00  0.00000E+00  9.000E+00
      21     1     1     2   514   516  9.056056657E+00  3.228177845E+00 -7.704974997E+01  7.764726180E+01  1.348699152E-06  0.00000E+00  9.000E+00
      21     1     1     2   511   512 -3.623191778E+00  3.506780211E+00 -1.555197306E+01  1.634897220E+01  3.371747881E-07  0.00000E+00  9.000E+00
      21     1     1     2   517   511 -5.432864879E+00 -6.734958056E+00 -3.296429462E+01  3.408108567E+01  0.000000000E+00  0.00000E+00  9.000E+00
</event>
<event>
      5  10001  3.52971E+09  5.35566E+00 -1.00000E+00  2.33411E-01
      21    -1     0     0   513   511  0.000000000E+00  0.000000000E+00  6.129060139E+01  6.129060139E+01  0.000000000E+00  0.00000E+00  9.000E+00
      21    -1     0     0   515   512  0.000000000E+00  0.000000000E+00 -4.706166246E+01  4.706166246E+01  0.000000000E+00  0.00000E+00  9.000E+00
      21     1     1     2   515   517 -2.724434256E+00 -8.201965634E+00 -7.325083417E+00  1.132923781E+01  3.153981341E-07  0.00000E+00  9.000E+00
      21     1     1     2   517   511 -2.162939649E-01  1.267803479E+01  5.841483058E+01  5.977517696E+01  1.168007728E-06  0.00000E+00  9.000E+00
      21     1     1     2   513   512  2.940728221E+00 -4.476069153E+00 -3.686080824E+01  3.724784908E+01  4.768371582E-07  0.00000E+00  9.000E+00
</event>
<event>
      5  10001  3.52971E+09  5.89531E+00 -1.00000E+00  2.26659E-01
      21    -1     0     0   514   511  0.000000000E+00  0.000000000E+00  2.640860027E+02  2.640860027E+02  0.000000000E+00  0.00000E+00  9.000E+00
      21    -1     0     0   513   512  0.000000000E+00  0.000000000E+00 -2.699452099E+00  2.699452099E+00  0.000000000E+00  0.00000E+00  9.000E+00
      21     1     1     2   514   512  2.227630242E+00  1.066256213E+01  1.077127785E+01  1.531904025E+01  2.064765462E-07  0.00000E+00  9.000E+00
       3     1     1     2   513     0  2.738178159E+00 -1.383625020E+01  1.448658180E+02  1.455516907E+02  5.000000000E-01  0.00000E+00  9.000E+00
      -3     1     1     2     0   511 -4.965808401E+00  3.173688064E+00  1.057494548E+02  1.059147239E+02  5.000000000E-01  0.00000E+00  9.000E+00
</event>
<event>
      5  10001  3.52971E+09  1.95494E+01 -1.00000E+00  1.67186E-01
      21    -1     0     0   515   516  0.000000000E+00  0.000000000E+00  2.744797695E+01  2.744797695E+01  0.000000000E+00  0.00000E+00  9.000E+00
       2    -1     0     0   511     0  0.000000000E+00  0.000000000E+00 -3.955216870E+02  3.955216870E+02  0.000000000E+00  0.00000E+00  9.000E+00
      21     1     1     2   513   516 -8.940878847E+00 -3.707169928E+01  1.112803384E+01  3.972509710E+01  1.215700987E-06  0.00000E+00  9.000E+00
      21     1     1     2   511   513 -9.231923789E+00  2.986579734E+01 -1.507111963E+02  1.539190013E+02  2.697398305E-06  0.00000E+00  9.000E+00
       2     1     1     2   515     0  1.817280264E+01  7.205901945E+00 -2.284905476E+02  2.293255655E+02  3.300000131E-01  0.00000E+00  9.000E+00
</event>
<event>
      5  10001  3.52971E+09  4.89870E+00 -1.00000E+00  2.44311E-01
       1    -1     0     0   513     0  0.000000000E+00  0.000000000E+00  5.242763634E+01  5.242763634E+01  0.000000000E+00  0.00000E+00  9.000E+00
      21    -1     0     0   511   513  0.000000000E+00  0.000000000E+00 -1.628110261E+01  1.628110261E+01  0.000000000E+00  0.00000E+00  9.000E+00
      21     1     1     2   514   512 -1.518175155E+01  5.969102761E+00 -6.552539075E+00  1.757986167E+01  2.920019320E-07  0.00000E+00  9.000E+00
       1     1     1     2   512     0  1.094224377E+01 -3.515093368E+00  4.446061967E+01  4.592324228E+01  3.300000131E-01  0.00000E+00  9.000E+00
      21     1     1     2   511   514  4.239507777E+00 -2.454009393E+00 -1.761546869E+00  5.205634992E+00  8.161702119E-08  0.00000E+00  9.000E+00
</event>
<event>
      5  10001  3.52971E+09  1.10663E+01 -1.00000E+00  1.90800E-01
       3    -1     0     0   513     0  0.000000000E+00  0.000000000E+00  8.411061113E+00  8.411061113E+00  0.000000000E+00  0.00000E+00  9.000E+00
      21    -1     0     0   512   513  0.000000000E+00  0.000000000E+00 -1.226953959E+02  1.226953959E+02  0.000000000E+00  0.00000E+00  9.000E+00
      21     1     1     2   512   516  2.210446621E+00  1.016837549E+01 -7.408594102E+01  7.481315788E+01  1.348699152E-06  0.00000E+00  9.000E+00
       3     1     1     2   515     0  5.551892063E+00 -1.019633683E+01  3.321952223E+00  1.208611422E+01  5.000000000E-01  0.00000E+00  9.000E+00
      21     1     1     2   516   515 -7.762338684E+00  2.796133898E-02 -4.352034597E+01  4.420718491E+01  1.066240300E-06  0.00000E+00  9.000E+00
</event>
<event>
      5  10001  3.52971E+09  2.30685E+00 -1.00000E+00  3.36406E-01
      -1    -1     0     0     0   511  0.000000000E+00  0.000000000E+00  4.012251284E+01  4.012251284E+01  0.000000000E+00  0.00000E+00  9.000E+00
      21    -1     0     0   514   513  0.000000000E+00  0.000000000E+00 -2.222052611E+01  2.222052611E+01  0.000000000E+00  0.00000E+00  9.000E+00
      -1     1     1     2     0   512 -1.085061998E+01 -3.303762862E+00  3.165989912E+01  3.363196270E+01  3.300000131E-01  0.00000E+00  9.000E+00
      21     1     1     2   512   513  9.232816802E+00  1.659412655E+00  4.432319396E+00  1.037516321E+01  1.576990671E-07  0.00000E+00  9.000E+00
      21     1     1     2   514   511  1.617803177E+00  1.644350207E+00 -1.819023178E+01  1.833591304E+01  0.000000000E+00  0.00000E+00  9.000E+00
</event>
<event>
      5  10001  3.52971E+09  1.00411E+01 -1.00000E+00  1.95547E-01
      21    -1     0     0   515   512  0.000000000E+00  0.000000000E+00  5.202992975E+01  5.202992975E+01  0.000000000E+00  0.00000E+00  9.000E+00
      21    -1     0     0   514   511  0.000000000E+00  0.000000000E+00 -1.488635173E+02  1.488635173E+02  0.000000000E+00  0.00000E+00  9.000E+00
      21     1     1     2   515   511 -3.901062055E+00  2.137202311E+01  4.875855176E+01  5.337956563E+01  1.507891493E-06  0.00000E+00  9.000E+00
      21     1     1     2   514   513  2.403978440E+00 -5.547260340E+00 -7.044785717E+01  7.070680158E+01  9.536743164E-07  0.00000E+00  9.000E+00
      21     1     1     2   513   512  1.497083614E+00 -1.582476277E+01 -7.514428215E+01  7.680707986E+01  1.651812370E-06  0.00000E+00  9.000E+00
</event>
<event>
      5  10001  3.52971E+09  7.59391E+00 -1.00000E+00  2.10668E-01
      21    -1     0     0   513   512  0.000000000E+00  0.000000000E+00  1.224857599E+01  1.224857599E+01  0.000000000E+00  0.00000E+00  9.000E+00
      -1    -1     0     0     0   516  0.000000000E+00  0.000000000E+00 -9.566941065E+01  9.566941065E+01  0.000000000E+00  0.00000E+00  9.000E+00
      -1     1     1     2     0   512  1.313957877E+00 -1.014611147E+01 -8.643862643E+01  8.704260510E+01  3.300000131E-01  0.00000E+00  9.000E+00
      21     1     1     2   511   516 -3.884479553E+00  5.222343701E+00  1.001345471E+01  1.194283595E+01  7.152557373E-07  0.00000E+00  9.000E+00
      21     1     1     2   513   511  2.570521677E+00  4.923767771E+00 -6.995662938E+00  8.932545589E+00  1.192092896E-07  0.00000E+00  9.000E+00
</event>
<event>
      5  10001  3.52971E+09  1.86926E+01 -1.00000E+00  1.68825E-01
       2    -1     0     0   514     0  0.000000000E+00  0.000000000E+00  1.857619368E+02  1.857619368E+02  0.000000000E+00  0.00000E+00  9.000E+00
      21    -1     0     0   513   511  0.000000000E+00  0.000000000E+00 -1.050462055E+01  1.050462055E+01  0.000000000E+00  0.00000E+00  9.000E+00
      21     1     1     2   514   512  7.303798450E+00  6.076977386E+00  3.528950011E-01  9.507873623E+00  3.460912980E-07  0.00000E+00  9.000E+00
       2     1     1     2   513     0 -1.136918081E+01  4.390153478E+00  1.751040883E+02  1.755280101E+02  3.300000131E-01  0.00000E+00  9.000E+00
      21     1     1     2   512   511  4.065382355E+00 -1.046713086E+01 -1.996670176E-01  1.123067358E+01  5.016639742E-07  0.00000E+00  9.000E+00
</event>
<event>
      5  10001  3.52971E+09  6.89388E+00 -1.00000E+00  2.16490E-01
       3    -1     0     0   512     0  0.000000000E+00  0.000000000E+00  5.613254420E+00  5.613254420E+00  0.000000000E+00  0.00000E+00  9.000E+00
      21    -1     0     0   515   511  0.000000000E+00  0.000000000E+00 -1.042825607E+02  1.042825607E+02  0.000000000E+00  0.00000E+00  9.000E+00
      21     1     1     2   513   511  6.088015404E+00  4.227435233E+00 -6.474537755E+01  6.516823655E+01  9.536743164E-07  0.00000E+00  9.000E+00
       3     1     1     2   515     0 -1.383648333E+01 -2.611841393E+00 -5.339487888E+00  1.506751862E+01  5.000000000E-01  0.00000E+00  9.000E+00
      21     1     1     2   512   513  7.748467923E+00 -1.615593841E+00 -2.858444082E+01  2.966005994E+01  6.743495762E-07  0.00000E+00  9.000E+00
</event>
<event>
      5  10001  3.52971E+09  6.22837E+00 -1.00000E+00  2.22975E-01
      21    -1     0     0   514   515  0.000000000E+00  0.000000000E+00  2.687420334E+00  2.687420334E+00  0.000000000E+00  0.00000E+00  9.000E+00
      21    -1     0     0   516   513  0.000000000E+00  0.000000000E+00 -4.455494187E+02  4.455494187E+02  0.000000000E+00  0.00000E+00  9.000E+00
      21     1     1     2   514   513 -8.041881695E-01 -8.122717091E+00 -4.050611206E+02  4.051433532E+02  7.629394531E-06  0.00000E+00  9.000E+00
      21     1     1     2   516   511  1.204029067E+00  1.433824158E+01 -2.464860905E+01  2.854100184E+01  1.784161275E-06  0.00000E+00  9.000E+00
      21     1     1     2   511   515 -3.998408975E-01 -6.215524484E+00 -1.315226880E+01  1.455248405E+01  1.685873940E-07  0.00000E+00  9.000E+00
</event>
<event>
      5  10001  3.52971E+09  8.09486E+00 -1.00000E+00  2.06998E-01
      21    -1     0     0   514   513  0.000000000E+00  0.000000000E+00  2.860952937E+01  2.860952937E+01  0.000000000E+00  0.00000E+00  9.000E+00
      21    -1     0     0   517   515  0.000000000E+00  0.000000000E+00 -1.221165472E+02  1.221165472E+02  0.000000000E+00  0.00000E+00  9.000E+00
      21     1     1     2   512   515 -1.836981621E+01  1.077067570E+00 -1.031580302E+02  1.047863990E+02  1.348699152E-06  0.00000E+00  9.000E+00
      21     1     1     2   517   513  1.572155805E+01 -8.726474490E+00 -1.280147395E+01  2.207252771E+01  2.920019320E-07  0.00000E+00  9.000E+00
      21     1     1     2   514   512  2.648258166E+00  7.649406921E+00  2.245248635E+01  2.386714982E+01  3.371747881E-07  0.00000E+00  9.000E+00
</event>
<event>
      5  10001  3.52971E+09  1.63212E+01 -1.00000E+00  1.73994E-01
      21    -1     0     0   512   513  0.000000000E+00  0.000000000E+00  3.000374854E-01  3.000374854E-01  0.000000000E+00  0.00000E+00  9.000E+00
      21    -1     0     0   511   512  0.000000000E+00  0.000000000E+00 -9.026320621E+02  9.026320621E+02  0.000000000E+00  0.00000E+00  9.000E+00
      -1     1     1     2     0   513 -8.176839436E+00  2.623780415E+00 -1.206496875E+02  1.209553674E+02  3.300000131E-01  0.00000E+00  9.000E+00
       1     1     1     2   515     0  1.031254839E+01  6.200150906E+00 -5.124789757E+02  5.126203273E+02  3.300000131E-01  0.00000E+00  9.000E+00
      21     1     1     2   511   515 -2.135708951E+00 -8.823931321E+00 -2.692033615E+02  2.693564048E+02  0.000000000E+00  0.00000E+00  9.000E+00
</event>
<event>
      5  10001  3.52971E+09  4.94173E+00 -1.00000E+00  2.43550E-01
      21    -1     0     0   514   512  0.000000000E+00  0.000000000E+00  7.916398452E+02  7.916398452E+02  0.000000000E+00  0.00000E+00  9.000E+00
      21    -1     0     0   511   516  0.000000000E+00  0.000000000E+00 -8.008796845E-01  8.008796845E-01  0.000000000E+00  0.00000E+00  9.000E+00
      21     1     1     2   514   516  5.348667891E+00  1.205987745E+01  6.147773675E+01  6.287734893E+01  2.611744678E-06  0.00000E+00  9.000E+00
      21     1     1     2   511   513 -5.008781195E-01 -1.110091108E+01  6.080587068E+02  6.081602354E+02  7.629394531E-06  0.00000E+00  9.000E+00
      21     1     1     2   513   512 -4.847789771E+00 -9.589663669E-01  1.213025219E+02  1.214031405E+02  2.336015456E-06  0.00000E+00  9.000E+00
</event>
<event>
      5  10001  3.52971E+09  7.59967E+00 -1.00000E+00  2.10624E-01
      21    -1     0     0   515   514  0.000000000E+00  0.000000000E+00  6.963350585E+01  6.963350585E+01  0.000000000E+00  0.00000E+00  9.000E+00
      21    -1     0     0   512   515  0.000000000E+00  0.000000000E+00 -1.064620278E+01  1.064620278E+01  0.000000000E+00  0.00000E+00  9.000E+00
      21     1     1     2   512   517 -8.945594015E+00 -8.266683620E+00 -5.207965144E+00  1.324706048E+01  1.685873940E-07  0.00000E+00  9.000E+00
      21     1     1     2   517   511  9.780896785E+00  7.130574660E-01  2.103919138E+01  2.321253900E+01  2.384185791E-07  0.00000E+00  9.000E+00
      21     1     1     2   511   514 -8.353027700E-01  7.553626154E+00  4.315607683E+01  4.382010916E+01  0.000000000E+00  0.00000E+00  9.000E+00
</event>
<event>
      5  10001  3.52971E+09  8.64690E+00 -1.00000E+00  2.03346E-01
      21    -1     0     0   513   516  0.000000000E+00  0.000000000E+00  2.676644579E+01  2.676644579E+01  0.000000000E+00  0.00000E+00  9.000E+00
      21    -1     0     0   512   514  0.000000000E+00  0.000000000E+00 -1.694064032E+01  1.694064032E+01  0.000000000E+00  0.00000E+00  9.000E+00
      21     1     1     2   513   514  1.141749727E+01 -1.021022005E+01 -7.594234072E+00  1.709620509E+01  3.576278687E-07  0.00000E+00  9.000E+00
      21     1     1     2   512   515 -4.985488213E+00  7.643338695E+00  1.744263121E+01  1.968555569E+01  0.000000000E+00  0.00000E+00  9.000E+00
      21     1     1     2   515   516 -6.432009055E+00  2.566881359E+00 -2.259167277E-02  6.925325320E+00  1.414296202E-07  0.00000E+00  9.000E+00
</event>
<event>
      5  10001  3.52971E+09  5.71485E+00 -1.00000E+00  2.28800E-01
      21    -1     0     0   511   512  0.000000000E+00  0.000000000E+00  6.623525449E+00  6.623525449E+00  0.000000000E+00  0.00000E+00  9.000E+00
      21    -1     0     0   517   516  0.000000000E+00  0.000000000E+00 -2.551635421E+01  2.551635421E+01  0.000000000E+00  0.00000E+00  9.000E+00
      21     1     1     2   511   516 -5.104678511E+00  7.940339941E+00 -1.390915180E+01  1.680985558E+01  0.000000000E+00  0.00000E+00  9.000E+00
      21     1     1     2   513   512  7.577187512E+00 -6.638768205E+00 -5.496836318E-01  1.008906170E+01  2.477808170E-07  0.00000E+00  9.000E+00
      21     1     1     2   517   513 -2.472509001E+00 -1.301571736E+00 -4.433993336E+00  5.240962378E+00  1.032382731E-07  0.00000E+00  9.000E+00
</event>
<event>
      5  10001  3.52971E+09  5.02000E+00 -1.00000E+00  2.38207E-01
      21    -1     0     0   514   513  0.000000000E+00  0.000000000E+00  1.006570095E+03  1.006570095E+03  0.000000000E+00  0.00000E+00  9.000E+00
      21    -1     0     0   511   515  0.000000000E+00  0.000000000E+00 -3.357657003E+01  3.357657003E+01  0.000000000E+00  0.00000E+00  9.000E+00
      21     1     1     2   514   515 -5.666347194E-01  1.484209728E+01  9.845915193E+02  9.847035436E+02  1.868812365E-05  0.00000E+00  9.000E+00
      21     1     1     2   517   513  5.693423410E-01 -9.822095853E+00  2.061442052E+01  2.284189246E+01  2.419684306E-06  0.00000E+00  9.000E+00
      21     1     1     2   511   517 -2.707621555E-03 -5.020001425E+00 -3.221241514E+01  3.260122867E+01  2.286830675E-06  0.00000E+00  9.000E+00
</event>
<event>
      5  10001  3.52971E+09  6.38486E+00 -1.00000E+00  2.21353E-01
       1    -1     0     0   511     0  0.000000000E+00  0.000000000E+00  8.639231298E+01  8.639231298E+01  0.000000000E+00  0.00000E+00  9.000E+00
      21    -1     0     0   512   516  0.000000000E+00  0.000000000E+00 -2.246079340E+00  2.246079340E+00  0.000000000E+00  0.00000E+00  9.000E+00
      21     1     1     2   511   513  9.384391160E+00  8.067986566E+00  3.764504785E+01  3.962712244E+01  0.000000000E+00  0.00000E+00  9.000E+00
       1     1     1     2   512     0 -8.988236968E+00 -6.472093755E+00  4.596492801E+01  4.728170797E+01  3.300000131E-01  0.00000E+00  9.000E+00
      21     1     1     2   513   516 -3.961541919E-01 -1.595892811E+00  5.362577704E-01  1.729561911E+00  4.998001406E-08  0.00000E+00  9.000E+00
</event>
<event>
      5  10001  3.52971E+09  5.23972E+00 -1.00000E+00  2.35010E-01
      21    -1     0     0   512   515  0.000000000E+00  0.000000000E+00  2.453663466E+00  2.453663466E+00  0.000000000E+00  0.00000E+00  9.000E+00
      -5    -1     0     0     0   514  0.000000000E+00  0.000000000E+00 -2.394438205E+02  2.394438205E+02  0.000000000E+00  0.00000E+00  9.000E+00
      -5     1     1     2     0   511  1.154050327E+01 -2.664060930E+00 -1.196011918E+02  1.202820250E+02  4.800000191E+00  0.00000E+00  9.000E+00
      21     1     1     2   511   515 -1.326279054E+01  7.525375477E+00 -1.148664692E+02  1.158742362E+02  2.336015456E-06  0.00000E+00  9.000E+00
      21     1     1     2   512   514  1.722287269E+00 -4.861314547E+00 -2.522496039E+00  5.741222764E+00  7.884953353E-08  0.00000E+00  9.000E+00
</event>
<event>
      5  10001  3.52971E+09  1.47212E+01 -1.00000E+00  1.78151E-01
      21    -1     0     0   514   515  0.000000000E+00  0.000000000E+00  5.405409959E-01  5.405409959E-01  0.000000000E+00  0.00000E+00  9.000E+00
      -3    -1     0     0     0   513  0.000000000E+00  0.000000000E+00 -3.474521871E+02  3.474521871E+02  0.000000000E+00  0.00000E+00  9.000E+00
      -3     1     1     2     0   515  8.445345803E+00 -2.305639957E+00 -8.043917252E+01  8.091569883E+01  5.000000000E-01  0.00000E+00  9.000E+00
      21     1     1     2   514   511 -8.371202060E+00 -2.870517757E+00 -7.287694695E+01  7.341230342E+01  1.651812370E-06  0.00000E+00  9.000E+00
      21     1     1     2   511   513 -7.414374285E-02  5.176157713E+00 -1.935955266E+02  1.936647259E+02  0.000000000E+00  0.00000E+00  9.000E+00
</event>
<event>
      5  10001  3.52971E+09  1.22417E+01 -1.00000E+00  1.86118E-01
      21    -1     0     0   512   513  0.000000000E+00  0.000000000E+00  7.060367520E-01  7.060367520E-01  0.000000000E+00  0.00000E+00  9.000E+00
      21    -1     0     0   515   516  0.000000000E+00  0.000000000E+00 -4.046293323E+02  4.046293323E+02  0.000000000E+00  0.00000E+00  9.000E+00
      21     1     1     2   512   516  6.873142441E+00  1.431467492E+01 -1.536696941E+02  1.544879441E+02  1.907348633E-06  0.00000E+00  9.000E+00
      21     1     1     2   514   513 -2.858891194E+00 -1.466119864E+00 -7.912979137E+01  7.919499131E+01  1.651812370E-06  0.00000E+00  9.000E+00
      21     1     1     2   515   514 -4.014251247E+00 -1.284855505E+01 -1.711238101E+02  1.716524336E+02  3.814697266E-06  0.00000E+00  9.000E+00
</event>
<event>
      5  10001  3.52971E+09  8.63350E+00 -1.00000E+00  2.03430E-01
      21    -1     0     0   511   514  0.000000000E+00  0.000000000E+00  2.897697802E+01  2.897697802E+01  0.000000000E+00  0.00000E+00  9.000E+00
      21    -1     0     0   515   511  0.000000000E+00  0.000000000E+00 -2.815937063E+01  2.815937063E+01  0.000000000E+00  0.00000E+00  9.000E+00
      21     1     1     2   515   517  2.921149958E+00  1.210021326E+01 -2.292363884E+01  2.608527354E+01  0.000000000E+00  0.00000E+00  9.000E+00
      21     1     1     2   512   514  3.192505527E+00 -1.263964825E+01  1.996694307E+01  2.384599788E+01  2.384185791E-07  0.00000E+00  9.000E+00
      21     1     1     2   517   512 -6.113655485E+00  5.394349871E-01  3.774303158E+00  7.205077226E+00  1.576990671E-07  0.00000E+00  9.000E+00
</event>
<event>
      5  10001  3.52971E+09  5.32786E+00 -1.00000E+00  2.33789E-01
       1    -1     0     0   511     0  0.000000000E+00  0.000000000E+00  2.640356468E+02  2.640356468E+02  0.000000000E+00  0.00000E+00  9.000E+00
      21    -1     0     0   514   511  0.000000000E+00  0.000000000E+00 -3.605740732E+01  3.605740732E+01  0.000000000E+00  0.00000E+00  9.000E+00
      21     1     1     2   512   513 -5.927854737E+00  1.314177030E+01 -1.505299028E+01  2.084317885E+01  1.625797951E-06  0.00000E+00  9.000E+00
       1     1     1     2   513     0  1.665376611E+00 -9.945332990E+00  2.606489634E+02  2.608441568E+02  3.300000131E-01  0.00000E+00  9.000E+00
      21     1     1     2   514   512  4.262478125E+00 -3.196437306E+00 -1.761773366E+01  1.840571842E+01  4.768371582E-07  0.00000E+00  9.000E+00
</event>
<event>
      5  10001  3.52971E+09  7.88384E+00 -1.00000E+00  2.08499E-01
      -4    -1     0     0     0   512  0.000000000E+00  0.000000000E+00  8.150001159E+02  8.150001159E+02  0.000000000E+00  0.00000E+00  9.000E+00
      -3    -1     0     0     0   511  0.000000000E+00  0.000000000E+00 -3.935480824E+01  3.935480824E+01  0.000000000E+00  0.00000E+00  9.000E+00
      -4     1     1     2     0   511 -1.804705145E+00 -9.957311587E+00  7.683196300E+02  7.683877334E+02  1.500000000E+00  0.00000E+00  9.000E+00
      21     1     1     2   515   512  9.020463823E+00  1.313302810E+01  4.486276044E+01  4.760790343E+01  2.132480600E-06  0.00000E+00  9.000E+00
      -3     1     1     2     0   515 -7.215758678E+00 -3.175716518E+00 -3.753708271E+01  3.835928736E+01  5.000000000E-01  0.00000E+00  9.000E+00
</event>
<event>
      5  10001  3.52971E+09  9.29164E+00 -1.00000E+00  1.99515E-01
      21    -1     0     0   513   512  0.000000000E+00  0.000000000E+00  1.339334924E+00  1.339334924E+00  0.000000000E+00  0.00000E+00  9.000E+00
      21    -1     0     0   514   513  0.000000000E+00  0.000000000E+00 -9.108355436E+01  9.108355436E+01  0.000000000E+00  0.00000E+00  9.000E+00
      21     1     1     2   515   512  1.906131900E+00  8.916150512E+00 -2.588442686E+01  2.744329850E+01  6.743495762E-07  0.00000E+00  9.000E+00
      21     1     1     2   514   511 -4.182600413E+00 -2.081159844E+00 -3.003158147E+01  3.039278300E+01  3.371747881E-07  0.00000E+00  9.000E+00
      21     1     1     2   511   515  2.276468513E+00 -6.834990668E+00 -3.382821110E+01  3.458680779E+01  4.768371582E-07  0.00000E+00  9.000E+00
</event>
<event>
      5  10001  3.52971E+09  9.25412E+00 -1.00000E+00  1.99726E-01
      21    -1     0     0   516   514  0.000000000E+00  0.000000000E+00  2.039210620E+01  2.039210620E+01  0.000000000E+00  0.00000E+00  9.000E+00
      21    -1     0     0   512   515  0.000000000E+00  0.000000000E+00 -5.265656729E+00  5.265656729E+00  0.000000000E+00  0.00000E+00  9.000E+00
      21     1     1     2   516   515  2.834588226E+00 -7.447187851E+00  5.853910512E+00  9.887556097E+00  1.460009660E-07  0.00000E+00  9.000E+00
      21     1     1     2   512   513  2.875765551E+00  6.163790348E+00  5.969388694E+00  9.049637580E+00  1.192092896E-07  0.00000E+00  9.000E+00
      21     1     1     2   513   514 -5.710353778E+00  1.283397503E+00  3.303150269E+00  6.720569255E+00  4.214684851E-08  0.00000E+00  9.000E+00
</event>
<event>
      5  10001  3.52971E+09  3.28277E+00 -1.00000E+00  2.85471E-01
      21    -1     0     0   511   512  0.000000000E+00  0.000000000E+00  2.242897125E+00  2.242897125E+00  0.000000000E+00  0.00000E+00  9.000E+00
      21    -1     0     0   517   514  0.000000000E+00  0.000000000E+00 -5.410347848E+02  5.410347848E+02  0.000000000E+00  0.00000E+00  9.000E+00
      21     1     1     2   511   514  9.214487289E+00 -5.230686942E+00 -5.228007759E+02  5.229081355E+02  0.000000000E+00  0.00000E+00  9.000E+00
      21     1     1     2   517   515 -6.547365879E+00  1.999801127E+00 -4.640721832E+00  8.270641065E+00  4.842304232E-07  0.00000E+00  9.000E+00
      21     1     1     2   515   512 -2.667121410E+00  3.230885815E+00 -1.135038996E+01  1.209890541E+01  0.000000000E+00  0.00000E+00  9.000E+00
</event>
<event>
      5  10001  3.52971E+09  6.12993E+00 -1.00000E+00  2.24030E-01
       3    -1     0     0   513     0  0.000000000E+00  0.000000000E+00  1.473348882E+02  1.473348882E+02  0.000000000E+00  0.00000E+00  9.000E+00
      21    -1     0     0   512   513  0.000000000E+00  0.000000000E+00 -1.502112954E+01  1.502112954E+01  0.000000000E+00  0.00000E+00  9.000E+00
      21     1     1     2   512   516  1.362436438E+01 -2.985092661E-01 -7.951464582E+00  1.577777556E+01  3.475518164E-07  0.00000E+00  9.000E+00
      21     1     1     2   516   514 -1.363664532E+01 -5.831206131E+00  1.476577048E+01  2.092818766E+01  3.371747881E-07  0.00000E+00  9.000E+00
       3     1     1     2   514     0  1.228094038E-02  6.129715397E+00  1.254994527E+02  1.256500545E+02  5.000000000E-01  0.00000E+00  9.000E+00
</event>
<event>
      5  10001  3.52971E+09  7.21591E+00 -1.00000E+00  2.13700E-01
      21    -1     0     0   511   516  0.000000000E+00  0.000000000E+00  5.750551034E+01  5.750551034E+01  0.000000000E+00  0.00000E+00  9.000E+00
      21    -1     0     0   515   511  0.000000000E+00  0.000000000E+00 -2.912841840E+01  2.912841840E+01  0.000000000E+00  0.00000E+00  9.000E+00
      21     1     1     2   515   512 -4.280596058E+00 -1.074088481E+01 -2.561209029E+01  2.810105475E+01  4.768371582E-07  0.00000E+00  9.000E+00
      21     1     1     2   513   516  4.050895936E+00  5.532334814E+00  5.272392446E+01  5.316792921E+01  1.784161275E-06  0.00000E+00  9.000E+00
      21     1     1     2   512   513  2.297001224E-01  5.208549998E+00  1.265257761E+00  5.364944774E+00  7.742870484E-08  0.00000E+00  9.000E+00
</event>
<event>
      5  10001  3.52971E+09  8.80369E+00 -1.00000E+00  2.02374E-01
      21    -1     0     0   511   515  0.000000000E+00  0.000000000E+00  2.011562652E+01  2.011562652E+01  0.000000000E+00  0.00000E+00  9.000E+00
      21    -1     0     0   512   511  0.000000000E+00  0.000000000E+00 -1.177753209E+02  1.177753209E+02  0.000000000E+00  0.00000E+00  9.000E+00
      21     1     1     2   512   514  6.990955211E-01  1.411550524E+01 -1.075585344E+02  1.084830611E+02  2.697398305E-06  0.00000E+00  9.000E+00
       5     1     1     2   514     0 -8.954568302E+00 -1.140309605E+01  1.180014824E+01  1.930021745E+01  4.800000191E+00  0.00000E+00  9.000E+00
      -5     1     1     2     0   515  8.255472781E+00 -2.712409187E+00 -1.901308167E+00  1.010766882E+01  4.800000191E+00  0.00000E+00  9.000E+00
</event>
<event>
      5  10001  3.52971E+09  6.43776E+00 -1.00000E+00  2.20819E-01
      21    -1     0     0   513   514  0.000000000E+00  0.000000000E+00  1.740427739E+01  1.740427739E+01  0.000000000E+00  0.00000E+00  9.000E+00
      21    -1     0     0   515   513  0.000000000E+00  0.000000000E+00 -8.089263210E+01  8.089263210E+01  0.000000000E+00  0.00000E+00  9.000E+00
      21     1     1     2   515   512 -1.340163098E+01  1.329714932E+01 -7.336839315E+01  7.575842532E+01  1.651812370E-06  0.00000E+00  9.000E+00
      21     1     1     2   512   511  9.296982938E+00 -4.385758861E+00  6.495811936E+00  1.215994841E+01  4.915124924E-07  0.00000E+00  9.000E+00
      21     1     1     2   511   514  4.104648043E+00 -8.911390462E+00  3.384226508E+00  1.037853576E+01  5.075152625E-07  0.00000E+00  9.000E+00
</event>
<event>
      5  10001  3.52971E+09  1.07559E+01 -1.00000E+00  1.92164E-01
      21    -1     0     0   516   512  0.000000000E+00  0.000000000E+00  1.701223431E+00  1.701223431E+00  0.000000000E+00  0.00000E+00  9.000E+00
      21    -1     0     0   515   514  0.000000000E+00  0.000000000E+00 -5.563337878E+02  5.563337878E+02  0.000000000E+00  0.00000E+00  9.000E+00
      21     1     1     2   516   514 -8.953159189E+00  9.187533426E+00 -2.477621807E+01  2.790037296E+01  1.118282261E-06  0.00000E+00  9.000E+00
      21     1     1     2   513   512  1.000604883E+01 -2.885261757E+00 -2.723261241E+02  2.725251614E+02  3.814697266E-06  0.00000E+00  9.000E+00
      21     1     1     2   515   513 -1.052889645E+00 -6.302271669E+00 -2.575302222E+02  2.576094769E+02  0.000000000E+00  0.00000E+00  9.000E+00
</event>
<event>
      5  10001  3.52971E+09  5.70603E+00 -1.00000E+00  2.28908E-01
      21    -1     0     0   511   513  0.000000000E+00  0.000000000E+00  2.069729749E+01  2.069729749E+01  0.000000000E+00  0.00000E+00  9.000E+00
      21    -1     0     0   512   517  0.000000000E+00  0.000000000E+00 -7.823281567E+01  7.823281567E+01  0.000000000E+00  0.00000E+00  9.000E+00
      21     1     1     2   511   517  1.588625584E+01 -7.169618420E+00 -6.897707037E+01  7.114501240E+01  9.536743164E-07  0.00000E+00  9.000E+00
      21     1     1     2   515   513 -1.109029539E+01  4.078089742E+00  1.640829420E+01  2.022022716E+01  2.384185791E-07  0.00000E+00  9.000E+00
      21     1     1     2   512   515 -4.795960453E+00  3.091528678E+00 -4.966742024E+00  7.564873599E+00  5.960464478E-08  0.00000E+00  9.000E+00
</event>
<event>
      5  10001  3.52971E+09  4.90640E+00 -1.00000E+00  2.44174E-01
      21    -1     0     0   514   513  0.000000000E+00  0.000000000E+00  2.041119602E+00  2.041119602E+00  0.000000000E+00  0.00000E+00  9.000E+00
      21    -1     0     0   512   511  0.000000000E+00  0.000000000E+00 -3.531493776E+02  3.531493776E+02  0.000000000E+00  0.00000E+00  9.000E+00
      21     1     1     2   515   513 -3.667282335E+00  1.882656191E+01 -5.192982235E+01  5.535878289E+01  6.743495762E-07  0.00000E+00  9.000E+00
      21     1     1     2   512   515  4.723759694E+00 -1.403526025E+01 -2.135815287E+02  2.140943059E+02  0.000000000E+00  0.00000E+00  9.000E+00
      21     1     1     2   514   511 -1.056477359E+00 -4.791301654E+00 -8.559690701E+01  8.573740843E+01  0.000000000E+00  0.00000E+00  9.000E+00
</event>
<event>
      5  10001  3.52971E+09  1.34656E+01 -1.00000E+00  1.81912E-01
      21    -1     0     0   516   511  0.000000000E+00  0.000000000E+00  4.477964373E+01  4.477964373E+01  0.000000000E+00  0.00000E+00  9.000E+00
      21    -1     0     0   513   517  0.000000000E+00  0.000000000E+00 -1.393822578E+01  1.393822578E+01  0.000000000E+00  0.00000E+00  9.000E+00
      21     1     1     2   516   517  3.217989580E+00  9.054784794E+00 -1.103040428E+01  1.462923112E+01  2.384185791E-07  0.00000E+00  9.000E+00
      21     1     1     2   513   512 -3.952533007E+00  5.862497238E-01  1.526905717E+01  1.578322885E+01  2.920019320E-07  0.00000E+00  9.000E+00
      21     1     1     2   512   511  7.345434276E-01 -9.641034517E+00  2.660276506E+01  2.830540954E+01  3.371747881E-07  0.00000E+00  9.000E+00
</event>
<event>
      5  10001  3.52971E+09  7.59650E+00 -1.00000E+00  2.10648E-01
      21    -1     0     0   514   516  0.000000000E+00  0.000000000E+00  1.553048870E+01  1.553048870E+01  0.000000000E+00  0.00000E+00  9.000E+00
      21    -1     0     0   515   511  0.000000000E+00  0.000000000E+00 -5.490980546E+01  5.490980546E+01  0.000000000E+00  0.00000E+00  9.000E+00
      21     1     1     2   514   511 -1.264755900E+01 -2.231264336E+01 -2.026685309E+01  3.268883810E+01  3.371747881E-07  0.00000E+00  9.000E+00
      21     1     1     2   515   513  1.256527319E+01  1.471658976E+01 -2.228932991E+01  2.951742422E+01  2.384185791E-07  0.00000E+00  9.000E+00
      21     1     1     2   513   516  8.228580566E-02  7.596053598E+00  3.176866241E+00  8.234031839E+00  1.519626234E-07  0.00000E+00  9.000E+00
</event>
<event>
      5  10001  3.52971E+09  2.31764E+01 -1.00000E+00  1.61252E-01
      21    -1     0     0   512   511  0.000000000E+00  0.000000000E+00  2.926767295E+02  2.926767295E+02  0.000000000E+00  0.00000E+00  9.000E+00
      21    -1     0     0   517   516  0.000000000E+00  0.000000000E+00 -8.266254261E+00  8.266254261E+00  0.000000000E+00  0.00000E+00  9.000E+00
      21     1     1     2   512   516  2.031649310E+01  2.896273368E+01  2.251760888E+02  2.279383048E+02  2.697398305E-06  0.00000E+00  9.000E+00
      21     1     1     2   514   511 -1.381245510E+01 -2.204786406E+01  5.782395276E+01  6.340742652E+01  6.743495762E-07  0.00000E+00  9.000E+00
      21     1     1     2   517   514 -6.504038003E+00 -6.914869622E+00  1.410433760E+00  9.597252504E+00  5.533529707E-07  0.00000E+00  9.000E+00
</event>
<event>
      5  10001  3.52971E+09  4.11227E+00 -1.00000E+00  2.60661E-01
      21    -1     0     0   513   514  0.000000000E+00  0.000000000E+00  1.274924584E+01  1.274924584E+01  0.000000000E+00  0.00000E+00  9.000E+00
      21    -1     0     0   517   511  0.000000000E+00  0.000000000E+00 -1.955327788E+01  1.955327788E+01  0.000000000E+00  0.00000E+00  9.000E+00
      21     1     1     2   513   515  9.132248895E+00  2.262392199E+00  4.334154403E+00  1.035863325E+01  3.674277069E-07  0.00000E+00  9.000E+00
      21     1     1     2   517   514 -1.321719885E+01 -2.735634253E+00 -4.676285918E+00  1.428445625E+01  3.371747881E-07  0.00000E+00  9.000E+00
      21     1     1     2   515   511  4.084949958E+00  4.732420531E-01 -6.461900525E+00  7.659434222E+00  1.192092896E-07  0.00000E+00  9.000E+00
</event>
<event>
      5  10001  3.52971E+09  1.16326E+01 -1.00000E+00  1.88455E-01
       1    -1     0     0   511     0  0.000000000E+00  0.000000000E+00  2.013936840E+02  2.013936840E+02  0.000000000E+00  0.00000E+00  9.000E+00
       3    -1     0     0   512     0  0.000000000E+00  0.000000000E+00 -2.862096218E+00  2.862096218E+00  0.000000000E+00  0.00000E+00  9.000E+00
       1     1     1     2   512     0 -2.947125598E-01  9.794816365E+00  1.736899580E+02  1.739664786E+02  3.300000131E-01  0.00000E+00  9.000E+00
       3     1     1     2   513     0 -6.350798809E+00 -4.309425309E+00  6.679700592E+00  1.018686370E+01  5.000000000E-01  0.00000E+00  9.000E+00
      21     1     1     2   511   513  6.645511369E+00 -5.485391056E+00  1.816192916E+01  2.010243785E+01  2.384185791E-07  0.00000E+00  9.000E+00
</event>
<event>
      5  10001  3.52971E+09  4.78486E+00 -1.00000E+00  2.46381E-01
      21    -1     0     0   511   514  0.000000000E+00  0.000000000E+00  1.659685891E+01  1.659685891E+01  0.000000000E+00  0.00000E+00  9.000E+00
      -2    -1     0     0     0   511  0.000000000E+00  0.000000000E+00 -2.073546199E+02  2.073546199E+02  0.000000000E+00  0.00000E+00  9.000E+00
      -2     1     1     2     0   512  3.525568289E-01  1.532650503E+01 -1.988096953E+02  1.994001753E+02  3.300000131E-01  0.00000E+00  9.000E+00
       4     1     1     2   512     0 -4.925517257E+00 -1.392895390E+01 -2.520456433E-01  1.485227268E+01  1.500000000E+00  0.00000E+00  9.000E+00
      -4     1     1     2     0   514  4.572960428E+00 -1.397551131E+00  8.303979965E+00  9.699030853E+00  1.500000000E+00  0.00000E+00  9.000E+00
</event>
<event>
      5  10001  3.52971E+09  1.18340E+01 -1.00000E+00  1.87662E-01
      21    -1     0     0   511   516  0.000000000E+00  0.000000000E+00  3.122283589E+01  3.122283589E+01  0.000000000E+00  0.00000E+00  9.000E+00
      21    -1     0     0   514   513  0.000000000E+00  0.000000000E+00 -1.511836891E+03  1.511836891E+03  0.000000000E+00  0.00000E+00  9.000E+00
      21     1     1     2   515   516  6.433590611E+00  1.284650033E+01  2.858718240E+01  3.199454104E+01  5.309833873E-06  0.00000E+00  9.000E+00
      21     1     1     2   514   515  4.918871041E+00 -9.504985212E+00 -1.471746260E+03  1.471785173E+03  0.000000000E+00  0.00000E+00  9.000E+00
      21     1     1     2   511   513 -1.135246165E+01 -3.341515115E+00 -3.745497693E+01  3.928001280E+01  4.768371582E-07  0.00000E+00  9.000E+00
</event>
<event>
      5  10001  3.52971E+09  1.04837E+01 -1.00000E+00  1.93411E-01
      21    -1     0     0   512   514  0.000000000E+00  0.000000000E+00  1.150064282E+02  1.150064282E+02  0.000000000E+00  0.00000E+00  9.000E+00
      21    -1     0     0   516   517  0.000000000E+00  0.000000000E+00 -2.912445546E+01  2.912445546E+01  0.000000000E+00  0.00000E+00  9.000E+00
      21     1     1     2   512   517  3.961324717E+00  1.070407795E+01 -4.068815843E+00  1.211712179E+01  8.429369702E-08  0.00000E+00  9.000E+00
      21     1     1     2   516   513 -1.254723829E+01 -1.671989703E+01 -1.551214507E+01  2.603103513E+01  4.768371582E-07  0.00000E+00  9.000E+00
      21     1     1     2   513   514  8.585913572E+00  6.015819079E+00  1.054629337E+02  1.059827267E+02  0.000000000E+00  0.00000E+00  9.000E+00
</event>
<event>
      5  10001  3.52971E+09  1.02327E+01 -1.00000E+00  1.94605E-01
      21    -1     0     0   511   516  0.000000000E+00  0.000000000E+00  4.353022124E+00  4.353022124E+00  0.000000000E+00  0.00000E+00  9.000E+00
      21    -1     0     0   514   512  0.000000000E+00  0.000000000E+00 -1.874080673E+03  1.874080673E+03  0.000000000E+00  0.00000E+00  9.000E+00
      21     1     1     2   514   515  2.216642113E+01 -1.413768446E+00 -2.477018571E+02  2.486957156E+02  3.814697266E-06  0.00000E+00  9.000E+00
      21     1     1     2   515   516 -1.195884022E+01  2.130024707E+00 -5.766536695E+00  1.344633073E+01  3.576278687E-07  0.00000E+00  9.000E+00
      21     1     1     2   511   512 -1.020758091E+01 -7.162562614E-01 -1.616259257E+03  1.616291649E+03  2.157918644E-05  0.00000E+00  9.000E+00
</event>
<event>
      5  10001  3.52971E+09  2.69746E+01 -1.00000E+00  1.56314E-01
      21    -1     0     0   513   512  0.000000000E+00  0.000000000E+00  7.806859273E+01  7.806859273E+01  0.000000000E+00  0.00000E+00  9.000E+00
      21    -1     0     0   514   517  0.000000000E+00  0.000000000E+00 -5.477887238E+00  5.477887238E+00  0.000000000E+00  0.00000E+00  9.000E+00
      21     1     1     2   513   517 -5.928244275E+00  8.243350721E+00  1.947180096E+01  2.196014444E+01  3.371747881E-07  0.00000E+00  9.000E+00
      21     1     1     2   515   512  3.541893736E+00 -7.517555450E+00 -9.827511072E-02  8.310734575E+00  2.582132777E-07  0.00000E+00  9.000E+00
      21     1     1     2   514   515  2.386350538E+00 -7.257952709E-01  5.321717964E+01  5.327560095E+01  9.536743164E-07  0.00000E+00  9.000E+00
</event>
<event>
      5  10001  3.52971E+09  1.21907E+01 -1.00000E+00  1.86307E-01
      21    -1     0     0   511   515  0.000000000E+00  0.000000000E+00  4.970311885E+02  4.970311885E+02  0.000000000E+00  0.00000E+00  9.000E+00
      21    -1     0     0   514   511  0.000000000E+00  0.000000000E+00 -1.683762225E+00  1.683762225E+00  0.000000000E+00  0.00000E+00  9.000E+00
      21     1     1     2   514   516 -3.990636863E+00 -1.113515113E+01  2.554533958E+01  2.815104168E+01  8.259061849E-07  0.00000E+00  9.000E+00
      21     1     1     2   516   512  3.440459900E+00  6.470905791E+00  4.544591380E+02  4.545182257E+02  0.000000000E+00  0.00000E+00  9.000E+00
      21     1     1     2   512   515  5.501769632E-01  4.664245338E+00  1.534294868E+01  1.604568333E+01  3.769728732E-07  0.00000E+00  9.000E+00
</event>
<event>
      5  10001  3.52971E+09  1.44228E+01 -1.00000E+00  1.79000E-01
      -2    -1     0     0     0   513  0.000000000E+00  0.000000000E+00  1.199434635E+01  1.199434635E+01  0.000000000E+00  0.00000E+00  9.000E+00
      21    -1     0     0   512   511  0.000000000E+00  0.000000000E+00 -1.506506362E+02  1.506506362E+02  0.000000000E+00  0.00000E+00  9.000E+00
      -2     1     1     2     0   511  1.502448557E+01 -9.556124711E+00  3.904098623E+00  1.823199310E+01  3.300000131E-01  0.00000E+00  9.000E+00
      21     1     1     2   514   513 -1.148699690E+01  1.034790975E+01 -6.679534408E+01  6.856127424E+01  0.000000000E+00  0.00000E+00  9.000E+00
      21     1     1     2   512   514 -3.537488674E+00 -7.917850428E-01 -7.576504438E+01  7.585171520E+01  0.000000000E+00  0.00000E+00  9.000E+00
</event>
<event>
      5  10001  3.52971E+09  7.75107E+00 -1.00000E+00  2.09477E-01
      21    -1     0     0   515   511  0.000000000E+00  0.000000000E+00  1.200140215E+02  1.200140215E+02  0.000000000E+00  0.00000E+00  9.000E+00
       2    -1     0     0   512     0  0.000000000E+00  0.000000000E+00 -3.740465456E+01  3.740465456E+01  0.000000000E+00  0.00000E+00  9.000E+00
      21     1     1     2   515   516  1.423908905E+01 -4.647766367E+00  7.430312242E+01  7.579780597E+01  1.651812370E-06  0.00000E+00  9.000E+00
      21     1     1     2   512   511 -7.995423852E+00  9.240688080E+00  4.370544050E+01  4.538152320E+01  4.768371582E-07  0.00000E+00  9.000E+00
       2     1     1     2   516     0 -6.243665203E+00 -4.592921713E+00 -3.539919599E+01  3.623934687E+01  3.300000131E-01  0.00000E+00  9.000E+00
</event>
<event>
      5  10001  3.52971E+09  4.58042E+00 -1.00000E+00  2.50326E-01
      21    -1     0     0   513   511  0.000000000E+00  0.000000000E+00  2.641505773E+01  2.641505773E+01  0.000000000E+00  0.00000E+00  9.000E+00
      21    -1     0     0   514   513  0.000000000E+00  0.000000000E+00 -1.688052437E+01  1.688052437E+01  0.000000000E+00  0.00000E+00  9.000E+00
      21     1     1     2   512   511 -7.890971396E+00 -1.446287530E+01 -6.015560686E+00  1.753936036E+01  1.192092896E-07  0.00000E+00  9.000E+00
      21     1     1     2   515   512  5.627060662E+00  1.598928009E+01  1.558386834E+01  2.302559102E+01  2.920019320E-07  0.00000E+00  9.000E+00
      21     1     1     2   514   515  2.263910734E+00 -1.526404789E+00 -3.377428799E-02  2.730630714E+00  1.817272632E-08  0.00000E+00  9.000E+00
</event>
<event>
      5  10001  3.52971E+09  6.92444E+00 -1.00000E+00  2.16216E-01
      -2    -1     0     0     0   516  0.000000000E+00  0.000000000E+00  6.869322432E+02  6.869322432E+02  0.000000000E+00  0.00000E+00  9.000E+00
      21    -1     0     0   516   513  0.000000000E+00  0.000000000E+00 -1.204788529E+01  1.204788529E+01  0.000000000E+00  0.00000E+00  9.000E+00
      -2     1     1     2     0   512  2.100687940E+00  1.159296953E+01  6.828800809E+02  6.829817886E+02  3.300000131E-01  0.00000E+00  9.000E+00
      21     1     1     2   511   513 -4.429245869E+00 -4.615262296E+00 -4.699909866E+00  7.937758989E+00  4.129530925E-07  0.00000E+00  9.000E+00
      21     1     1     2   512   511  2.328557928E+00 -6.977707229E+00 -3.295813095E+00  8.060580882E+00  4.616955931E-07  0.00000E+00  9.000E+00
</event>
<event>
      5  10001  3.52971E+09  2.29409E+01 -1.00000E+00  1.61596E-01
      21    -1     0     0   511   513  0.000000000E+00  0.000000000E+00  1.184151928E+02  1.184151928E+02  0.000000000E+00  0.00000E+00  9.000E+00
      21    -1     0     0   514   511  0.000000000E+00  0.000000000E+00 -9.577210850E+00  9.577210850E+00  0.000000000E+00  0.00000E+00  9.000E+00
      21     1     1     2   515   513  1.310690072E+01 -9.747440919E+00  5.043092334E+01  5.301020166E+01  6.743495762E-07  0.00000E+00  9.000E+00
       5     1     1     2   514     0 -1.521257955E+01 -6.524237602E-01  5.606081651E-01  1.597505921E+01  4.800000191E+00  0.00000E+00  9.000E+00
      -5     1     1     2     0   515  2.105678834E+00  1.039986468E+01  5.784645048E+01  5.900714281E+01  4.800000191E+00  0.00000E+00  9.000E+00
</event>
<event>
      5  10001  3.52971E+09  5.94061E+00 -1.00000E+00  2.26139E-01
      21    -1     0     0   512   514  0.000000000E+00  0.000000000E+00  5.961768137E+01  5.961768137E+01  0.000000000E+00  0.00000E+00  9.000E+00
       2    -1     0     0   513     0  0.000000000E+00  0.000000000E+00 -1.514271076E+03  1.514271076E+03  0.000000000E+00  0.00000E+00  9.000E+00
      21     1     1     2   512   515  8.205658409E+00  5.779404237E+00  2.562239976E+00  1.035854319E+01  2.107342426E-07  0.00000E+00  9.000E+00
      21     1     1     2   513   514 -4.780770863E+00 -1.063336570E+01  5.251210246E+01  5.379075330E+01  1.168007728E-06  0.00000E+00  9.000E+00
       2     1     1     2   515     0 -3.424887546E+00  4.853961461E+00 -1.509727737E+03  1.509739461E+03  3.300000131E-01  0.00000E+00  9.000E+00
</event>
<event>
      5  10001  3.52971E+09  7.41146E+00 -1.00000E+00  2.12101E-01
      21    -1     0     0   511   512  0.000000000E+00  0.000000000E+00  5.792060019E+01  5.792060019E+01  0.000000000E+00  0.00000E+00  9.000E+00
      21    -1     0     0   515   516  0.000000000E+00  0.000000000E+00 -1.547475736E+01  1.547475736E+01  0.000000000E+00  0.00000E+00  9.000E+00
      21     1     1     2   511   516  1.161887966E+00 -1.381477597E+01 -8.120068735E+00  1.606653463E+01  4.460403188E-07  0.00000E+00  9.000E+00
      21     1     1     2   515   513  5.198371013E+00  1.000993893E+01  7.306250839E+00  1.343887049E+01  4.129530925E-07  0.00000E+00  9.000E+00
      21     1     1     2   513   512 -6.360258979E+00  3.804837034E+00  4.325966072E+01  4.388995244E+01  4.768371582E-07  0.00000E+00  9.000E+00
</event>
<event>
      5  10001  3.52971E+09  1.60734E+01 -1.00000E+00  1.74598E-01
      21    -1     0     0   514   515  0.000000000E+00  0.000000000E+00  2.144805359E+01  2.144805359E+01  0.000000000E+00  0.00000E+00  9.000E+00
      21    -1     0     0   512   514  0.000000000E+00  0.000000000E+00 -4.009489092E+01  4.009489092E+01  0.000000000E+00  0.00000E+00  9.000E+00
      21     1     1     2   512   517  2.169064180E+01 -8.241486729E+00 -2.321498878E+01  3.282288454E+01  5.840038640E-07  0.00000E+00  9.000E+00
      21     1     1     2   517   511 -1.425413815E+01 -3.270029969E+00  1.750779759E+00  1.472884178E+01  2.897116854E-07  0.00000E+00  9.000E+00
      21     1     1     2   511   515 -7.436503657E+00  1.151151670E+01  2.817371686E+00  1.399121819E+01  1.460009660E-07  0.00000E+00  9.000E+00
</event>
<event>
      5  10001  3.52971E+09  1.58376E+01 -1.00000E+00  1.75185E-01
       2    -1     0     0   514     0  0.000000000E+00  0.000000000E+00  2.212549073E+02  2.212549073E+02  0.000000000E+00  0.00000E+00  9.000E+00
      21    -1     0     0   512   513  0.000000000E+00  0.000000000E+00 -7.973890392E+00  7.973890392E+00  0.000000000E+00  0.00000E+00  9.000E+00
      21     1     1     2   514   513 -1.772352202E+01 -4.053876895E+00  1.576215146E+01  2.406247222E+01  7.348554138E-07  0.00000E+00  9.000E+00
       2     1     1     2   511     0  6.854309284E+00 -7.464818156E+00  1.841835403E+02  1.844624365E+02  3.300000131E-01  0.00000E+00  9.000E+00
      21     1     1     2   512   511  1.086921274E+01  1.151869505E+01  1.333532514E+01  2.070388895E+01  1.685873940E-07  0.00000E+00  9.000E+00
</event>
<event>
      5  10001  3.52971E+09  1.00659E+01 -1.00000E+00  1.95424E-01
      -3    -1     0     0     0   515  0.000000000E+00  0.000000000E+00  2.071988857E+01  2.071988857E+01  0.000000000E+00  0.00000E+00  9.000E+00
      21    -1     0     0   514   511  0.000000000E+00  0.000000000E+00 -3.014174493E+01  3.014174493E+01  0.000000000E+00  0.00000E+00  9.000E+00
      -3     1     1     2     0   513 -1.476042286E+01 -9.021232185E+00  9.111656193E+00  1.955824613E+01  5.000000000E-01  0.00000E+00  9.000E+00
      21     1     1     2   514   515  1.223223692E+01  4.654339241E+00 -2.170354175E+01  2.534431333E+01  4.129530925E-07  0.00000E+00  9.000E+00
      21     1     1     2   513   511  2.528185944E+00  4.366892943E+00  3.170029196E+00  5.959074026E+00  7.300048300E-08  0.00000E+00  9.000E+00
</event>
<event>
      5  10001  3.52971E+09  4.05442E+00 -1.00000E+00  2.62087E-01
      21    -1     0     0   512   511  0.000000000E+00  0.000000000E+00  2.533031652E+01  2.533031652E+01  0.000000000E+00  0.00000E+00  9.000E+00
      21    -1     0     0   513   516  0.000000000E+00  0.000000000E+00 -4.239882395E+00  4.239882395E+00  0.000000000E+00  0.00000E+00  9.000E+00
      21     1     1     2   512   516  8.913088474E+00 -2.890470017E+00  1.199962498E+01  1.522461700E+01  1.685873940E-07  0.00000E+00  9.000E+00
      21     1     1     2   514   511 -6.637667825E+00  3.684637366E+00  9.206313321E+00  1.193278642E+01  1.192092896E-07  0.00000E+00  9.000E+00
      21     1     1     2   513   514 -2.275420649E+00 -7.941673481E-01 -1.155041783E-01  2.412795499E+00  2.945100572E-08  0.00000E+00  9.000E+00
</event>
<event>
      5  10001  3.52971E+09  1.05942E+01 -1.00000E+00  1.92899E-01
      21    -1     0     0   515   511  0.000000000E+00  0.000000000E+00  1.663285647E+00  1.663285647E+00  0.000000000E+00  0.00000E+00  9.000E+00
      21    -1     0     0   511   512  0.000000000E+00  0.000000000E+00 -1.373377742E+02  1.373377742E+02  0.000000000E+00  0.00000E+00  9.000E+00
      21     1     1     2   516   512 -5.545439411E+00 -3.360335692E+00 -2.189892256E+01  2.283870757E+01  4.129530925E-07  0.00000E+00  9.000E+00
       3     1     1     2   515     0  6.753195104E+00  1.167700923E+01 -4.840427898E+01  5.025119315E+01  5.000000000E-01  0.00000E+00  9.000E+00
      -3     1     1     2     0   516 -1.207755694E+00 -8.316673540E+00 -6.537128703E+01  6.591115915E+01  5.000000000E-01  0.00000E+00  9.000E+00
</event>
<event>
      5  10001  3.52971E+09  1.79190E+01 -1.00000E+00  1.70401E-01
      21    -1     0     0   513   512  0.000000000E+00  0.000000000E+00  1.765578046E+01  1.765578046E+01  0.000000000E+00  0.00000E+00  9.000E+00
      21    -1     0     0   511   514  0.000000000E+00  0.000000000E+00 -3.446162199E+01  3.446162199E+01  0.000000000E+00  0.00000E+00  9.000E+00
      21     1     1     2   513   514  1.712510587E+01  4.072946221E+00 -1.519115292E+01  2.325143584E+01  2.384185791E-07  0.00000E+00  9.000E+00
      21     1     1     2   511   515 -1.804773095E+01  4.164115383E+00 -6.024848873E+00  1.947714695E+01  8.429369702E-08  0.00000E+00  9.000E+00
      21     1     1     2   515   512  9.226250851E-01 -8.237061604E+00  4.410160266E+00  9.388819654E+00  1.685873940E-07  0.00000E+00  9.000E+00
</event>
<event>
      5  10001  3.52971E+09  1.87505E+01 -1.00000E+00  1.68711E-01
      21    -1     0     0   516   511  0.000000000E+00  0.000000000E+00  1.392332047E+01  1.392332047E+01  0.000000000E+00  0.00000E+00  9.000E+00
      21    -1     0     0   517   513  0.000000000E+00  0.000000000E+00 -1.512506904E+02  1.512506904E+02  0.000000000E+00  0.00000E+00  9.000E+00
      21     1     1     2   516   512 -2.909369508E+00 -2.103083377E+01 -8.934001253E+01  9.182809068E+01  1.651812370E-06  0.00000E+00  9.000E+00
      21     1     1     2   517   511 -8.571305286E+00  6.205988713E+00  8.661259297E+00  1.367475714E+01  5.840038640E-07  0.00000E+00  9.000E+00
      21     1     1     2   512   513  1.148067479E+01  1.482484505E+01 -5.664861665E+01  5.967116300E+01  9.536743164E-07  0.00000E+00  9.000E+00
</event>
<event>
      5  10001  3.52971E+09  5.66685E+00 -1.00000E+00  2.29389E-01
      21    -1     0     0   513   514  0.000000000E+00  0.000000000E+00  1.143292534E+02  1.143292534E+02  0.000000000E+00  0.00000E+00  9.000E+00
      -2    -1     0     0     0   513  0.000000000E+00  0.000000000E+00 -7.572772742E+00  7.572772742E+00  0.000000000E+00  0.00000E+00  9.000E+00
      -2     1     1     2     0   511  2.219519011E+00 -1.122155708E+01 -2.310967554E+00  1.167471965E+01  3.300000131E-01  0.00000E+00  9.000E+00
      21     1     1     2   511   515  2.403812581E+00  1.003641566E+01  8.917966968E+01  8.977483744E+01  9.536743164E-07  0.00000E+00  9.000E+00
      21     1     1     2   515   514 -4.623331593E+00  1.185141421E+00  1.988777856E+01  2.045246907E+01  4.129530925E-07  0.00000E+00  9.000E+00
</event>
<event>
      5  10001  3.52971E+09  7.48214E+00 -1.00000E+00  2.11539E-01
       1    -1     0     0   512     0  0.000000000E+00  0.000000000E+00  9.540278340E+00  9.540278340E+00  0.000000000E+00  0.00000E+00  9.000E+00
      -1    -1     0     0     0   512  0.000000000E+00  0.000000000E+00 -1.703918355E+01  1.703918355E+01  0.000000000E+00  0.00000E+00  9.000E+00
      -1     1     1     2     0   511  1.007603464E+01 -5.968117119E-02 -7.027392710E+00  1.228914904E+01  3.300000131E-01  0.00000E+00  9.000E+00
       1     1     1     2   513     0 -7.694299425E+00 -3.240506923E+00  3.063786825E+00  8.899371802E+00  3.300000131E-01  0.00000E+00  9.000E+00
      21     1     1     2   511   513 -2.381735211E+00  3.300188094E+00 -3.535299329E+00  5.390941051E+00  1.192092896E-07  0.00000E+00  9.000E+00
</event>
<event>
      5  10001  3.52971E+09  1.10359E+01 -1.00000E+00  1.90931E-01
      21    -1     0     0   514   513  0.000000000E+00  0.000000000E+00  1.544823244E+01  1.544823244E+01  0.000000000E+00  0.00000E+00  9.000E+00
       2    -1     0     0   511     0  0.000000000E+00  0.000000000E+00 -7.353986629E+01  7.353986629E+01  0.000000000E+00  0.00000E+00  9.000E+00
      21     1     1     2   511   513  1.316477735E+01 -2.444152536E+00  1.144158052E+01  1.761235388E+01  3.769728732E-07  0.00000E+00  9.000E+00
      21     1     1     2   514   512 -9.103106200E+00  2.269845369E-01 -2.509465741E+01  2.669569057E+01  3.371747881E-07  0.00000E+00  9.000E+00
       2     1     1     2   512     0 -4.061671154E+00  2.217167999E+00 -4.443855696E+01  4.468005429E+01  3.300000131E-01  0.00000E+00  9.000E+00
</event>
<event>
      5  10001  3.52971E+09  2.02044E+01 -1.00000E+00  1.66002E-01
      21    -1     0     0   515   514  0.000000000E+00  0.000000000E+00  1.169627527E+02  1.169627527E+02  0.000000000E+00  0.00000E+00  9.000E+00
      21    -1     0     0   511   516  0.000000000E+00  0.000000000E+00 -3.083081249E+02  3.083081249E+02  0.000000000E+00  0.00000E+00  9.000E+00
      21     1     1     2   515   516  2.604680246E+01  5.930310136E+00 -2.980728204E+02  2.992674569E+02  3.814697266E-06  0.00000E+00  9.000E+00
      21     1     1     2   511   513 -1.336658503E+01 -2.166017799E+01  1.025958600E+01  2.744244907E+01  1.460009660E-06  0.00000E+00  9.000E+00
      21     1     1     2   513   514 -1.268021743E+01  1.572986785E+01  9.646786230E+01  9.856097155E+01  1.907348633E-06  0.00000E+00  9.000E+00
</event>
<event>
      5  10001  3.52971E+09  7.75641E+00 -1.00000E+00  2.09437E-01
       2    -1     0     0   512     0  0.000000000E+00  0.000000000E+00  2.709968452E+02  2.709968452E+02  0.000000000E+00  0.00000E+00  9.000E+00
      21    -1     0     0   513   514  0.000000000E+00  0.000000000E+00 -1.409921950E+01  1.409921950E+01  0.000000000E+00  0.00000E+00  9.000E+00
      -5     1     1     2     0   514  1.118252258E+01 -2.916032149E+00 -1.075707139E+01  1.650171632E+01  4.800000191E+00  0.00000E+00  9.000E+00
       5     1     1     2   512     0 -7.171453547E+00  9.508728854E+00  1.093550957E+02  1.101064150E+02  4.800000191E+00  0.00000E+00  9.000E+00
       2     1     1     2   513     0 -4.011069032E+00 -6.592696706E+00  1.582996015E+02  1.584879334E+02  3.300000131E-01  0.00000E+00  9.000E+00
</event>
<event>
      5  10001  3.52971E+09  4.85780E+00 -1.00000E+00  2.45045E-01
      21    -1     0     0   511   514  0.000000000E+00  0.000000000E+00  7.761493797E+01  7.761493797E+01  0.000000000E+00  0.00000E+00  9.000E+00
      21    -1     0     0   513   515  0.000000000E+00  0.000000000E+00 -1.453594492E+01  1.453594492E+01  0.000000000E+00  0.00000E+00  9.000E+00
      21     1     1     2   511   515  7.113246260E+00 -6.835765272E+00  7.287296496E+01  7.353771129E+01  0.000000000E+00  0.00000E+00  9.000E+00
      21     1     1     2   513   512 -3.006154777E+00  5.231239827E+00 -1.218520018E+01  1.359712985E+01  3.371747881E-07  0.00000E+00  9.000E+00
      21     1     1     2   512   514 -4.107091483E+00  1.604525444E+00  2.391228266E+00  5.016041763E+00  7.884953353E-08  0.00000E+00  9.000E+00
</event>
<event>
      5  10001  3.52971E+09  3.50340E+00 -1.00000E+00  2.77808E-01
       2    -1     0     0   513     0  0.000000000E+00  0.000000000E+00  7.428569305E+02  7.428569305E+02  0.000000000E+00  0.00000E+00  9.000E+00
      21    -1     0     0   512   516  0.000000000E+00  0.000000000E+00 -1.977532133E-01  1.977532133E-01  0.000000000E+00  0.00000E+00  9.000E+00
      21     1     1     2   511   516 -7.567866087E-01 -2.965238120E+00  1.623305243E+02  1.623593684E+02  2.697398305E-06  0.00000E+00  9.000E+00
       2     1     1     2   512     0  2.635960529E-02  1.132769109E+01  2.454553418E+02  2.457168105E+02  3.300000131E-01  0.00000E+00  9.000E+00
      21     1     1     2   513   511  7.304270034E-01 -8.362452974E+00  3.348733112E+02  3.349785048E+02  0.000000000E+00  0.00000E+00  9.000E+00
</event>
<event>
      5  10001  3.52971E+09  3.27398E+00 -1.00000E+00  2.85797E-01
      21    -1     0     0   511   514  0.000000000E+00  0.000000000E+00  2.003138133E+01  2.003138133E+01  0.000000000E+00  0.00000E+00  9.000E+00
      -1    -1     0     0     0   511  0.000000000E+00  0.000000000E+00 -2.771402286E+01  2.771402286E+01  0.000000000E+00  0.00000E+00  9.000E+00
      -1     1     1     2     0   513 -1.045703421E+01  9.673165153E-02 -2.351974241E+01  2.574191338E+01  3.300000131E-01  0.00000E+00  9.000E+00
      21     1     1     2   512   514  1.176687650E+01  1.386676983E+00  1.611843755E+01  2.000465657E+01  5.331201500E-07  0.00000E+00  9.000E+00
      21     1     1     2   513   512 -1.309842286E+00 -1.483408634E+00 -2.813366676E-01  1.998834238E+00  1.580506819E-08  0.00000E+00  9.000E+00
</event>
<event>
      5  10001  3.52971E+09  1.10182E+01 -1.00000E+00  1.91007E-01
      21    -1     0     0   515   511  0.000000000E+00  0.000000000E+00  3.004980479E+01  3.004980479E+01  0.000000000E+00  0.00000E+00  9.000E+00
      21    -1     0     0   516   515  0.000000000E+00  0.000000000E+00 -3.599776104E+01  3.599776104E+01  0.000000000E+00  0.00000E+00  9.000E+00
      21     1     1     2   512   514  1.317648223E+01  9.723508262E+00  3.338556511E-01  1.637918668E+01  2.806357885E-07  0.00000E+00  9.000E+00
      21     1     1     2   516   512 -2.560033685E+00 -1.267184752E+01 -2.488751286E+01  2.804492447E+01  5.840038640E-07  0.00000E+00  9.000E+00
      21     1     1     2   514   511 -1.061644854E+01  2.948339262E+00  1.860570095E+01  2.162345467E+01  4.129530925E-07  0.00000E+00  9.000E+00
</event>
<event>
      5  10001  3.52971E+09  4.43526E+00 -1.00000E+00  2.53322E-01
      21    -1     0     0   513   512  0.000000000E+00  0.000000000E+00  1.766084041E-01  1.766084041E-01  0.000000000E+00  0.00000E+00  9.000E+00
      21    -1     0     0   511   513  0.000000000E+00  0.000000000E+00 -1.010796178E+03  1.010796178E+03  0.000000000E+00  0.00000E+00  9.000E+00
      21     1     1     2   516   512 -9.422533445E+00 -6.320258935E+00 -2.796850375E+02  2.799150764E+02  7.629394531E-06  0.00000E+00  9.000E+00
      -1     1     1     2     0   516  9.078541596E+00  2.417729539E+00 -5.514560980E+02  5.515362202E+02  3.300000131E-01  0.00000E+00  9.000E+00
       1     1     1     2   511     0  3.439918486E-01  3.902529396E+00 -1.794784339E+02  1.795214895E+02  3.300000131E-01  0.00000E+00  9.000E+00
</event>
<event>
      5  10001  3.52971E+09  2.01508E+01 -1.00000E+00  1.66097E-01
      21    -1     0     0   511   514  0.000000000E+00  0.000000000E+00  1.036269787E+01  1.036269787E+01  0.000000000E+00  0.00000E+00  9.000E+00
       3    -1     0     0   512     0  0.000000000E+00  0.000000000E+00 -1.935544420E+02  1.935544420E+02  0.000000000E+00  0.00000E+00  9.000E+00
      21     1     1     2   513   514 -6.735006814E+00  1.188497076E+01  4.939784822E+00  1.452633198E+01  1.015030525E-06  0.00000E+00  9.000E+00
       3     1     1     2   511     0 -1.125064420E+00 -8.084575314E+00 -1.519850945E+02  1.522049444E+02  5.000000000E-01  0.00000E+00  9.000E+00
      21     1     1     2   512   513  7.860071234E+00 -3.800395443E+00 -3.614643443E+01  3.718586354E+01  6.743495762E-07  0.00000E+00  9.000E+00
</event>
<event>
      5  10001  3.52971E+09  9.92613E+00 -1.00000E+00  1.96125E-01
      21    -1     0     0   511   513  0.000000000E+00  0.000000000E+00  8.142061750E+01  8.142061750E+01  0.000000000E+00  0.00000E+00  9.000E+00
      21    -1     0     0   512   515  0.000000000E+00  0.000000000E+00 -1.906738212E+02  1.906738212E+02  0.000000000E+00  0.00000E+00  9.000E+00
      21     1     1     2   516   513  7.877025781E+00  7.080964221E+00  5.521988774E+00  1.194487126E+01  3.576278687E-07  0.00000E+00  9.000E+00
      21     1     1     2   512   516 -1.548923885E+00 -1.472838909E+01 -1.868291083E+02  1.874151550E+02  2.697398305E-06  0.00000E+00  9.000E+00
      21     1     1     2   511   515 -6.328101895E+00  7.647424874E+00  7.205391579E+01  7.273441250E+01  0.000000000E+00  0.00000E+00  9.000E+00
</event>
<event>
      5  10001  3.52971E+09  9.57523E+00 -1.00000E+00  1.97957E-01
       1    -1     0     0   512     0  0.000000000E+00  0.000000000E+00  1.633406194E+03  1.633406194E+03  0.000000000E+00  0.00000E+00  9.000E+00
      21    -1     0     0   511   513  0.000000000E+00  0.000000000E+00 -2.453161007E+01  2.453161007E+01  0.000000000E+00  0.00000E+00  9.000E+00
      21     1     1     2   512   514  1.511193549E+00 -1.094586520E+01  1.547052249E+02  1.550993304E+02  6.031565972E-06  0.00000E+00  9.000E+00
       1     1     1     2   511     0 -1.044364134E+01  7.496776976E+00  1.477532930E+03  1.477588894E+03  3.300000131E-01  0.00000E+00  9.000E+00
      21     1     1     2   514   513  8.932447795E+00  3.449088221E+00 -2.336357094E+01  2.524957980E+01  1.430511475E-06  0.00000E+00  9.000E+00
</event>
<event>
      5  10001  3.52971E+09  3.48516E+00 -1.00000E+00  2.78406E-01
      21    -1     0     0   515   512  0.000000000E+00  0.000000000E+00  1.125931075E+02  1.125931075E+02  0.000000000E+00  0.00000E+00  9.000E+00
      21    -1     0     0   514   516  0.000000000E+00  0.000000000E+00 -5.460094508E+01  5.460094508E+01  0.000000000E+00  0.00000E+00  9.000E+00
      21     1     1     2   515   516 -9.244774811E+00 -2.110098206E+00 -3.177503962E+00  1.000074533E+01  1.685873940E-07  0.00000E+00  9.000E+00
      21     1     1     2   514   511  1.250387343E+01  8.753418592E-01 -4.716522449E+01  4.880237161E+01  1.168007728E-06  0.00000E+00  9.000E+00
      21     1     1     2   511   512 -3.259098617E+00  1.234756347E+00  1.083348909E+02  1.083909356E+02  1.348699152E-06  0.00000E+00  9.000E+00
</event>
<event>
      5  10001  3.52971E+09  5.71700E+00 -1.00000E+00  2.28774E-01
      21    -1     0     0   513   514  0.000000000E+00  0.000000000E+00  9.692535271E+01  9.692535271E+01  0.000000000E+00  0.00000E+00  9.000E+00
      21    -1     0     0   517   512  0.000000000E+00  0.000000000E+00 -1.314891818E+00  1.314891818E+00  0.000000000E+00  0.00000E+00  9.000E+00
      21     1     1     2   513   512  1.777342985E-01 -9.851224504E+00  5.335378261E+01  5.425591518E+01  0.000000000E+00  0.00000E+00  9.000E+00
      21     1     1     2   515   514  9.060184018E-01  7.408562366E+00  3.928540970E+01  3.998813675E+01  6.743495762E-07  0.00000E+00  9.000E+00
      21     1     1     2   517   515 -1.083752700E+00  2.442662138E+00  2.971268581E+00  3.996192590E+00  4.214684851E-08  0.00000E+00  9.000E+00
</event>
<event>
      5  10001  3.52971E+09  1.82633E+01 -1.00000E+00  1.69688E-01
      21    -1     0     0   511   512  0.000000000E+00  0.000000000E+00  2.563584020E+01  2.563584020E+01  0.000000000E+00  0.00000E+00  9.000E+00
      21    -1     0     0   517   516  0.000000000E+00  0.000000000E+00 -5.171513217E+01  5.171513217E+01  0.000000000E+00  0.00000E+00  9.000E+00
      21     1     1     2   511   516  1.039095403E+01 -1.377134722E+01 -3.819672400E+01  4.191195121E+01  4.768371582E-07  0.00000E+00  9.000E+00
      21     1     1     2   513   512 -5.664354928E+00  3.044449466E+00  2.020106038E+01  2.119991580E+01  4.129530925E-07  0.00000E+00  9.000E+00
      21     1     1     2   517   513 -4.726599103E+00  1.072689775E+01 -8.083628351E+00  1.423910537E+01  0.000000000E+00  0.00000E+00  9.000E+00
</event>
<event>
      5  10001  3.52971E+09  1.15245E+01 -1.00000E+00  1.88889E-01
      21    -1     0     0   514   512  0.000000000E+00  0.000000000E+00  1.594476092E+01  1.594476092E+01  0.000000000E+00  0.00000E+00  9.000E+00
      21    -1     0     0   515   514  0.000000000E+00  0.000000000E+00 -4.821738053E+01  4.821738053E+01  0.000000000E+00  0.00000E+00  9.000E+00
      21     1     1     2   513   512 -8.377385502E+00 -5.513373451E+00  1.274216505E+01  1.621544464E+01  3.371747881E-07  0.00000E+00  9.000E+00
      21     1     1     2   511   513  5.609920556E+00  9.423173918E+00 -2.390872564E+01  2.630388901E+01  0.000000000E+00  0.00000E+00  9.000E+00
      21     1     1     2   515   511  2.767464946E+00 -3.909800467E+00 -2.110605902E+01  2.164280780E+01  0.000000000E+00  0.00000E+00  9.000E+00
</event>
<event>
      5  10001  3.52971E+09  3.32330E+00 -1.00000E+00  2.83991E-01
       2    -1     0     0   513     0  0.000000000E+00  0.000000000E+00  7.496987935E+01  7.496987935E+01  0.000000000E+00  0.00000E+00  9.000E+00
      21    -1     0     0   511   513  0.000000000E+00  0.000000000E+00 -3.483279544E+00  3.483279544E+00  0.000000000E+00  0.00000E+00  9.000E+00
      21     1     1     2   512   516 -8.772109006E+00 -6.512227042E+00  1.015243877E+01  1.491412118E+01  2.665600750E-07  0.00000E+00  9.000E+00
       2     1     1     2   516     0  7.544070232E+00  8.736517610E+00  5.889688689E+01  6.001826323E+01  3.300000131E-01  0.00000E+00  9.000E+00
      21     1     1     2   511   512  1.228038773E+00 -2.224290568E+00  2.437274148E+00  3.520774493E+00  6.664001875E-08  0.00000E+00  9.000E+00
</event>
<event>
      5  10001  3.52971E+09  2.75607E+01 -1.00000E+00  1.55640E-01
      21    -1     0     0   514   515  0.000000000E+00  0.000000000E+00  3.542097734E+00  3.542097734E+00  0.000000000E+00  0.00000E+00  9.000E+00
      21    -1     0     0   511   512  0.000000000E+00  0.000000000E+00 -1.133947746E+02  1.133947746E+02  0.000000000E+00  0.00000E+00  9.000E+00
      21     1     1     2   514   512  7.690112223E+00  1.472841594E+00 -4.694023057E+01  4.758878370E+01  9.536743164E-07  0.00000E+00  9.000E+00
      21     1     1     2   513   515  4.691261550E+00 -2.304835499E+00 -3.468297320E-03  5.226874175E+00  2.877296793E-07  0.00000E+00  9.000E+00
      21     1     1     2   511   513 -1.238137377E+01  8.319939058E-01 -6.290897795E+01  6.412121441E+01  1.168007728E-06  0.00000E+00  9.000E+00
</event>
<event>
      5  10001  3.52971E+09  2.24674E+01 -1.00000E+00  1.62302E-01
      21    -1     0     0   516   512  0.000000000E+00  0.000000000E+00  1.139157937E+01  1.139157937E+01  0.000000000E+00  0.00000E+00  9.000E+00
      21    -1     0     0   511   516  0.000000000E+00  0.000000000E+00 -4.432293641E+01  4.432293641E+01  0.000000000E+00  0.00000E+00  9.000E+00
      21     1     1     2   511   517 -9.398181970E+00  1.406124217E+01 -1.413090859E+01  2.203921353E+01  0.000000000E+00  0.00000E+00  9.000E+00
      21     1     1     2   517   514  1.081215573E+01 -3.495339841E+00 -1.994411175E+01  2.295403462E+01  3.371747881E-07  0.00000E+00  9.000E+00
      21     1     1     2   514   512 -1.413973761E+00 -1.056590232E+01  1.143663297E+00  1.072126762E+01  2.767767850E-07  0.00000E+00  9.000E+00
</event>
<event>
      5  10001  3.52971E+09  9.92680E+00 -1.00000E+00  1.96122E-01
      21    -1     0     0   513   515  0.000000000E+00  0.000000000E+00  2.651165840E+00  2.651165840E+00  0.000000000E+00  0.00000E+00  9.000E+00
      21    -1     0     0   511   512  0.000000000E+00  0.000000000E+00 -6.210796459E+02  6.210796459E+02  0.000000000E+00  0.00000E+00  9.000E+00
      21     1     1     2   513   512 -3.465962072E+00 -1.348712693E+01 -5.814018565E+02  5.815685980E+02  7.629394531E-06  0.00000E+00  9.000E+00
      21     1     1     2   516   515  2.684765923E+00  3.256290838E+00 -5.333622991E-01  4.253924473E+00  1.023173886E-06  0.00000E+00  9.000E+00
      21     1     1     2   511   516  7.811961489E-01  1.023083609E+01 -3.649326126E+01  3.790828923E+01  1.348699152E-06  0.00000E+00  9.000E+00
</event>
<event>
      5  10001  3.52971E+09  1.19158E+01 -1.00000E+00  1.87346E-01
       1    -1     0     0   512     0  0.000000000E+00  0.000000000E+00  2.188613895E+02  2.188613895E+02  0.000000000E+00  0.00000E+00  9.000E+00
      21    -1     0     0   516   512  0.000000000E+00  0.000000000E+00 -1.452405324E+00  1.452405324E+00  0.000000000E+00  0.00000E+00  9.000E+00
      21     1     1     2   513   514 -7.755573836E+00  1.015391372E+01  4.470317051E+01  4.649327201E+01  0.000000000E+00  0.00000E+00  9.000E+00
       1     1     1     2   514     0  9.356294361E-01 -9.866691887E+00  1.428741402E+02  1.432178615E+02  3.300000131E-01  0.00000E+00  9.000E+00
      21     1     1     2   516   513  6.819944400E+00 -2.872218304E-01  2.983167348E+01  3.060266134E+01  4.768371582E-07  0.00000E+00  9.000E+00
</event>
<event>
      5  10001  3.52971E+09  2.95943E+00 -1.00000E+00  2.98663E-01
       2    -1     0     0   511     0  0.000000000E+00  0.000000000E+00  1.360534448E+03  1.360534448E+03  0.000000000E+00  0.00000E+00  9.000E+00
      21    -1     0     0   515   513  0.000000000E+00  0.000000000E+00 -4.119740162E+00  4.119740162E+00  0.000000000E+00  0.00000E+00  9.000E+00
      21     1     1     2   511   513  5.668907753E+00  1.014575400E+01  4.982778324E+00  1.264519352E+01  5.990192664E-07  0.00000E+00  9.000E+00
      21     1     1     2   515   514 -2.716393697E+00 -1.034771269E+01  9.949458113E+01  1.000681049E+02  0.000000000E+00  0.00000E+00  9.000E+00
       2     1     1     2   514     0 -2.952514055E+00  2.019586929E-01  1.251937348E+03  1.251940890E+03  3.300000131E-01  0.00000E+00  9.000E+00
</event>
<event>
      5  10001  3.52971E+09  3.85095E+00 -1.00000E+00  2.67409E-01
      21    -1     0     0   512   514  0.000000000E+00  0.000000000E+00  1.286879138E+00  1.286879138E+00  0.000000000E+00  0.00000E+00  9.000E+00
      21    -1     0     0   516   511  0.000000000E+00  0.000000000E+00 -4.532410081E+02  4.532410081E+02  0.000000000E+00  0.00000E+00  9.000E+00
      21     1     1     2   515   514 -9.558160672E+00  1.414261051E+01 -7.404548380E+01  7.598753542E+01  2.523185073E-06  0.00000E+00  9.000E+00
      21     1     1     2   516   515  1.300861329E+01 -1.243259031E+01 -3.164107436E+02  3.169219967E+02  5.394796609E-06  0.00000E+00  9.000E+00
      21     1     1     2   512   511 -3.450452622E+00 -1.710020200E+00 -6.149790151E+01  6.161835507E+01  9.536743164E-07  0.00000E+00  9.000E+00
</event>
<event>
      5  10001  3.52971E+09  8.27167E+00 -1.00000E+00  2.05787E-01
      21    -1     0     0   513   511  0.000000000E+00  0.000000000E+00  1.959525818E+01  1.959525818E+01  0.000000000E+00  0.00000E+00  9.000E+00
      -1    -1     0     0     0   517  0.000000000E+00  0.000000000E+00 -3.956424739E+02  3.956424739E+02  0.000000000E+00  0.00000E+00  9.000E+00
      21     1     1     2   513   517 -9.720931127E+00  3.377366710E+00  1.695985887E+01  1.983784063E+01  4.129530925E-07  0.00000E+00  9.000E+00
      21     1     1     2   514   511  6.257992605E+00 -1.088922654E+01 -3.317774721E+01  3.547535252E+01  8.259061849E-07  0.00000E+00  9.000E+00
      -1     1     1     2     0   514  3.462938523E+00  7.511859833E+00 -3.598293274E+02  3.599245389E+02  3.300000131E-01  0.00000E+00  9.000E+00
</event>
<event>
      5  10001  3.52971E+09  7.69551E+00 -1.00000E+00  2.09893E-01
      21    -1     0     0   512   514  0.000000000E+00  0.000000000E+00  1.221519629E+03  1.221519629E+03  0.000000000E+00  0.00000E+00  9.000E+00
      21    -1     0     0   511   512  0.000000000E+00  0.000000000E+00 -4.442398132E+00  4.442398132E+00  0.000000000E+00  0.00000E+00  9.000E+00
      21     1     1     2   515   516  5.087257164E+00 -7.733918266E+00  8.539103944E+01  8.589134586E+01  2.132480600E-06  0.00000E+00  9.000E+00
      21     1     1     2   516   514 -1.274228884E+01  6.945622773E+00  1.132260750E+03  1.132353749E+03  0.000000000E+00  0.00000E+00  9.000E+00
      21     1     1     2   511   515  7.655031679E+00  7.882954936E-01 -5.745586589E-01  7.716931867E+00  1.051957604E-06  0.00000E+00  9.000E+00
</event>
<event>
      5  10001  3.52971E+09  1.11368E+01 -1.00000E+00  1.90498E-01
      21    -1     0     0   513   516  0.000000000E+00  0.000000000E+00  4.848334821E+01  4.848334821E+01  0.000000000E+00  0.00000E+00  9.000E+00
       1    -1     0     0   511     0  0.000000000E+00  0.000000000E+00 -2.332992758E+01  2.332992758E+01  0.000000000E+00  0.00000E+00  9.000E+00
      21     1     1     2   513   515 -7.489625763E+00 -2.098959974E+01  2.547344257E+01  3.384603474E+01  0.000000000E+00  0.00000E+00  9.000E+00
      21     1     1     2   511   516  8.462101349E+00  9.895692185E+00  1.446007565E+01  1.945830596E+01  2.384185791E-07  0.00000E+00  9.000E+00
       1     1     1     2   515     0 -9.724755862E-01  1.109390756E+01 -1.478009758E+01  1.850893509E+01  3.300000131E-01  0.00000E+00  9.000E+00
</event>
<event>
      5  10001  3.52971E+09  1.64912E+01 -1.00000E+00  1.73588E-01
      21    -1     0     0   512   511  0.000000000E+00  0.000000000E+00  2.419526738E+01  2.419526738E+01  0.000000000E+00  0.00000E+00  9.000E+00
      21    -1     0     0   515   513  0.000000000E+00  0.000000000E+00 -6.419824263E+02  6.419824263E+02  0.000000000E+00  0.00000E+00  9.000E+00
      21     1     1     2   512   514 -4.365332988E+00 -1.726745620E+01 -1.900499500E+02  1.908826988E+02  4.672030912E-06  0.00000E+00  9.000E+00
      21     1     1     2   515   511 -1.209593955E+01  1.826087008E+01  1.854999936E+01  2.870319853E+01  1.348699152E-06  0.00000E+00  9.000E+00
      21     1     1     2   514   513  1.646127254E+01 -9.934138817E-01 -4.462872083E+02  4.465917964E+02  7.629394531E-06  0.00000E+00  9.000E+00
</event>
<event>
      5  10001  3.52971E+09  3.59999E+00 -1.00000E+00  2.74731E-01
      21    -1     0     0   516   511  0.000000000E+00  0.000000000E+00  2.615961581E+02  2.615961581E+02  0.000000000E+00  0.00000E+00  9.000E+00
      21    -1     0     0   517   516  0.000000000E+00  0.000000000E+00 -1.403719533E+00  1.403719533E+00  0.000000000E+00  0.00000E+00  9.000E+00
      21     1     1     2   513   511  7.746503623E+00  7.336701596E+00  2.169973925E+02  2.172595311E+02  3.814697266E-06  0.00000E+00  9.000E+00
      21     1     1     2   517   512 -9.821919238E+00 -6.855196196E+00  2.884435803E+01  3.123236787E+01  5.840038640E-07  0.00000E+00  9.000E+00
      21     1     1     2   512   513  2.075415615E+00 -4.815053992E-01  1.435068806E+01  1.450797868E+01  2.384185791E-07  0.00000E+00  9.000E+00
</event>
<event>
      5  10001  3.52971E+09  3.93900E+00 -1.00000E+00  2.65044E-01
      21    -1     0     0   514   511  0.000000000E+00  0.000000000E+00  4.714303471E+01  4.714303471E+01  0.000000000E+00  0.00000E+00  9.000E+00
       2    -1     0     0   515     0  0.000000000E+00  0.000000000E+00 -5.335429043E+02  5.335429043E+02  0.000000000E+00  0.00000E+00  9.000E+00
      21     1     1     2   515   513  1.350473954E+01 -5.785142762E+00 -6.402248079E+01  6.568655808E+01  1.348699152E-06  0.00000E+00  9.000E+00
      21     1     1     2   513   511 -1.496492398E+01  2.126793196E+00  4.506905902E+01  4.753622072E+01  4.768371582E-07  0.00000E+00  9.000E+00
       2     1     1     2   514     0  1.460184439E+00  3.658349566E+00 -4.674464478E+02  4.674631602E+02  3.300000131E-01  0.00000E+00  9.000E+00
</event>
<event>
      5  10001  3.52971E+09  1.12629E+01 -1.00000E+00  1.89966E-01
       1    -1     0     0   514     0  0.000000000E+00  0.000000000E+00  3.963678952E+02  3.963678952E+02  0.000000000E+00  0.00000E+00  9.000E+00
      21    -1     0     0   513   511  0.000000000E+00  0.000000000E+00 -2.377265901E+01  2.377265901E+01  0.000000000E+00  0.00000E+00  9.000E+00
      21     1     1     2   513   512 -1.133634047E+01  3.665156262E+00  8.670885271E+00  1.473533973E+01  7.817075878E-07  0.00000E+00  9.000E+00
       1     1     1     2   512     0  3.929435833E+00 -1.214980475E+01  3.830213862E+02  3.832343270E+02  3.300000131E-01  0.00000E+00  9.000E+00
      21     1     1     2   514   511  7.406904638E+00  8.484648487E+00 -1.909703525E+01  2.217088748E+01  4.768371582E-07  0.00000E+00  9.000E+00
</event>
<event>
      5  10001  3.52971E+09  5.80279E+00 -1.00000E+00  2.27743E-01
      21    -1     0     0   515   511  0.000000000E+00  0.000000000E+00  4.106539683E+01  4.106539683E+01  0.000000000E+00  0.00000E+00  9.000E+00
      21    -1     0     0   513   516  0.000000000E+00  0.000000000E+00 -5.832845277E+00  5.832845277E+00  0.000000000E+00  0.00000E+00  9.000E+00
      21     1     1     2   515   516  1.246620430E+01  3.217460057E+00  2.675890896E+01  2.969507548E+01  4.768371582E-07  0.00000E+00  9.000E+00
      21     1     1     2   512   511 -7.238420318E+00 -3.542222520E-01  5.224397108E-01  7.265889165E+00  1.383883925E-07  0.00000E+00  9.000E+00
      21     1     1     2   513   512 -5.227783985E+00 -2.863237805E+00  7.951202886E+00  9.937277467E+00  8.429369702E-08  0.00000E+00  9.000E+00
</event>
<event>
      5  10001  3.52971E+09  8.68379E+00 -1.00000E+00  2.03115E-01
      21    -1     0     0   514   515  0.000000000E+00  0.000000000E+00  1.771544050E+02  1.771544050E+02  0.000000000E+00  0.00000E+00  9.000E+00
      21    -1     0     0   513   514  0.000000000E+00  0.000000000E+00 -8.568285093E+01  8.568285093E+01  0.000000000E+00  0.00000E+00  9.000E+00
      21     1     1     2   512   511 -7.368652733E+00 -1.084306018E+00  1.539470814E+01  1.710174849E+01  2.920019320E-07  0.00000E+00  9.000E+00
      21     1     1     2   513   512  1.601271529E+01  2.546348516E-01 -8.395471826E+01  8.546851237E+01  1.348699152E-06  0.00000E+00  9.000E+00
      21     1     1     2   511   515 -8.644062556E+00  8.296711661E-01  1.600315642E+02  1.602669950E+02  0.000000000E+00  0.00000E+00  9.000E+00
</event>
<event>
      5  10001  3.52971E+09  1.26592E+01 -1.00000E+00  1.84615E-01
      21    -1     0     0   512   513  0.000000000E+00  0.000000000E+00  2.467668926E+02  2.467668926E+02  0.000000000E+00  0.00000E+00  9.000E+00
      21    -1     0     0   511   515  0.000000000E+00  0.000000000E+00 -1.083188179E+03  1.083188179E+03  0.000000000E+00  0.00000E+00  9.000E+00
      21     1     1     2   516   515 -3.507243906E+00  7.158954653E+00 -1.082037791E+03  1.082067157E+03  1.525878906E-05  0.00000E+00  9.000E+00
      21     1     1     2   511   513 -8.012121633E+00 -1.240864459E+01  2.000817661E+02  2.006262238E+02  6.031565972E-06  0.00000E+00  9.000E+00
      21     1     1     2   512   516  1.151936554E+01  5.249689942E+00  4.553473834E+01  4.726169086E+01  6.743495762E-07  0.00000E+00  9.000E+00
</event>
<event>
      5  10001  3.52971E+09  1.01328E+01 -1.00000E+00  1.95092E-01
      21    -1     0     0   511   513  0.000000000E+00  0.000000000E+00  1.350778226E+01  1.350778226E+01  0.000000000E+00  0.00000E+00  9.000E+00
       1    -1     0     0   513     0  0.000000000E+00  0.000000000E+00 -8.643427149E+02  8.643427149E+02  0.000000000E+00  0.00000E+00  9.000E+00
      21     1     1     2   511   514 -1.087642791E+01 -8.460131254E+00  9.478330935E+00  1.672451082E+01  1.046057270E-06  0.00000E+00  9.000E+00
       1     1     1     2   515     0  5.989602895E+00  1.692186070E+00 -8.165430503E+02  8.165668378E+02  3.300000131E-01  0.00000E+00  9.000E+00
      21     1     1     2   514   515  4.886825011E+00  6.767945185E+00 -4.377021333E+01  4.455914851E+01  4.768371582E-07  0.00000E+00  9.000E+00
</event>
<event>
      5  10001  3.52971E+09  4.15535E+00 -1.00000E+00  2.59623E-01
      21    -1     0     0   512   516  0.000000000E+00  0.000000000E+00  1.317719119E+01  1.317719119E+01  0.000000000E+00  0.00000E+00  9.000E+00
      21    -1     0     0   511   512  0.000000000E+00  0.000000000E+00 -1.131707935E+02  1.131707935E+02  0.000000000E+00  0.00000E+00  9.000E+00
      21     1     1     2   515   516 -2.534492287E+00 -9.452200693E+00  6.643331084E+00  1.182800055E+01  1.460009660E-07  0.00000E+00  9.000E+00
      21     1     1     2   513   515  6.577042776E+00  8.490582906E+00 -3.494967590E+00  1.129434762E+01  1.332800375E-07  0.00000E+00  9.000E+00
      21     1     1     2   511   513 -4.042550489E+00  9.616177876E-01 -1.031419658E+02  1.032256365E+02  1.907348633E-06  0.00000E+00  9.000E+00
</event>
<event>
      5  10001  3.52971E+09  8.44897E+00 -1.00000E+00  2.04613E-01
       1    -1     0     0   512     0  0.000000000E+00  0.000000000E+00  9.946247894E+01  9.946247894E+01  0.000000000E+00  0.00000E+00  9.000E+00
      21    -1     0     0   513   512  0.000000000E+00  0.000000000E+00 -1.044500656E+02  1.044500656E+02  0.000000000E+00  0.00000E+00  9.000E+00
      21     1     1     2   513   514 -4.045112022E+00  9.521101585E+00 -1.037458609E+02  1.042603374E+02  1.348699152E-06  0.00000E+00  9.000E+00
       1     1     1     2   515     0  6.136906605E+00 -5.354038157E+00  4.871396206E+01  4.939115657E+01  3.300000131E-01  0.00000E+00  9.000E+00
      21     1     1     2   514   515 -2.091794583E+00 -4.167063428E+00  5.004431217E+01  5.026105055E+01  0.000000000E+00  0.00000E+00  9.000E+00
</event>
<event>
      5  10001  3.52971E+09  9.67410E+00 -1.00000E+00  1.97431E-01
      21    -1     0     0   511   514  0.000000000E+00  0.000000000E+00  1.303801631E+02  1.303801631E+02  0.000000000E+00  0.00000E+00  9.000E+00
      21    -1     0     0   516   511  0.000000000E+00  0.000000000E+00 -5.663937431E+01  5.663937431E+01  0.000000000E+00  0.00000E+00  9.000E+00
      21     1     1     2   516   513  1.210612956E+01 -1.327026959E+01 -5.413085056E+01  5.703338856E+01  9.536743164E-07  0.00000E+00  9.000E+00
      21     1     1     2   513   512 -1.527941707E+01  8.546125082E+00  8.968409868E+01  9.137688108E+01  0.000000000E+00  0.00000E+00  9.000E+00
      21     1     1     2   512   514  3.173287512E+00  4.724144509E+00  3.818754069E+01  3.860926778E+01  0.000000000E+00  0.00000E+00  9.000E+00
</event>
<event>
      5  10001  3.52971E+09  6.17530E+00 -1.00000E+00  2.23541E-01
       2    -1     0     0   511     0  0.000000000E+00  0.000000000E+00  1.177386146E+02  1.177386146E+02  0.000000000E+00  0.00000E+00  9.000E+00
      21    -1     0     0   515   511  0.000000000E+00  0.000000000E+00 -1.849102001E+02  1.849102001E+02  0.000000000E+00  0.00000E+00  9.000E+00
      21     1     1     2   513   512 -1.939985886E+00  8.407371700E+00 -1.795327711E-01  8.630160842E+00  4.486848881E-07  0.00000E+00  9.000E+00
       2     1     1     2   512     0  7.378030580E+00 -1.133345060E+01  1.130571609E+02  1.138635718E+02  3.300000131E-01  0.00000E+00  9.000E+00
      21     1     1     2   515   513 -5.438044694E+00  2.926078903E+00 -1.800492137E+02  1.801550821E+02  1.907348633E-06  0.00000E+00  9.000E+00
</event>
<event>
      5  10001  3.52971E+09  5.60601E+00 -1.00000E+00  2.30146E-01
       1    -1     0     0   512     0  0.000000000E+00  0.000000000E+00  1.779959526E+01  1.779959526E+01  0.000000000E+00  0.00000E+00  9.000E+00
       1    -1     0     0   514     0  0.000000000E+00  0.000000000E+00 -6.129251003E+02  6.129251003E+02  0.000000000E+00  0.00000E+00  9.000E+00
       1     1     1     2   514     0 -9.989600786E+00 -7.693538618E+00 -6.042366670E+01  6.172609705E+01  3.300000131E-01  0.00000E+00  9.000E+00
       1     1     1     2   511     0  4.486192165E+00  6.626523184E+00 -5.513622079E+02  5.514203750E+02  3.300000131E-01  0.00000E+00  9.000E+00
      21     1     1     2   512   511  5.503408621E+00  1.067015434E+00  1.666036956E+01  1.757822353E+01  6.307962682E-07  0.00000E+00  9.000E+00
</event>
<event>
      5  10001  3.52971E+09  2.83663E+00 -1.00000E+00  3.04437E-01
      21    -1     0     0   513   514  0.000000000E+00  0.000000000E+00  2.869726605E-01  2.869726605E-01  0.000000000E+00  0.00000E+00  9.000E+00
       1    -1     0     0   512     0  0.000000000E+00  0.000000000E+00 -6.496548449E+02  6.496548449E+02  0.000000000E+00  0.00000E+00  9.000E+00
      21     1     1     2   512   511  8.787283838E+00 -7.862361425E+00 -2.117026156E+02  2.120307301E+02  0.000000000E+00  0.00000E+00  9.000E+00
       1     1     1     2   513     0 -7.897791952E+00  5.169331326E+00 -4.082918899E+02  4.084011182E+02  3.300000131E-01  0.00000E+00  9.000E+00
      21     1     1     2   511   514 -8.894918857E-01  2.693030099E+00 -2.937336676E+01  2.950996919E+01  5.840038640E-07  0.00000E+00  9.000E+00
</event>
<event>
      5  10001  3.52971E+09  2.03850E+01 -1.00000E+00  1.65685E-01
      21    -1     0     0   515   512  0.000000000E+00  0.000000000E+00  6.132378677E+02  6.132378677E+02  0.000000000E+00  0.00000E+00  9.000E+00
      21    -1     0     0   511   514  0.000000000E+00  0.000000000E+00 -4.257457541E+01  4.257457541E+01  0.000000000E+00  0.00000E+00  9.000E+00
      21     1     1     2   515   514 -4.134564469E+00 -1.032171824E+01 -3.934727120E+01  4.088814304E+01  1.066240300E-06  0.00000E+00  9.000E+00
      -5     1     1     2     0   512 -5.864248713E+00  7.690139780E+00  5.989293853E+02  5.990266908E+02  4.800000191E+00  0.00000E+00  9.000E+00
       5     1     1     2   511     0  9.998813182E+00  2.631578456E+00  1.108117818E+01  1.589760931E+01  4.800000191E+00  0.00000E+00  9.000E+00
</event>
<event>
      5  10001  3.52971E+09  4.42558E+00 -1.00000E+00  2.53527E-01
      21    -1     0     0   511   512  0.000000000E+00  0.000000000E+00  2.900276744E+01  2.900276744E+01  0.000000000E+00  0.00000E+00  9.000E+00
       2    -1     0     0   513     0  0.000000000E+00  0.000000000E+00 -1.080110501E+01  1.080110501E+01  0.000000000E+00  0.00000E+00  9.000E+00
      21     1     1     2   513   514  5.427574283E+00  2.964498963E+00  1.872361128E+01  1.971853027E+01  4.129530925E-07  0.00000E+00  9.000E+00
       2     1     1     2   511     0 -7.763524204E+00 -7.742210020E+00 -5.956042187E+00  1.248188538E+01  3.300000131E-01  0.00000E+00  9.000E+00
      21     1     1     2   514   512  2.335949921E+00  4.777711056E+00  5.434093328E+00  7.603456797E+00  1.685873940E-07  0.00000E+00  9.000E+00
</event>
<event>
      5  10001  3.52971E+09  1.52711E+01 -1.00000E+00  1.76650E-01
       5    -1     0     0   514     0  0.000000000E+00  0.000000000E+00  8.244681918E+01  8.244681918E+01  0.000000000E+00  0.00000E+00  9.000E+00
      21    -1     0     0   515   511  0.000000000E+00  0.000000000E+00 -8.625211111E+00  8.625211111E+00  0.000000000E+00  0.00000E+00  9.000E+00
      21     1     1     2   514   511  1.366748248E+01 -1.560965693E+01  5.474221982E+01  5.854205409E+01  0.000000000E+00  0.00000E+00  9.000E+00
       5     1     1     2   513     0 -6.937157774E+00  1.202583197E+01  2.003722351E+01  2.484502204E+01  4.800000191E+00  0.00000E+00  9.000E+00
      21     1     1     2   515   513 -6.730324708E+00  3.583824963E+00 -9.578352566E-01  7.684954158E+00  2.034977121E-07  0.00000E+00  9.000E+00
</event>
<event>
      5  10001  3.52971E+09  1.57324E+01 -1.00000E+00  1.75452E-01
      21    -1     0     0   512   511  0.000000000E+00  0.000000000E+00  1.287402329E+01  1.287402329E+01  0.000000000E+00  0.00000E+00  9.000E+00
      21    -1     0     0   515   516  0.000000000E+00  0.000000000E+00 -3.542847771E+01  3.542847771E+01  0.000000000E+00  0.00000E+00  9.000E+00
      21     1     1     2   512   516 -1.469948973E+01 -3.622578628E+00 -1.963236029E+01  2.479168499E+01  0.000000000E+00  0.00000E+00  9.000E+00
      21     1     1     2   515   514  9.754082840E+00 -6.159107633E+00  1.614475720E+00  1.164831622E+01  1.074538015E-07  0.00000E+00  9.000E+00
      21     1     1     2   514   511  4.945406889E+00  9.781686260E+00 -4.536569847E+00  1.186249979E+01  1.460009660E-07  0.00000E+00  9.000E+00
</event>
<event>
      5  10001  3.52971E+09  8.20206E+00 -1.00000E+00  2.06259E-01
       1    -1     0     0   515     0  0.000000000E+00  0.000000000E+00  3.731122577E+00  3.731122577E+00  0.000000000E+00  0.00000E+00  9.000E+00
      21    -1     0     0   513   514  0.000000000E+00  0.000000000E+00 -6.967938756E+01  6.967938756E+01  0.000000000E+00  0.00000E+00  9.000E+00
      21     1     1     2   515   514  9.893207186E+00  4.618701900E+00 -5.088241633E+01  5.204064034E+01  6.743495762E-07  0.00000E+00  9.000E+00
       1     1     1     2   512     0 -8.604632295E+00  1.485217403E+00 -7.145645633E+00  1.128781286E+01  3.300000131E-01  0.00000E+00  9.000E+00
      21     1     1     2   513   512 -1.288574891E+00 -6.103919303E+00 -7.920203018E+00  1.008205693E+01  1.884864366E-07  0.00000E+00  9.000E+00
</event>
<event>
      5  10001  3.52971E+09  6.83178E+00 -1.00000E+00  2.17052E-01
      21    -1     0     0   511   512  0.000000000E+00  0.000000000E+00  4.939973279E+00  4.939973279E+00  0.000000000E+00  0.00000E+00  9.000E+00
       2    -1     0     0   513     0  0.000000000E+00  0.000000000E+00 -6.279730384E+01  6.279730384E+01  0.000000000E+00  0.00000E+00  9.000E+00
      21     1     1     2   513   514  7.388240027E+00  9.201413199E-01 -6.879964071E+00  1.013738903E+01  1.192092896E-07  0.00000E+00  9.000E+00
       2     1     1     2   511     0 -1.158704147E+01 -1.565420604E+00 -5.194275001E+01  5.324348083E+01  3.300000131E-01  0.00000E+00  9.000E+00
      21     1     1     2   514   512  4.198801443E+00  6.452792841E-01  9.653835199E-01  4.356407264E+00  1.625524776E-07  0.00000E+00  9.000E+00
</event>
<event>
      5  10001  3.52971E+09  1.65898E+01 -1.00000E+00  1.73355E-01
      21    -1     0     0   516   512  0.000000000E+00  0.000000000E+00  4.099786063E+00  4.099786063E+00  0.000000000E+00  0.00000E+00  9.000E+00
      21    -1     0     0   515   516  0.000000000E+00  0.000000000E+00 -4.673097268E+01  4.673097268E+01  0.000000000E+00  0.00000E+00  9.000E+00
      21     1     1     2   511   512 -2.161425791E+00 -3.451853967E+00  1.786992262E+00  4.447516004E+00  2.138718977E-07  0.00000E+00  9.000E+00
       1     1     1     2   515     0 -4.316408481E+00  4.995304138E+00 -1.957454254E+01  2.066049519E+01  3.300000131E-01  0.00000E+00  9.000E+00
      -1     1     1     2     0   511  6.477834272E+00 -1.543450170E+00 -2.484363634E+01  2.572274755E+01  3.300000131E-01  0.00000E+00  9.000E+00
</event>
<event>
      5  10001  3.52971E+09  2.31394E+01 -1.00000E+00  1.61305E-01
       2    -1     0     0   511     0  0.000000000E+00  0.000000000E+00  5.994885146E+02  5.994885146E+02  0.000000000E+00  0.00000E+00  9.000E+00
      21    -1     0     0   514   511  0.000000000E+00  0.000000000E+00 -2.939762733E+01  2.939762733E+01  0.000000000E+00  0.00000E+00  9.000E+00
      21     1     1     2   512   513 -1.249778520E+01 -1.292041389E+01 -8.766884258E+00  1.999974974E+01  5.057621821E-07  0.00000E+00  9.000E+00
       2     1     1     2   513     0  9.862843836E+00  8.986282450E+00  5.934218538E+02  5.935719286E+02  3.300000131E-01  0.00000E+00  9.000E+00
      21     1     1     2   514   512  2.634941364E+00  3.934131438E+00 -1.456408221E+01  1.531446365E+01  1.498437535E-06  0.00000E+00  9.000E+00
</event>
<event>
      5  10001  3.52971E+09  9.06628E+00 -1.00000E+00  2.00806E-01
      21    -1     0     0   515   513  0.000000000E+00  0.000000000E+00  6.310659395E+01  6.310659395E+01  0.000000000E+00  0.00000E+00  9.000E+00
      21    -1     0     0   514   515  0.000000000E+00  0.000000000E+00 -4.212868450E+00  4.212868450E+00  0.000000000E+00  0.00000E+00  9.000E+00
      21     1     1     2   514   512  6.442277507E+00  1.347277302E+01  2.384220850E+01  2.813306699E+01  3.371747881E-07  0.00000E+00  9.000E+00
      21     1     1     2   511   513 -4.514011447E+00 -6.757502132E+00  8.618452361E+00  1.184558380E+01  1.685873940E-07  0.00000E+00  9.000E+00
      21     1     1     2   512   511 -1.928266060E+00 -6.715270891E+00  2.643306465E+01  2.734081161E+01  3.371747881E-07  0.00000E+00  9.000E+00
</event>
<event>
      5  10001  3.52971E+09  3.81816E+00 -1.00000E+00  2.68315E-01
      -1    -1     0     0     0   513  0.000000000E+00  0.000000000E+00  2.625518578E+01  2.625518578E+01  0.000000000E+00  0.00000E+00  9.000E+00
       1    -1     0     0   513     0  0.000000000E+00  0.000000000E+00 -4.866528722E+00  4.866528722E+00  0.000000000E+00  0.00000E+00  9.000E+00
      -1     1     1     2     0   514 -5.863792071E+00  7.525850406E+00  1.511000884E+01  1.787298937E+01  3.300000131E-01  0.00000E+00  9.000E+00
       1     1     1     2   515     0  2.980585266E+00 -7.403901801E+00  2.260783427E+00  8.301908944E+00  3.300000131E-01  0.00000E+00  9.000E+00
      21     1     1     2   514   515  2.883206805E+00 -1.219486051E-01  4.017864790E+00  4.946816190E+00  0.000000000E+00  0.00000E+00  9.000E+00
</event>
<event>
      5  10001  3.52971E+09  4.03478E+00 -1.00000E+00  2.62579E-01
      21    -1     0     0   513   511  0.000000000E+00  0.000000000E+00  3.035866914E+02  3.035866914E+02  0.000000000E+00  0.00000E+00  9.000E+00
      21    -1     0     0   512   515  0.000000000E+00  0.000000000E+00 -1.835534901E+01  1.835534901E+01  0.000000000E+00  0.00000E+00  9.000E+00
      -4     1     1     2     0   515  7.316392943E+00  7.602079212E+00  2.690705148E+01  2.894063983E+01  1.500000000E+00  0.00000E+00  9.000E+00
      21     1     1     2   512   511 -3.881149584E+00 -9.712183491E+00 -1.574287770E+01  1.890047694E+01  3.371747881E-07  0.00000E+00  9.000E+00
       4     1     1     2   513     0 -3.435243359E+00  2.110104279E+00  2.740671686E+02  2.741009236E+02  1.500000000E+00  0.00000E+00  9.000E+00
</event>
<event>
      5  10001  3.52971E+09  2.90301E+01 -1.00000E+00  1.54035E-01
      21    -1     0     0   514   511  0.000000000E+00  0.000000000E+00  2.923105610E+01  2.923105610E+01  0.000000000E+00  0.00000E+00  9.000E+00
      21    -1     0     0   516   514  0.000000000E+00  0.000000000E+00 -5.144057671E+01  5.144057671E+01  0.000000000E+00  0.00000E+00  9.000E+00
      21     1     1     2   512   511  7.191699417E+00  1.009977434E+00  1.752981595E+01  1.897458938E+01  5.331201500E-07  0.00000E+00  9.000E+00
      21     1     1     2   516   515 -4.283252439E+00 -5.519926738E+00 -4.980366971E+01  5.029136465E+01  0.000000000E+00  0.00000E+00  9.000E+00
      21     1     1     2   515   512 -2.908446977E+00  4.509949305E+00  1.006433315E+01  1.140567877E+01  2.665600750E-07  0.00000E+00  9.000E+00
</event>
<event>
      5  10001  3.52971E+09  5.53204E+00 -1.00000E+00  2.31085E-01
      21    -1     0     0   513   516  0.000000000E+00  0.000000000E+00  6.976185713E+02  6.976185713E+02  0.000000000E+00  0.00000E+00  9.000E+00
      21    -1     0     0   514   512  0.000000000E+00  0.000000000E+00 -3.612428330E+00  3.612428330E+00  0.000000000E+00  0.00000E+00  9.000E+00
      21     1     1     2   513   512 -7.059047593E+00 -1.288012327E+01  2.504792145E+02  2.509094749E+02  5.394796609E-06  0.00000E+00  9.000E+00
      21     1     1     2   511   516  6.497053696E+00  1.838354478E+01  4.443071239E+02  4.447347375E+02  0.000000000E+00  0.00000E+00  9.000E+00
      21     1     1     2   514   511  5.619938970E-01 -5.503421503E+00 -7.801954417E-01  5.586787119E+00  2.405049263E-07  0.00000E+00  9.000E+00
</event>
<event>
      5  10001  3.52971E+09  3.17283E+00 -1.00000E+00  2.89667E-01
      -1    -1     0     0     0   514  0.000000000E+00  0.000000000E+00  1.001217750E+00  1.001217750E+00  0.000000000E+00  0.00000E+00  9.000E+00
       1    -1     0     0   514     0  0.000000000E+00  0.000000000E+00 -6.100776338E+02  6.100776338E+02  0.000000000E+00  0.00000E+00  9.000E+00
      -1     1     1     2     0   513  9.810601526E+00 -7.281169122E+00 -3.915770123E+01  4.102069956E+01  3.300000131E-01  0.00000E+00  9.000E+00
      21     1     1     2   513   512 -5.535549327E+00  2.206397845E+00 -2.775143511E+02  2.775783233E+02  3.814697266E-06  0.00000E+00  9.000E+00
       1     1     1     2   512     0 -4.275052199E+00  5.074771277E+00 -2.924043637E+02  2.924798287E+02  3.300000131E-01  0.00000E+00  9.000E+00
</event>
<event>
      5  10001  3.52971E+09  1.16924E+01 -1.00000E+00  1.88217E-01
      21    -1     0     0   511   513  0.000000000E+00  0.000000000E+00  2.490786366E+01  2.490786366E+01  0.000000000E+00  0.00000E+00  9.000E+00
       1    -1     0     0   514     0  0.000000000E+00  0.000000000E+00 -1.503615134E+02  1.503615134E+02  0.000000000E+00  0.00000E+00  9.000E+00
      21     1     1     2   511   515 -1.413165076E+01  2.011071922E+01 -1.349064924E+01  2.803822743E+01  4.460403188E-07  0.00000E+00  9.000E+00
      21     1     1     2   514   513  2.429153902E+01 -2.589740938E+01 -8.635051636E-01  3.551760580E+01  6.373622241E-07  0.00000E+00  9.000E+00
       1     1     1     2   515     0 -1.015988825E+01  5.786690162E+00 -1.110994953E+02  1.117135438E+02  3.300000131E-01  0.00000E+00  9.000E+00
</event>
<event>
      5  10001  3.52971E+09  4.15278E+00 -1.00000E+00  2.59684E-01
      21    -1     0     0   512   514  0.000000000E+00  0.000000000E+00  7.649735948E+02  7.649735948E+02  0.000000000E+00  0.00000E+00  9.000E+00
      21    -1     0     0   515   516  0.000000000E+00  0.000000000E+00 -1.166125639E+01  1.166125639E+01  0.000000000E+00  0.00000E+00  9.000E+00
      21     1     1     2   512   516  8.011186388E+00  7.324579159E+00  7.617052627E+02  7.617826040E+02  1.078959322E-05  0.00000E+00  9.000E+00
       3     1     1     2   515     0 -4.898926512E+00 -7.377740888E+00 -4.849267581E+00  1.010920064E+01  5.000000000E-01  0.00000E+00  9.000E+00
      -3     1     1     2     0   514 -3.112259875E+00  5.316172917E-02 -3.543656693E+00  4.743046538E+00  5.000000000E-01  0.00000E+00  9.000E+00
</event>
<event>
      5  10001  3.52971E+09  6.88925E+00 -1.00000E+00  2.16531E-01
      21    -1     0     0   511   515  0.000000000E+00  0.000000000E+00  2.619079062E+02  2.619079062E+02  0.000000000E+00  0.00000E+00  9.000E+00
      21    -1     0     0   513   512  0.000000000E+00  0.000000000E+00 -7.187993556E+00  7.187993556E+00  0.000000000E+00  0.00000E+00  9.000E+00
      21     1     1     2   514   515  1.352574904E+00 -1.789241618E+01  2.409786634E+02  2.416457826E+02  3.814697266E-06  0.00000E+00  9.000E+00
      21     1     1     2   513   514 -2.305215425E-01  1.109515003E+01  1.661925894E+01  1.998387505E+01  2.384185791E-07  0.00000E+00  9.000E+00
      21     1     1     2   511   512 -1.122053361E+00  6.797266150E+00 -2.878009747E+00  7.466242091E+00  1.632340424E-07  0.00000E+00  9.000E+00
</event>
<event>
      5  10001  3.52971E+09  1.23687E+01 -1.00000E+00  1.85652E-01
      21    -1     0     0   516   513  0.000000000E+00  0.000000000E+00  2.247902122E+00  2.247902122E+00  0.000000000E+00  0.00000E+00  9.000E+00
      21    -1     0     0   517   516  0.000000000E+00  0.000000000E+00 -1.768548044E+02  1.768548044E+02  0.000000000E+00  0.00000E+00  9.000E+00
      21     1     1     2   517   512  7.722341027E+00  5.864748857E-01 -1.197603148E+02  1.200104642E+02  0.000000000E+00  0.00000E+00  9.000E+00
      21     1     1     2   514   513 -4.353112753E+00 -2.539543803E+00 -1.041272043E+00  5.146175360E+00  6.127621292E-07  0.00000E+00  9.000E+00
      21     1     1     2   512   514 -3.369228274E+00  1.953068917E+00 -5.380531539E+01  5.394606697E+01  6.743495762E-07  0.00000E+00  9.000E+00
</event>
<event>
      5  10001  3.52971E+09  4.47168E+00 -1.00000E+00  2.52554E-01
       4    -1     0     0   511     0  0.000000000E+00  0.000000000E+00  6.014271497E+01  6.014271497E+01  0.000000000E+00  0.00000E+00  9.000E+00
      -1    -1     0     0     0   511  0.000000000E+00  0.000000000E+00 -2.369508794E+01  2.369508794E+01  0.000000000E+00  0.00000E+00  9.000E+00
      21     1     1     2   515   513 -2.408559651E+00  1.304855553E+00 -3.973047687E+00  4.825859046E+00  1.519626234E-07  0.00000E+00  9.000E+00
       4     1     1     2   513     0  8.226776293E+00 -7.603161984E+00  5.819098008E+01  5.927839474E+01  1.500000000E+00  0.00000E+00  9.000E+00
      -1     1     1     2     0   515 -5.818216642E+00  6.298306431E+00 -1.777030536E+01  1.973354913E+01  3.300000131E-01  0.00000E+00  9.000E+00
</event>
<event>
      5  10001  3.52971E+09  8.01609E+00 -1.00000E+00  2.07551E-01
      21    -1     0     0   512   511  0.000000000E+00  0.000000000E+00  4.499905040E+02  4.499905040E+02  0.000000000E+00  0.00000E+00  9.000E+00
      21    -1     0     0   515   514  0.000000000E+00  0.000000000E+00 -2.129256645E+01  2.129256645E+01  0.000000000E+00  0.00000E+00  9.000E+00
      21     1     1     2   512   514  1.972448035E+00 -1.182983488E+01 -1.901484730E+01  2.248110234E+01  1.507891493E-06  0.00000E+00  9.000E+00
      21     1     1     2   515   513 -9.444853344E+00  1.473169859E+01  4.027647853E+02  4.031447637E+02  1.078959322E-05  0.00000E+00  9.000E+00
      21     1     1     2   513   511  7.472405309E+00 -2.901863706E+00  4.494799954E+01  4.565720444E+01  6.743495762E-07  0.00000E+00  9.000E+00
</event>
<event>
      5  10001  3.52971E+09  1.06390E+01 -1.00000E+00  1.92693E-01
       2    -1     0     0   512     0  0.000000000E+00  0.000000000E+00  1.017042000E+03  1.017042000E+03  0.000000000E+00  0.00000E+00  9.000E+00
      21    -1     0     0   516   512  0.000000000E+00  0.000000000E+00 -4.849452449E-01  4.849452449E-01  0.000000000E+00  0.00000E+00  9.000E+00
      21     1     1     2   514   513  2.214530801E+00  7.507173624E+00  4.217807205E+01  4.289815339E+01  1.651812370E-06  0.00000E+00  9.000E+00
       2     1     1     2   513     0 -9.714792090E+00 -5.859594058E+00  8.003458662E+02  8.004263404E+02  3.300000131E-01  0.00000E+00  9.000E+00
      21     1     1     2   516   514  7.500261289E+00 -1.647579566E+00  1.740331161E+02  1.742024510E+02  3.814697266E-06  0.00000E+00  9.000E+00
</event>
<event>
      5  10001  3.52971E+09  8.36299E+00 -1.00000E+00  2.05177E-01
      21    -1     0     0   514   515  0.000000000E+00  0.000000000E+00  1.289538204E+02  1.289538204E+02  0.000000000E+00  0.00000E+00  9.000E+00
      21    -1     0     0   512   511  0.000000000E+00  0.000000000E+00 -5.726826558E+00  5.726826558E+00  0.000000000E+00  0.00000E+00  9.000E+00
      -4     1     1     2     0   515 -2.488645174E+00  1.512860551E+01  8.861994782E+01  8.994894781E+01  1.500000000E+00  0.00000E+00  9.000E+00
      21     1     1     2   514   511  4.643236787E+00 -7.074268744E+00 -6.350206911E-01  8.485763218E+00  1.761554244E-07  0.00000E+00  9.000E+00
       4     1     1     2   512     0 -2.154591613E+00 -8.054336764E+00  3.524206669E+01  3.624593591E+01  1.500000000E+00  0.00000E+00  9.000E+00
</event>
<event>
      5  10001  3.52971E+09  1.46998E+01 -1.00000E+00  1.78211E-01
      21    -1     0     0   513   514  0.000000000E+00  0.000000000E+00  9.425987054E+00  9.425987054E+00  0.000000000E+00  0.00000E+00  9.000E+00
      21    -1     0     0   512   513  0.000000000E+00  0.000000000E+00 -8.365218204E+01  8.365218204E+01  0.000000000E+00  0.00000E+00  9.000E+00
      21     1     1     2   516   511 -2.014830589E+00 -9.234367008E+00 -1.366726114E+00  9.549922336E+00  3.002500784E-07  0.00000E+00  9.000E+00
      21     1     1     2   512   516 -2.229300109E+00  2.330817883E+01 -5.835497197E+01  6.287721156E+01  6.743495762E-07  0.00000E+00  9.000E+00
      21     1     1     2   511   514  4.244130698E+00 -1.407381182E+01 -1.450449690E+01  2.065103520E+01  1.685873940E-07  0.00000E+00  9.000E+00
</event>
<event>
      5  10001  3.52971E+09  8.12135E+00 -1.00000E+00  2.06814E-01
      21    -1     0     0   513   512  0.000000000E+00  0.000000000E+00  1.230843172E+01  1.230843172E+01  0.000000000E+00  0.00000E+00  9.000E+00
      21    -1     0     0   511   514  0.000000000E+00  0.000000000E+00 -2.545413784E+02  2.545413784E+02  0.000000000E+00  0.00000E+00  9.000E+00
      21     1     1     2   515   514  3.923370481E+00  7.382762027E+00 -2.422778280E+02  2.424220369E+02  3.814697266E-06  0.00000E+00  9.000E+00
      21     1     1     2   511   512 -1.136956680E+01 -1.062474821E+01 -2.822405123E+00  1.581512866E+01  5.662441254E-07  0.00000E+00  9.000E+00
      21     1     1     2   513   515  7.446196323E+00  3.241986187E+00  2.867286507E+00  8.612644543E+00  2.384185791E-07  0.00000E+00  9.000E+00
</event>
<event>
      5  10001  3.52971E+09  6.10659E+00 -1.00000E+00  2.24284E-01
      21    -1     0     0   516   512  0.000000000E+00  0.000000000E+00  2.283121238E+01  2.283121238E+01  0.000000000E+00  0.00000E+00  9.000E+00
      21    -1     0     0   517   516  0.000000000E+00  0.000000000E+00 -4.198195432E+01  4.198195432E+01  0.000000000E+00  0.00000E+00  9.000E+00
      21     1     1     2   511   512  3.717887315E+00 -9.198941728E+00  2.018687914E+01  2.249340580E+01  2.384185791E-07  0.00000E+00  9.000E+00
      21     1     1     2   517   514 -6.062459654E+00  4.243072464E+00 -3.351516672E+01  3.432234667E+01  6.743495762E-07  0.00000E+00  9.000E+00
      21     1     1     2   514   511  2.344572339E+00  4.955869264E+00 -5.822454354E+00  7.997414227E+00  1.460009660E-07  0.00000E+00  9.000E+00
</event>
<event>
      5  10001  3.52971E+09  3.84602E+00 -1.00000E+00  2.67544E-01
      21    -1     0     0   513   515  0.000000000E+00  0.000000000E+00  1.579624973E+01  1.579624973E+01  0.000000000E+00  0.00000E+00  9.000E+00
      21    -1     0     0   512   511  0.000000000E+00  0.000000000E+00 -8.803983797E+01  8.803983797E+01  0.000000000E+00  0.00000E+00  9.000E+00
      21     1     1     2   513   511 -1.139122516E+01 -1.589751830E+00  1.319483965E+01  1.750403139E+01  6.743495762E-07  0.00000E+00  9.000E+00
      -4     1     1     2     0   515  3.652072041E+00 -1.755585641E-02 -3.925990885E+01  3.945793179E+01  1.500000000E+00  0.00000E+00  9.000E+00
       4     1     1     2   512     0  7.739153121E+00  1.607307686E+00 -4.617851903E+01  4.687412452E+01  1.500000000E+00  0.00000E+00  9.000E+00
</event>
<event>
      5  10001  3.52971E+09  7.69595E+00 -1.00000E+00  2.09890E-01
      21    -1     0     0   516   511  0.000000000E+00  0.000000000E+00  2.702784717E+00  2.702784717E+00  0.000000000E+00  0.00000E+00  9.000E+00
      21    -1     0     0   514   516  0.000000000E+00  0.000000000E+00 -3.438541046E+02  3.438541046E+02  0.000000000E+00  0.00000E+00  9.000E+00
      -2     1     1     2     0   512 -9.797599519E+00 -1.132724630E+01 -1.207416270E+02  1.216673697E+02  3.300000131E-01  0.00000E+00  9.000E+00
       2     1     1     2   514     0  4.109479890E+00  6.144485065E+00 -2.157844751E+02  2.159113038E+02  3.300000131E-01  0.00000E+00  9.000E+00
      21     1     1     2   512   511  5.688119629E+00  5.182761239E+00 -4.625217783E+00  8.978215776E+00  1.976862425E-07  0.00000E+00  9.000E+00
</event>
<event>
      5  10001  3.52971E+09  2.21497E+01 -1.00000E+00  1.62789E-01
      21    -1     0     0   513   514  0.000000000E+00  0.000000000E+00  2.541518566E+02  2.541518566E+02  0.000000000E+00  0.00000E+00  9.000E+00
      21    -1     0     0   512   511  0.000000000E+00  0.000000000E+00 -1.519012744E+00  1.519012744E+00  0.000000000E+00  0.00000E+00  9.000E+00
      21     1     1     2   513   511 -9.944368518E+00 -4.529168115E+00  2.974154481E+01  3.168538018E+01  3.371747881E-07  0.00000E+00  9.000E+00
      21     1     1     2   512   515  7.711566928E+00  6.193737967E+00  4.507754253E+01  4.614992411E+01  0.000000000E+00  0.00000E+00  9.000E+00
      21     1     1     2   515   514  2.232801590E+00 -1.664569852E+00  1.778137565E+02  1.778355651E+02  1.907348633E-06  0.00000E+00  9.000E+00
</event>
<event>
      5  10001  3.52971E+09  1.92621E+01 -1.00000E+00  1.67724E-01
      21    -1     0     0   516   511  0.000000000E+00  0.000000000E+00  1.688558194E+02  1.688558194E+02  0.000000000E+00  0.00000E+00  9.000E+00
      21    -1     0     0   517   514  0.000000000E+00  0.000000000E+00 -9.861118015E+00  9.861118015E+00  0.000000000E+00  0.00000E+00  9.000E+00
      21     1     1     2   516   514 -1.509406485E+01  5.785611351E+00  1.604750823E+02  1.612871853E+02  1.907348633E-06  0.00000E+00  9.000E+00
      21     1     1     2   517   512 -3.564010901E-01 -9.265001668E-01 -6.995340700E-01  1.214401997E+00  7.413234093E-08  0.00000E+00  9.000E+00
      21     1     1     2   512   511  1.545046594E+01 -4.859111184E+00 -7.808468264E-01  1.621535017E+01  6.581018173E-07  0.00000E+00  9.000E+00
</event>
<event>
      5  10001  3.52971E+09  1.63891E+01 -1.00000E+00  1.73831E-01
      21    -1     0     0   512   511  0.000000000E+00  0.000000000E+00  5.492425831E+01  5.492425831E+01  0.000000000E+00  0.00000E+00  9.000E+00
       2    -1     0     0   513     0  0.000000000E+00  0.000000000E+00 -8.693656333E+00  8.693656333E+00  0.000000000E+00  0.00000E+00  9.000E+00
      21     1     1     2   513   514 -4.286896587E+00 -6.195108099E-01  6.356143571E+00  7.691673231E+00  1.192092896E-07  0.00000E+00  9.000E+00
       2     1     1     2   512     0  1.063318273E+01  4.304381192E+00 -3.450932593E+00  1.198374350E+01  3.300000131E-01  0.00000E+00  9.000E+00
      21     1     1     2   514   511 -6.346286146E+00 -3.684870382E+00  4.332539100E+01  4.394249791E+01  6.743495762E-07  0.00000E+00  9.000E+00
</event>
<event>
      5  10001  3.52971E+09  4.82404E+00 -1.00000E+00  2.45659E-01
      21    -1     0     0   515   514  0.000000000E+00  0.000000000E+00  1.281127292E+01  1.281127292E+01  0.000000000E+00  0.00000E+00  9.000E+00
      21    -1     0     0   513   512  0.000000000E+00  0.000000000E+00 -1.974607874E+02  1.974607874E+02  0.000000000E+00  0.00000E+00  9.000E+00
      21     1     1     2   515   511 -6.083217816E+00  8.573557643E+00  6.905109337E+00  1.257743871E+01  3.264680848E-07  0.00000E+00  9.000E+00
      21     1     1     2   513   514  8.962916032E+00 -1.244379632E+01 -1.632416956E+01  2.239777762E+01  3.371747881E-07  0.00000E+00  9.000E+00
      21     1     1     2   511   512 -2.879698216E+00  3.870238674E+00 -1.752304542E+02  1.752968440E+02  1.907348633E-06  0.00000E+00  9.000E+00
</event>
<event>
      5  10001  3.52971E+09  3.49916E+00 -1.00000E+00  2.77946E-01
      21    -1     0     0   516   512  0.000000000E+00  0.000000000E+00  2.622473006E-01  2.622473006E-01  0.000000000E+00  0.00000E+00  9.000E+00
      21    -1     0     0   511   517  0.000000000E+00  0.000000000E+00 -8.569513770E+02  8.569513770E+02  0.000000000E+00  0.00000E+00  9.000E+00
      21     1     1     2   516   517  1.146598309E+01 -2.710256490E+00 -6.368008760E+02  6.369098601E+02  7.629394531E-06  0.00000E+00  9.000E+00
      21     1     1     2   511   513 -8.859915345E+00  5.557319321E-01 -1.079326819E+02  1.082971411E+02  1.907348633E-06  0.00000E+00  9.000E+00
      21     1     1     2   513   512 -2.606067745E+00  2.154524558E+00 -1.119555718E+02  1.120066231E+02  1.348699152E-06  0.00000E+00  9.000E+00
</event>
<event>
      5  10001  3.52971E+09  1.31817E+01 -1.00000E+00  1.82835E-01
      21    -1     0     0   514   513  0.000000000E+00  0.000000000E+00  8.544732305E+00  8.544732305E+00  0.000000000E+00  0.00000E+00  9.000E+00
      21    -1     0     0   512   514  0.000000000E+00  0.000000000E+00 -6.218287724E+01  6.218287724E+01  0.000000000E+00  0.00000E+00  9.000E+00
      21     1     1     2   511   513  1.188265511E+01  7.085936820E+00  1.139253710E+00  1.388185478E+01  2.488984628E-07  0.00000E+00  9.000E+00
      21     1     1     2   512   515 -3.634657364E+00  4.090502337E-01 -8.657519704E+00  9.398441556E+00  1.192092896E-07  0.00000E+00  9.000E+00
      21     1     1     2   515   511 -8.247997743E+00 -7.494987054E+00 -4.611987894E+01  4.744731321E+01  9.536743164E-07  0.00000E+00  9.000E+00
</event>
<event>
      5  10001  3.52971E+09  5.64141E+00 -1.00000E+00  2.29704E-01
      21    -1     0     0   516   514  0.000000000E+00  0.000000000E+00  3.410641094E+01  3.410641094E+01  0.000000000E+00  0.00000E+00  9.000E+00
      21    -1     0     0   513   511  0.000000000E+00  0.000000000E+00 -5.569458563E+01  5.569458563E+01  0.000000000E+00  0.00000E+00  9.000E+00
      21     1     1     2   516   511  8.781809501E+00  1.106046327E+01 -4.294064570E+01  4.520346313E+01  6.743495762E-07  0.00000E+00  9.000E+00
      21     1     1     2   513   512 -3.169300694E+00 -1.163075946E+01 -8.155960397E+00  1.455468043E+01  2.665600750E-07  0.00000E+00  9.000E+00
      21     1     1     2   512   514 -5.612508806E+00  5.702961928E-01  2.950843141E+01  3.004285301E+01  4.768371582E-07  0.00000E+00  9.000E+00
</event>
<event>
      5  10001  3.52971E+09  5.27999E+00 -1.00000E+00  2.34448E-01
      -2    -1     0     0     0   513  0.000000000E+00  0.000000000E+00  7.198006541E-01  7.198006541E-01  0.000000000E+00  0.00000E+00  9.000E+00
      -4    -1     0     0     0   515  0.000000000E+00  0.000000000E+00 -4.317119185E+02  4.317119185E+02  0.000000000E+00  0.00000E+00  9.000E+00
      -4     1     1     2     0   513  2.365602884E-01 -1.225899092E+01 -2.206029036E+02  2.209484779E+02  1.500000000E+00  0.00000E+00  9.000E+00
      21     1     1     2   512   515 -3.521844290E+00  8.142782635E+00 -1.952370087E+02  1.954384759E+02  3.814697266E-06  0.00000E+00  9.000E+00
      -2     1     1     2     0   512  3.285284002E+00  4.116208284E+00 -1.515220553E+01  1.604476531E+01  3.300000131E-01  0.00000E+00  9.000E+00
</event>
<event>
      5  10001  3.52971E+09  6.21667E+00 -1.00000E+00  2.23099E-01
       2    -1     0     0   514     0  0.000000000E+00  0.000000000E+00  1.468100857E+01  1.468100857E+01  0.000000000E+00  0.00000E+00  9.000E+00
      21    -1     0     0   511   512  0.000000000E+00  0.000000000E+00 -1.811010990E+01  1.811010990E+01  0.000000000E+00  0.00000E+00  9.000E+00
      21     1     1     2   514   512  3.589391091E+00 -1.036982379E+01 -1.339542631E+01  1.731630503E+01  0.000000000E+00  0.00000E+00  9.000E+00
      21     1     1     2   511   513 -2.909300619E+00  3.874629958E+00  2.197478913E+00  5.320310233E+00  0.000000000E+00  0.00000E+00  9.000E+00
       2     1     1     2   513     0 -6.800904713E-01  6.495193837E+00  7.768846070E+00  1.015450320E+01  3.300000131E-01  0.00000E+00  9.000E+00
</event>
<event>
      5  10001  3.52971E+09  2.58483E+00 -1.00000E+00  3.17974E-01
      21    -1     0     0   511   512  0.000000000E+00  0.000000000E+00  2.352517648E+00  2.352517648E+00  0.000000000E+00  0.00000E+00  9.000E+00
      21    -1     0     0   513   515  0.000000000E+00  0.000000000E+00 -8.376099940E+01  8.376099940E+01  0.000000000E+00  0.00000E+00  9.000E+00
      21     1     1     2   511   515  7.782399914E+00 -7.212006343E+00 -2.758671025E+01  2.955681591E+01  3.371747881E-07  0.00000E+00  9.000E+00
       2     1     1     2   513     0 -8.427297459E+00  4.710248993E+00 -5.292918280E+01  5.380346717E+01  3.300000131E-01  0.00000E+00  9.000E+00
      -2     1     1     2     0   512  6.448975446E-01  2.501757350E+00 -8.925886969E-01  2.753233966E+00  3.300000131E-01  0.00000E+00  9.000E+00
</event>
<event>
      5  10001  3.52971E+09  1.05687E+01 -1.00000E+00  1.93016E-01
      21    -1     0     0   514   513  0.000000000E+00  0.000000000E+00  1.287824974E+02  1.287824974E+02  0.000000000E+00  0.00000E+00  9.000E+00
      21    -1     0     0   516   512  0.000000000E+00  0.000000000E+00 -4.952981645E+00  4.952981645E+00  0.000000000E+00  0.00000E+00  9.000E+00
      21     1     1     2   514   512  1.113293734E+01 -6.568225759E+00  6.386585905E+00  1.441777941E+01  2.528810911E-07  0.00000E+00  9.000E+00
       1     1     1     2   516     0 -5.995771201E+00  3.894606115E-01  9.918112403E+01  9.936350042E+01  3.300000131E-01  0.00000E+00  9.000E+00
      -1     1     1     2     0   513 -5.137166140E+00  6.178765148E+00  1.826180583E+01  1.995419923E+01  3.300000131E-01  0.00000E+00  9.000E+00
</event>
<event>
      5  10001  3.52971E+09  4.74251E+00 -1.00000E+00  2.47174E-01
      21    -1     0     0   511   512  0.000000000E+00  0.000000000E+00  3.305043175E+02  3.305043175E+02  0.000000000E+00  0.00000E+00  9.000E+00
      21    -1     0     0   515   513  0.000000000E+00  0.000000000E+00 -4.383711862E+01  4.383711862E+01  0.000000000E+00  0.00000E+00  9.000E+00
      21     1     1     2   511   513  6.063548463E+00  1.081329526E+01  3.290060873E+02  3.292395776E+02  0.000000000E+00  0.00000E+00  9.000E+00
      21     1     1     2   515   514 -3.461699774E+00 -1.213044888E+01 -3.366420813E+01  3.595010520E+01  2.523185073E-06  0.00000E+00  9.000E+00
      21     1     1     2   514   512 -2.601848689E+00  1.317153617E+00 -8.674680309E+00  9.151753314E+00  1.192092896E-07  0.00000E+00  9.000E+00
</event>
<event>
      5  10001  3.52971E+09  5.95226E+00 -1.00000E+00  2.26006E-01
      21    -1     0     0   516   514  0.000000000E+00  0.000000000E+00  1.063050983E+01  1.063050983E+01  0.000000000E+00  0.00000E+00  9.000E+00
      21    -1     0     0   512   516  0.000000000E+00  0.000000000E+00 -5.222317721E+02  5.222317721E+02  0.000000000E+00  0.00000E+00  9.000E+00
      21     1     1     2   515   514  6.645624379E+00 -8.602844488E+00  7.764412361E+00  1.335886806E+01  8.172577143E-07  0.00000E+00  9.000E+00
      21     1     1     2   512   511 -5.458700308E-01  2.492698289E+00 -2.155066965E+02  2.155218035E+02  3.814697266E-06  0.00000E+00  9.000E+00
      21     1     1     2   511   515 -6.099754348E+00  6.110146199E+00 -3.038589781E+02  3.039816104E+02  3.814697266E-06  0.00000E+00  9.000E+00
</event>
<event>
      5  10001  3.52971E+09  8.96781E+00 -1.00000E+00  2.01386E-01
      21    -1     0     0   516   512  0.000000000E+00  0.000000000E+00  1.323658848E+02  1.323658848E+02  0.000000000E+00  0.00000E+00  9.000E+00
      21    -1     0     0   514   515  0.000000000E+00  0.000000000E+00 -5.859650186E+01  5.859650186E+01  0.000000000E+00  0.00000E+00  9.000E+00
      21     1     1     2   513   515  9.513429202E+00  7.959871052E-01 -5.597321282E+01  5.678150653E+01  0.000000000E+00  0.00000E+00  9.000E+00
      21     1     1     2   514   512 -1.223840910E+01  7.747785546E+00  2.381264521E+01  2.787200944E+01  6.743495762E-07  0.00000E+00  9.000E+00
      21     1     1     2   516   513  2.724979897E+00 -8.543772651E+00  1.059299506E+02  1.063088707E+02  0.000000000E+00  0.00000E+00  9.000E+00
</event>
<event>
      5  10001  3.52971E+09  7.61181E+00 -1.00000E+00  2.10530E-01
      21    -1     0     0   513   512  0.000000000E+00  0.000000000E+00  1.177224004E+00  1.177224004E+00  0.000000000E+00  0.00000E+00  9.000E+00
      -1    -1     0     0     0   511  0.000000000E+00  0.000000000E+00 -1.125525089E+02  1.125525089E+02  0.000000000E+00  0.00000E+00  9.000E+00
      -1     1     1     2     0   512 -3.495830318E+00  9.078362774E+00 -7.343979937E+01  7.408205270E+01  3.300000131E-01  0.00000E+00  9.000E+00
      21     1     1     2   514   511 -2.066199356E-01 -4.875320942E+00 -2.611838273E+01  2.657030979E+01  5.840038640E-07  0.00000E+00  9.000E+00
      21     1     1     2   513   514  3.702450254E+00 -4.203041832E+00 -1.181710284E+01  1.307737045E+01  2.920019320E-07  0.00000E+00  9.000E+00
</event>
<event>
      5  10001  3.52971E+09  6.15496E+00 -1.00000E+00  2.23759E-01
      21    -1     0     0   515   511  0.000000000E+00  0.000000000E+00  6.602468829E+01  6.602468829E+01  0.000000000E+00  0.00000E+00  9.000E+00
      21    -1     0     0   512   515  0.000000000E+00  0.000000000E+00 -8.673223440E+00  8.673223440E+00  0.000000000E+00  0.00000E+00  9.000E+00
      21     1     1     2   514   511 -1.605159579E+00  1.370979735E+01  5.633200062E+01  5.799852907E+01  9.536743164E-07  0.00000E+00  9.000E+00
      21     1     1     2   516   514 -4.669714321E-01 -7.914128131E+00 -3.885685077E+00  8.828931697E+00  5.960464478E-08  0.00000E+00  9.000E+00
      21     1     1     2   512   516  2.072131012E+00 -5.795669216E+00  4.905149303E+00  7.870450957E+00  5.960464478E-08  0.00000E+00  9.000E+00
</event>
<event>
      5  10001  3.52971E+09  5.27237E+00 -1.00000E+00  2.34554E-01
      -3    -1     0     0     0   512  0.000000000E+00  0.000000000E+00  1.183740697E+00  1.183740697E+00  0.000000000E+00  0.00000E+00  9.000E+00
       2    -1     0     0   511     0  0.000000000E+00  0.000000000E+00 -1.252220989E+03  1.252220989E+03  0.000000000E+00  0.00000E+00  9.000E+00
      -3     1     1     2     0   513  9.085932102E+00  1.143704456E+01 -4.633426976E+01  4.858471678E+01  5.000000000E-01  0.00000E+00  9.000E+00
       2     1     1     2   513     0 -3.897563610E+00 -1.050163946E+01 -9.197547339E+02  9.198230019E+02  3.300000131E-01  0.00000E+00  9.000E+00
      21     1     1     2   511   512 -5.188368492E+00 -9.354051059E-01 -2.849482449E+02  2.849970112E+02  3.814697266E-06  0.00000E+00  9.000E+00
</event>
<event>
      5  10001  3.52971E+09  7.81484E+00 -1.00000E+00  2.09004E-01
      21    -1     0     0   513   511  0.000000000E+00  0.000000000E+00  6.830530415E+01  6.830530415E+01  0.000000000E+00  0.00000E+00  9.000E+00
      -1    -1     0     0     0   514  0.000000000E+00  0.000000000E+00 -2.918782283E+02  2.918782283E+02  0.000000000E+00  0.00000E+00  9.000E+00
      -1     1     1     2     0   512 -1.533489970E+01  8.074630811E+00 -2.867886305E+02  2.873120016E+02  3.300000131E-01  0.00000E+00  9.000E+00
      21     1     1     2   512   511  7.886520222E+00 -5.709642865E+00  6.425448317E+01  6.498796681E+01  1.348699152E-06  0.00000E+00  9.000E+00
      21     1     1     2   513   514  7.448379483E+00 -2.364987946E+00 -1.038776897E+00  7.883564064E+00  8.688795410E-08  0.00000E+00  9.000E+00
</event>
<event>
      5  10001  3.52971E+09  1.21999E+01 -1.00000E+00  1.86273E-01
       4    -1     0     0   512     0  0.000000000E+00  0.000000000E+00  5.905350635E+01  5.905350635E+01  0.000000000E+00  0.00000E+00  9.000E+00
      21    -1     0     0   513   514  0.000000000E+00  0.000000000E+00 -2.732385659E+00  2.732385659E+00  0.000000000E+00  0.00000E+00  9.000E+00
      21     1     1     2   511   514  4.151396144E+00  3.119139046E+00  2.235722082E+01  2.295230797E+01  4.768371582E-07  0.00000E+00  9.000E+00
       4     1     1     2   513     0  2.624740302E-01 -1.029103115E+01  1.838092228E+01  2.112066568E+01  1.500000000E+00  0.00000E+00  9.000E+00
      21     1     1     2   512   511 -4.413870174E+00  7.171892106E+00  1.558297759E+01  1.771291836E+01  2.384185791E-07  0.00000E+00  9.000E+00
</event>
<event>
      5  10001  3.52971E+09  1.08802E+01 -1.00000E+00  1.91611E-01
      -1    -1     0     0     0   511  0.000000000E+00  0.000000000E+00  2.463002924E+02  2.463002924E+02  0.000000000E+00  0.00000E+00  9.000E+00
      21    -1     0     0   511   512  0.000000000E+00  0.000000000E+00 -1.561124979E+01  1.561124979E+01  0.000000000E+00  0.00000E+00  9.000E+00
      -1     1     1     2     0   515  1.438017483E+01  1.278620440E+00  2.308537606E+02  2.313049762E+02  3.300000131E-01  0.00000E+00  9.000E+00
      21     1     1     2   513   512 -8.952176676E+00 -8.028117050E+00 -1.129890269E+01  1.650022220E+01  2.064765462E-07  0.00000E+00  9.000E+00
      21     1     1     2   515   513 -5.427998151E+00  6.749496611E+00  1.113418467E+01  1.410634384E+01  2.064765462E-07  0.00000E+00  9.000E+00
</event>
<event>
      5  10001  3.52971E+09  6.41004E+00 -1.00000E+00  2.21098E-01
      -4    -1     0     0     0   514  0.000000000E+00  0.000000000E+00  1.904507256E+01  1.904507256E+01  0.000000000E+00  0.00000E+00  9.000E+00
      -2    -1     0     0     0   512  0.000000000E+00  0.000000000E+00 -1.848260041E+02  1.848260041E+02  0.000000000E+00  0.00000E+00  9.000E+00
      -4     1     1     2     0   512 -1.179733848E+01  3.165908629E+00  9.795831939E+00  1.572922426E+01  1.500000000E+00  0.00000E+00  9.000E+00
      21     1     1     2   516   514  1.692174511E+01  6.823669792E-01 -5.301762194E+00  1.774597883E+01  6.049210766E-07  0.00000E+00  9.000E+00
      -2     1     1     2     0   516 -5.124406632E+00 -3.848275608E+00 -1.702750013E+02  1.703958735E+02  3.300000131E-01  0.00000E+00  9.000E+00
</event>
<event>
      5  10001  3.52971E+09  1.86140E+01 -1.00000E+00  1.68981E-01
      21    -1     0     0   511   512  0.000000000E+00  0.000000000E+00  1.820259491E+01  1.820259491E+01  0.000000000E+00  0.00000E+00  9.000E+00
      21    -1     0     0   513   511  0.000000000E+00  0.000000000E+00 -3.178355824E+01  3.178355824E+01  0.000000000E+00  0.00000E+00  9.000E+00
      21     1     1     2   513   515 -1.511555925E+00 -8.232032222E+00 -1.876949896E+01  2.055104005E+01  2.384185791E-07  0.00000E+00  9.000E+00
      21     1     1     2   515   514 -3.162130728E+00  4.141276355E+00  1.607669255E+01  1.689997881E+01  4.129530925E-07  0.00000E+00  9.000E+00
      21     1     1     2   514   512  4.673686653E+00  4.090755867E+00 -1.088815692E+01  1.253513429E+01  2.064765462E-07  0.00000E+00  9.000E+00
</event>
<event>
      5  10001  3.52971E+09  4.99273E+00 -1.00000E+00  2.42664E-01
      21    -1     0     0   516   515  0.000000000E+00  0.000000000E+00  4.197862509E+00  4.197862509E+00  0.000000000E+00  0.00000E+00  9.000E+00
      21    -1     0     0   513   512  0.000000000E+00  0.000000000E+00 -1.353099027E+02  1.353099027E+02  0.000000000E+00  0.00000E+00  9.000E+00
      21     1     1     2   516   512  5.248606101E+00  8.035378377E+00 -1.217123390E+02  1.220901660E+02  1.348699152E-06  0.00000E+00  9.000E+00
      21     1     1     2   511   515 -1.242176063E+00 -6.856217999E+00  1.767708815E-01  6.970077085E+00  1.479601645E-07  0.00000E+00  9.000E+00
      21     1     1     2   513   511 -4.006430039E+00 -1.179160378E+00 -9.576472007E+00  1.044752205E+01  1.192092896E-07  0.00000E+00  9.000E+00
</event>
<event>
      5  10001  3.52971E+09  7.88728E+00 -1.00000E+00  2.08474E-01
      21    -1     0     0   513   511  0.000000000E+00  0.000000000E+00  2.766142405E+01  2.766142405E+01  0.000000000E+00  0.00000E+00  9.000E+00
       2    -1     0     0   514     0  0.000000000E+00  0.000000000E+00 -1.519509861E+02  1.519509861E+02  0.000000000E+00  0.00000E+00  9.000E+00
      21     1     1     2   514   511  4.682392034E+00  1.532945336E+01  2.478511874E+01  2.951641995E+01  3.371747881E-07  0.00000E+00  9.000E+00
       2     1     1     2   512     0 -4.091790801E+00 -3.965909708E+00 -6.586918021E+01  6.611602675E+01  3.300000131E-01  0.00000E+00  9.000E+00
      21     1     1     2   513   512 -5.906012329E-01 -1.136354365E+01 -8.320550062E+01  8.397996348E+01  1.348699152E-06  0.00000E+00  9.000E+00
</event>
<event>
      5  10001  3.52971E+09  7.87404E+00 -1.00000E+00  2.08571E-01
      21    -1     0     0   515   511  0.000000000E+00  0.000000000E+00  3.680354385E+00  3.680354385E+00  0.000000000E+00  0.00000E+00  9.000E+00
      21    -1     0     0   516   515  0.000000000E+00  0.000000000E+00 -4.247604185E+01  4.247604185E+01  0.000000000E+00  0.00000E+00  9.000E+00
      21     1     1     2   516   514  8.513527591E+00 -7.104247983E+00 -2.658484042E+01  2.880458699E+01  3.371747881E-07  0.00000E+00  9.000E+00
       4     1     1     2   514     0 -1.447647478E+00  5.200591875E-01 -7.188601348E-01  2.265591462E+00  1.500000000E+00  0.00000E+00  9.000E+00
      -4     1     1     2     0   511 -7.065880113E+00  6.584188795E+00 -1.149198691E+01  1.508621778E+01  1.500000000E+00  0.00000E+00  9.000E+00
</event>
<event>
      5  10001  3.52971E+09  1.36449E+01 -1.00000E+00  1.81343E-01
      21    -1     0     0   513   511  0.000000000E+00  0.000000000E+00  2.661313537E+00  2.661313537E+00  0.000000000E+00  0.00000E+00  9.000E+00
       1    -1     0     0   511     0  0.000000000E+00  0.000000000E+00 -9.200622493E+01  9.200622493E+01  0.000000000E+00  0.00000E+00  9.000E+00
      21     1     1     2   513   514 -5.621407704E+00 -8.805924760E+00 -3.014868399E+01  3.190748630E+01  0.000000000E+00  0.00000E+00  9.000E+00
       1     1     1     2   512     0  2.546213911E+00  8.628746713E+00 -5.898984610E+01  5.967285244E+01  3.300000131E-01  0.00000E+00  9.000E+00
      21     1     1     2   514   512  3.075193793E+00  1.771780463E-01 -2.063812979E-01  3.087199729E+00  4.123140801E-08  0.00000E+00  9.000E+00
</event>
<event>
      5  10001  3.52971E+09  4.53230E+00 -1.00000E+00  2.51300E-01
      -1    -1     0     0     0   515  0.000000000E+00  0.000000000E+00  5.183874001E+01  5.183874001E+01  0.000000000E+00  0.00000E+00  9.000E+00
      21    -1     0     0   516   513  0.000000000E+00  0.000000000E+00 -1.320395343E+01  1.320395343E+01  0.000000000E+00  0.00000E+00  9.000E+00
      -1     1     1     2     0   511  2.778371372E-01  1.082575922E+01  4.049040554E+01  4.191486725E+01  3.300000131E-01  0.00000E+00  9.000E+00
      21     1     1     2   511   513  4.247795479E+00 -1.106761239E+01  6.575143791E+00  1.355611767E+01  4.768371582E-07  0.00000E+00  9.000E+00
      21     1     1     2   516   515 -4.525632616E+00  2.418531644E-01 -8.430762744E+00  9.571708519E+00  1.192092896E-07  0.00000E+00  9.000E+00
</event>
<event>
      5  10001  3.52971E+09  1.03302E+01 -1.00000E+00  1.94135E-01
      21    -1     0     0   512   513  0.000000000E+00  0.000000000E+00  5.548989533E+01  5.548989533E+01  0.000000000E+00  0.00000E+00  9.000E+00
      21    -1     0     0   515   514  0.000000000E+00  0.000000000E+00 -3.823569981E+02  3.823569981E+02  0.000000000E+00  0.00000E+00  9.000E+00
      21     1     1     2   512   514 -8.342788261E+00  3.034514301E+00 -9.879765549E+01  9.919570113E+01  0.000000000E+00  0.00000E+00  9.000E+00
      21     1     1     2   515   511  1.628401091E+01  3.572354374E+00 -2.826300262E+02  2.831212858E+02  7.629394531E-06  0.00000E+00  9.000E+00
      21     1     1     2   511   513 -7.941222650E+00 -6.606868675E+00  5.456057901E+01  5.552990648E+01  1.168007728E-06  0.00000E+00  9.000E+00
</event>
<event>
      5  10001  3.52971E+09  2.04925E+01 -1.00000E+00  1.65499E-01
      -2    -1     0     0     0   513  0.000000000E+00  0.000000000E+00  4.103380070E+02  4.103380070E+02  0.000000000E+00  0.00000E+00  9.000E+00
      21    -1     0     0   511   512  0.000000000E+00  0.000000000E+00 -6.386554949E+00  6.386554949E+00  0.000000000E+00  0.00000E+00  9.000E+00
      21     1     1     2   514   512  1.423592730E+01  2.701026181E+00  7.414719795E+00  1.627683133E+01  4.460403188E-07  0.00000E+00  9.000E+00
      21     1     1     2   511   513 -1.391490145E+01 -1.993489172E+01  3.496121243E+02  3.504563622E+02  3.814697266E-06  0.00000E+00  9.000E+00
      -2     1     1     2     0   514 -3.210258434E-01  1.723386554E+01  4.692460799E+01  4.999136840E+01  3.300000131E-01  0.00000E+00  9.000E+00
</event>
<event>
      5  10001  3.52971E+09  3.71626E+00 -1.00000E+00  2.71225E-01
      21    -1     0     0   511   513  0.000000000E+00  0.000000000E+00  1.786322616E+01  1.786322616E+01  0.000000000E+00  0.00000E+00  9.000E+00
       1    -1     0     0   513     0  0.000000000E+00  0.000000000E+00 -3.197687655E+01  3.197687655E+01  0.000000000E+00  0.00000E+00  9.000E+00
       2     1     1     2   511     0 -9.200181942E+00 -2.331194225E+00  2.629412517E+00  9.853959837E+00  3.300000131E-01  0.00000E+00  9.000E+00
       1     1     1     2   515     0  1.933079335E+01  1.711002312E+00 -2.133378498E+01  2.884174721E+01  3.300000131E-01  0.00000E+00  9.000E+00
      -2     1     1     2     0   515 -1.013061141E+01  6.201919135E-01  4.590722073E+00  1.114439566E+01  3.300000131E-01  0.00000E+00  9.000E+00
</event>
<event>
      5  10001  3.52971E+09  4.98732E+00 -1.00000E+00  2.42757E-01
      21    -1     0     0   512   511  0.000000000E+00  0.000000000E+00  3.045700686E+01  3.045700686E+01  0.000000000E+00  0.00000E+00  9.000E+00
      21    -1     0     0   513   514  0.000000000E+00  0.000000000E+00 -1.388501856E+02  1.388501856E+02  0.000000000E+00  0.00000E+00  9.000E+00
      21     1     1     2   512   514 -2.144705821E-01  9.280976474E+00 -1.458676739E+01  1.729035294E+01  4.460403188E-07  0.00000E+00  9.000E+00
      21     1     1     2   513   515 -4.432538057E+00 -1.109168059E+01 -1.224051156E+02  1.229865240E+02  1.907348633E-06  0.00000E+00  9.000E+00
      21     1     1     2   515   511  4.647008639E+00  1.810704113E+00  2.859870419E+01  2.903031553E+01  4.768371582E-07  0.00000E+00  9.000E+00
</event>
<event>
      5  10001  3.52971E+09  1.08213E+01 -1.00000E+00  1.91872E-01
      21    -1     0     0   512   511  0.000000000E+00  0.000000000E+00  1.603896055E+01  1.603896055E+01  0.000000000E+00  0.00000E+00  9.000E+00
       1    -1     0     0   513     0  0.000000000E+00  0.000000000E+00 -5.143724867E+01  5.143724867E+01  0.000000000E+00  0.00000E+00  9.000E+00
      21     1     1     2   513   511 -6.658296433E+00 -1.034184373E+01 -2.167594817E+00  1.248939992E+01  3.862822472E-07  0.00000E+00  9.000E+00
       1     1     1     2   515     0 -6.698314028E-01  1.830369388E+01 -3.873353572E+01  4.284704859E+01  3.300000131E-01  0.00000E+00  9.000E+00
      21     1     1     2   512   515  7.328127836E+00 -7.961850148E+00  5.502842415E+00  1.213976071E+01  8.429369702E-08  0.00000E+00  9.000E+00
</event>
<event>
      5  10001  3.52971E+09  5.17865E+00 -1.00000E+00  2.35876E-01
      21    -1     0     0   514   513  0.000000000E+00  0.000000000E+00  5.461984112E+00  5.461984112E+00  0.000000000E+00  0.00000E+00  9.000E+00
      21    -1     0     0   516   514  0.000000000E+00  0.000000000E+00 -9.227950539E+01  9.227950539E+01  0.000000000E+00  0.00000E+00  9.000E+00
      21     1     1     2   515   513  5.699886500E+00  7.866240842E+00  2.502521032E-01  9.717462488E+00  1.674309749E-07  0.00000E+00  9.000E+00
      21     1     1     2   516   511 -5.774763882E+00 -2.734862909E+00 -6.723895398E+01  6.754187075E+01  9.536743164E-07  0.00000E+00  9.000E+00
      21     1     1     2   511   515  7.487738213E-02 -5.131377933E+00 -1.982881940E+01  2.048215626E+01  4.129530925E-07  0.00000E+00  9.000E+00
</event>
<event>
      5  10001  3.52971E+09  3.31293E+00 -1.00000E+00  2.84366E-01
      -4    -1     0     0     0   511  0.000000000E+00  0.000000000E+00  5.597735231E+00  5.597735231E+00  0.000000000E+00  0.00000E+00  9.000E+00
      21    -1     0     0   511   513  0.000000000E+00  0.000000000E+00 -1.367702536E+02  1.367702536E+02  0.000000000E+00  0.00000E+00  9.000E+00
      -4     1     1     2     0   512  3.894868865E+00 -7.535175198E+00 -1.614687628E+00  8.763908083E+00  1.500000000E+00  0.00000E+00  9.000E+00
       4     1     1     2   512     0 -5.606773207E+00  1.035804370E+01 -1.567827457E+01  1.966680627E+01  1.500000000E+00  0.00000E+00  9.000E+00
      -4     1     1     2     0   513  1.711904342E+00 -2.822868506E+00 -1.138795562E+02  1.139372745E+02  1.500000000E+00  0.00000E+00  9.000E+00
</event>
<event>
      5  10001  3.52971E+09  2.38891E+01 -1.00000E+00  1.60241E-01
      21    -1     0     0   514   512  0.000000000E+00  0.000000000E+00  5.542443307E+02  5.542443307E+02  0.000000000E+00  0.00000E+00  9.000E+00
      21    -1     0     0   516   515  0.000000000E+00  0.000000000E+00 -2.069732436E+01  2.069732436E+01  0.000000000E+00  0.00000E+00  9.000E+00
      21     1     1     2   514   515 -1.256284679E+01 -3.514449870E+01  1.593602260E+00  3.735639806E+01  2.341332357E-06  0.00000E+00  9.000E+00
      21     1     1     2   511   512  8.160117349E+00  1.166460002E+01  4.820340656E+02  4.822442232E+02  1.078959322E-05  0.00000E+00  9.000E+00
      21     1     1     2   516   511  4.402729436E+00  2.347989868E+01  4.991933842E+01  5.534103376E+01  9.536743164E-07  0.00000E+00  9.000E+00
</event>
<event>
      5  10001  3.52971E+09  9.81260E+00 -1.00000E+00  1.96707E-01
      21    -1     0     0   513   511  0.000000000E+00  0.000000000E+00  2.781564086E+02  2.781564086E+02  0.000000000E+00  0.00000E+00  9.000E+00
      21    -1     0     0   516   512  0.000000000E+00  0.000000000E+00 -6.499956500E+02  6.499956500E+02  0.000000000E+00  0.00000E+00  9.000E+00
      21     1     1     2   516   517 -1.984781154E+01 -1.099403185E+01 -6.164671492E+02  6.168845519E+02  1.321449896E-05  0.00000E+00  9.000E+00
      21     1     1     2   517   511  1.372200186E+01  1.865964272E+01  2.767308069E+02  2.776984247E+02  3.814697266E-06  0.00000E+00  9.000E+00
      21     1     1     2   513   512  6.125809681E+00 -7.665610872E+00 -3.210289911E+01  3.356908199E+01  4.768371582E-07  0.00000E+00  9.000E+00
</event>
<event>
      5  10001  3.52971E+09  2.35111E+01 -1.00000E+00  1.60772E-01
      21    -1     0     0   514   511  0.000000000E+00  0.000000000E+00  2.467980854E+01  2.467980854E+01  0.000000000E+00  0.00000E+00  9.000E+00
       1    -1     0     0   513     0  0.000000000E+00  0.000000000E+00 -2.966873086E+01  2.966873086E+01  0.000000000E+00  0.00000E+00  9.000E+00
      21     1     1     2   513   515  1.128093156E+01  1.578904229E+00 -7.427583736E+00  1.359857917E+01  4.042583694E-07  0.00000E+00  9.000E+00
       1     1     1     2   514     0 -2.104828269E+01  9.248014045E+00 -6.183820521E+00  2.380975650E+01  3.300000131E-01  0.00000E+00  9.000E+00
      21     1     1     2   515   511  9.767351137E+00 -1.082691827E+01  8.622481937E+00  1.694020373E+01  4.129530925E-07  0.00000E+00  9.000E+00
</event>
<event>
      5  10001  3.52971E+09  9.58807E+00 -1.00000E+00  1.97888E-01
      21    -1     0     0   512   511  0.000000000E+00  0.000000000E+00  2.114783428E+00  2.114783428E+00  0.000000000E+00  0.00000E+00  9.000E+00
       2    -1     0     0   514     0  0.000000000E+00  0.000000000E+00 -5.759241887E+02  5.759241887E+02  0.000000000E+00  0.00000E+00  9.000E+00
      21     1     1     2   514   511 -9.748075720E+00 -8.994632534E+00 -2.036191480E+01  2.430094585E+01  7.152557373E-07  0.00000E+00  9.000E+00
      21     1     1     2   512   513  2.136531471E+00  9.938117651E+00 -3.428443079E+02  3.429949714E+02  3.814697266E-06  0.00000E+00  9.000E+00
       2     1     1     2   513     0  7.611544249E+00 -9.434851168E-01 -2.106031826E+02  2.107430549E+02  3.300000131E-01  0.00000E+00  9.000E+00
</event>
<event>
      5  10001  3.52971E+09  7.26048E+00 -1.00000E+00  2.13330E-01
       3    -1     0     0   515     0  0.000000000E+00  0.000000000E+00  4.997861095E+01  4.997861095E+01  0.000000000E+00  0.00000E+00  9.000E+00
      21    -1     0     0   516   515  0.000000000E+00  0.000000000E+00 -1.488657573E+02  1.488657573E+02  0.000000000E+00  0.00000E+00  9.000E+00
      21     1     1     2   517   513 -9.490313399E+00  1.451946070E+00 -8.588931499E-01  9.639081556E+00  5.463871991E-07  0.00000E+00  9.000E+00
      21     1     1     2   516   517  1.502737324E+01  3.244288693E+00 -1.429114139E+02  1.437359370E+02  1.907348633E-06  0.00000E+00  9.000E+00
       3     1     1     2   513     0 -5.537059842E+00 -4.696234763E+00  4.488316068E+01  4.546934973E+01  5.000000000E-01  0.00000E+00  9.000E+00
</event>
<event>
      5  10001  3.52971E+09  2.66364E+00 -1.00000E+00  3.13462E-01
      21    -1     0     0   515   514  0.000000000E+00  0.000000000E+00  2.059711410E+02  2.059711410E+02  0.000000000E+00  0.00000E+00  9.000E+00
      -3    -1     0     0     0   511  0.000000000E+00  0.000000000E+00 -1.393835610E+01  1.393835610E+01  0.000000000E+00  0.00000E+00  9.000E+00
      -3     1     1     2     0   514 -1.279050871E+01  5.091859583E-01 -1.039251331E+01  1.649577874E+01  5.000000000E-01  0.00000E+00  9.000E+00
      21     1     1     2   512   511  1.014525046E+01 -8.210549095E-01  5.321615160E+01  5.418079945E+01  9.536743164E-07  0.00000E+00  9.000E+00
      21     1     1     2   515   512  2.645258251E+00  3.118689512E-01  1.492091466E+02  1.492329189E+02  2.697398305E-06  0.00000E+00  9.000E+00
</event>
<event>
      5  10001  3.52971E+09  7.41596E+00 -1.00000E+00  2.12065E-01
      21    -1     0     0   513   512  0.000000000E+00  0.000000000E+00  2.411629981E+00  2.411629981E+00  0.000000000E+00  0.00000E+00  9.000E+00
      21    -1     0     0   514   516  0.000000000E+00  0.000000000E+00 -1.487407897E+02  1.487407897E+02  0.000000000E+00  0.00000E+00  9.000E+00
      21     1     1     2   513   516 -1.588020597E+01  7.140603249E+00 -9.141842779E+01  9.306179719E+01  1.348699152E-06  0.00000E+00  9.000E+00
      -1     1     1     2     0   512  6.333945400E+00 -5.105697221E+00 -1.574644165E+01  1.772699447E+01  3.300000131E-01  0.00000E+00  9.000E+00
       1     1     1     2   514     0  9.546260574E+00 -2.034906028E+00 -3.916429024E+01  4.036362798E+01  3.300000131E-01  0.00000E+00  9.000E+00
</event>
<event>
      5  10001  3.52971E+09  1.07903E+01 -1.00000E+00  1.92010E-01
      21    -1     0     0   511   516  0.000000000E+00  0.000000000E+00  2.205631322E+02  2.205631322E+02  0.000000000E+00  0.00000E+00  9.000E+00
      21    -1     0     0   514   511  0.000000000E+00  0.000000000E+00 -3.888433914E+00  3.888433914E+00  0.000000000E+00  0.00000E+00  9.000E+00
      21     1     1     2   514   515  4.723788705E+00  1.028035579E+01  5.764563310E+00  1.269764092E+01  4.693274423E-07  0.00000E+00  9.000E+00
      21     1     1     2   512   516  1.643321789E+00 -3.186909167E+00  1.546839359E+02  1.547254889E+02  0.000000000E+00  0.00000E+00  9.000E+00
      21     1     1     2   515   512 -6.367110494E+00 -7.093446620E+00  5.622619916E+01  5.702843635E+01  9.536743164E-07  0.00000E+00  9.000E+00
</event>
<event>
      5  10001  3.52971E+09  8.66063E+00 -1.00000E+00  2.03260E-01
      21    -1     0     0   513   511  0.000000000E+00  0.000000000E+00  2.069946663E+01  2.069946663E+01  0.000000000E+00  0.00000E+00  9.000E+00
      21    -1     0     0   517   513  0.000000000E+00  0.000000000E+00 -1.864428217E+02  1.864428217E+02  0.000000000E+00  0.00000E+00  9.000E+00
      21     1     1     2   517   514  1.904918975E+00 -9.306159130E+00 -1.763029990E+02  1.765587176E+02  2.697398305E-06  0.00000E+00  9.000E+00
      21     1     1     2   514   512  3.144977078E+00  1.634214534E+01 -3.605932111E-01  1.664591910E+01  1.000210961E-06  0.00000E+00  9.000E+00
      21     1     1     2   512   511 -5.049896053E+00 -7.035986209E+00  1.092023717E+01  1.393765159E+01  3.576278687E-07  0.00000E+00  9.000E+00
</event>
<event>
      5  10001  3.52971E+09  8.93125E+00 -1.00000E+00  2.01603E-01
      21    -1     0     0   515   514  0.000000000E+00  0.000000000E+00  8.568345016E+02  8.568345016E+02  0.000000000E+00  0.00000E+00  9.000E+00
      21    -1     0     0   511   515  0.000000000E+00  0.000000000E+00 -1.441164042E+00  1.441164042E+00  0.000000000E+00  0.00000E+00  9.000E+00
      21     1     1     2   511   516  4.999397396E+00 -1.127251462E+01  2.625065618E+01  2.900276728E+01  1.994752947E-06  0.00000E+00  9.000E+00
      21     1     1     2   513   514 -5.945152356E+00  5.962311769E+00  3.563847822E+02  3.564842311E+02  5.394796609E-06  0.00000E+00  9.000E+00
      21     1     1     2   516   513  9.457549607E-01  5.310202854E+00  4.727578991E+02  4.727886673E+02  0.000000000E+00  0.00000E+00  9.000E+00
</event>
<event>
      5  10001  3.52971E+09  9.91658E+00 -1.00000E+00  1.96174E-01
      21    -1     0     0   512   513  0.000000000E+00  0.000000000E+00  1.290361718E+03  1.290361718E+03  0.000000000E+00  0.00000E+00  9.000E+00
      21    -1     0     0   517   512  0.000000000E+00  0.000000000E+00 -7.409510642E-01  7.409510642E-01  0.000000000E+00  0.00000E+00  9.000E+00
      21     1     1     2   517   511  9.059554064E+00 -1.480695049E+01  1.119161785E+02  1.132543699E+02  2.697398305E-06  0.00000E+00  9.000E+00
      -2     1     1     2     0   513 -2.343395108E+00  1.584422855E+00  3.436821011E+02  3.436939007E+02  3.300000131E-01  0.00000E+00  9.000E+00
       2     1     1     2   511     0 -6.716158956E+00  1.322252764E+01  8.340224874E+02  8.341543984E+02  3.300000131E-01  0.00000E+00  9.000E+00
</event>
<event>
      5  10001  3.52971E+09  2.04838E+01 -1.00000E+00  1.65514E-01
      21    -1     0     0   515   513  0.000000000E+00  0.000000000E+00  1.185601738E+01  1.185601738E+01  0.000000000E+00  0.00000E+00  9.000E+00
      21    -1     0     0   514   515  0.000000000E+00  0.000000000E+00 -1.547791313E+01  1.547791313E+01  0.000000000E+00  0.00000E+00  9.000E+00
      21     1     1     2   512   513  4.395100840E+00  4.217603101E+00  6.539913162E+00  8.937312319E+00  3.953724850E-07  0.00000E+00  9.000E+00
       5     1     1     2   514     0 -2.162397957E+00 -3.983361614E+00  3.644442444E-01  6.611804301E+00  4.800000191E+00  0.00000E+00  9.000E+00
      -5     1     1     2     0   512 -2.232702884E+00 -2.342414868E-01 -1.052625316E+01  1.178481390E+01  4.800000191E+00  0.00000E+00  9.000E+00
</event>
<event>
      5  10001  3.52971E+09  7.87956E+00 -1.00000E+00  2.08530E-01
       2    -1     0     0   511     0  0.000000000E+00  0.000000000E+00  9.012216143E+02  9.012216143E+02  0.000000000E+00  0.00000E+00  9.000E+00
      21    -1     0     0   516   511  0.000000000E+00  0.000000000E+00 -1.154034933E+01  1.154034933E+01  0.000000000E+00  0.00000E+00  9.000E+00
      21     1     1     2   514   512  7.262795978E+00 -5.371824917E-01  1.801085322E+01  1.942749608E+01  3.371747881E-07  0.00000E+00  9.000E+00
      21     1     1     2   516   514 -1.270486557E+01 -5.161149239E+00 -6.467052163E+00  1.516159076E+01  4.214684851E-07  0.00000E+00  9.000E+00
       2     1     1     2   512     0  5.442069596E+00  5.698331731E+00  8.781374639E+02  8.781728768E+02  3.300000131E-01  0.00000E+00  9.000E+00
</event>
<event>
      5  10001  3.52971E+09  2.44329E+01 -1.00000E+00  1.59498E-01
      21    -1     0     0   513   516  0.000000000E+00  0.000000000E+00  4.594288214E+00  4.594288214E+00  0.000000000E+00  0.00000E+00  9.000E+00
      21    -1     0     0   512   515  0.000000000E+00  0.000000000E+00 -4.179530116E+01  4.179530116E+01  0.000000000E+00  0.00000E+00  9.000E+00
      21     1     1     2   513   515  3.306691825E+00  2.586181176E+00 -2.390484053E+00  4.830834080E+00  1.812804499E-07  0.00000E+00  9.000E+00
      21     1     1     2   511   516  5.124599911E+00 -7.219997006E+00 -4.857914756E+00  1.009897108E+01  1.192092896E-07  0.00000E+00  9.000E+00
      21     1     1     2   512   511 -8.431291735E+00  4.633815830E+00 -2.995261413E+01  3.145978422E+01  3.371747881E-07  0.00000E+00  9.000E+00
</event>
<event>
      5  10001  3.52971E+09  1.32931E+01 -1.00000E+00  1.82469E-01
      21    -1     0     0   514   516  0.000000000E+00  0.000000000E+00  3.622148012E+01  3.622148012E+01  0.000000000E+00  0.00000E+00  9.000E+00
      21    -1     0     0   512   514  0.000000000E+00  0.000000000E+00 -3.325014823E+00  3.325014823E+00  0.000000000E+00  0.00000E+00  9.000E+00
      21     1     1     2   511   516 -6.555029709E+00  4.849350823E+00  1.121363849E+01  1.386471443E+01  2.384185791E-07  0.00000E+00  9.000E+00
      21     1     1     2   512   513  3.772695275E+00  2.151426737E+00  1.498424300E+01  1.560094244E+01  1.685873940E-07  0.00000E+00  9.000E+00
      21     1     1     2   513   511  2.782334434E+00 -7.000777560E+00  6.698583798E+00  1.008083807E+01  2.384185791E-07  0.00000E+00  9.000E+00
</event>
<event>
      5  10001  3.52971E+09  5.74360E+00 -1.00000E+00  2.28452E-01
      21    -1     0     0   515   511  0.000000000E+00  0.000000000E+00  1.542495937E+00  1.542495937E+00  0.000000000E+00  0.00000E+00  9.000E+00
      21    -1     0     0   517   515  0.000000000E+00  0.000000000E+00 -2.523862886E+02  2.523862886E+02  0.000000000E+00  0.00000E+00  9.000E+00
      21     1     1     2   512   511  2.850969063E+00  1.055680816E+01 -2.076350999E+01  2.346694633E+01  5.331201500E-07  0.00000E+00  9.000E+00
      21     1     1     2   514   512 -4.410467550E+00 -4.575648005E+00 -1.539176107E+02  1.540487574E+02  2.697398305E-06  0.00000E+00  9.000E+00
      21     1     1     2   517   514  1.559498487E+00 -5.981160159E+00 -7.616267203E+01  7.641308083E+01  0.000000000E+00  0.00000E+00  9.000E+00
</event>
<event>
      5  10001  3.52971E+09  1.02364E+01 -1.00000E+00  1.94587E-01
       1    -1     0     0   513     0  0.000000000E+00  0.000000000E+00  8.367455429E-01  8.367455429E-01  0.000000000E+00  0.00000E+00  9.000E+00
      -1    -1     0     0     0   512  0.000000000E+00  0.000000000E+00 -1.929567851E+02  1.929567851E+02  0.000000000E+00  0.00000E+00  9.000E+00
      21     1     1     2   511   512 -1.836678706E+00 -2.524575562E+00 -6.791154656E+00  7.474399775E+00  3.371747881E-07  0.00000E+00  9.000E+00
       1     1     1     2   513     0  6.517881113E+00  9.015553938E+00 -1.014470777E+02  1.020557762E+02  3.300000131E-01  0.00000E+00  9.000E+00
      -1     1     1     2     0   511 -4.681202407E+00 -6.490978376E+00 -8.388180722E+01  8.426335466E+01  3.300000131E-01  0.00000E+00  9.000E+00
</event>
<event>
      5  10001  3.52971E+09  1.01924E+01 -1.00000E+00  1.94801E-01
      21    -1     0     0   511   514  0.000000000E+00  0.000000000E+00  1.936241362E+02  1.936241362E+02  0.000000000E+00  0.00000E+00  9.000E+00
      21    -1     0     0   514   513  0.000000000E+00  0.000000000E+00 -3.804825504E+00  3.804825504E+00  0.000000000E+00  0.00000E+00  9.000E+00
      -3     1     1     2     0   513 -6.505508018E+00 -9.014961969E+00  5.076753653E+00  1.223170477E+01  5.000000000E-01  0.00000E+00  9.000E+00
      21     1     1     2   511   512  3.768201012E+00  2.558084458E-01  5.538846487E+01  5.551708582E+01  6.743495762E-07  0.00000E+00  9.000E+00
       3     1     1     2   512     0  2.737307006E+00  8.759153524E+00  1.293540922E+02  1.296801711E+02  5.000000000E-01  0.00000E+00  9.000E+00
</event>
<event>
      5  10001  3.52971E+09  7.45498E+00 -1.00000E+00  2.11754E-01
      21    -1     0     0   515   513  0.000000000E+00  0.000000000E+00  1.334523424E+03  1.334523424E+03  0.000000000E+00  0.00000E+00  9.000E+00
      21    -1     0     0   514   511  0.000000000E+00  0.000000000E+00 -3.204470260E+01  3.204470260E+01  0.000000000E+00  0.00000E+00  9.000E+00
      21     1     1     2   515   516 -5.030586023E+00 -7.459072365E+00  7.687340462E+02  7.687866923E+02  1.078959322E-05  0.00000E+00  9.000E+00
      21     1     1     2   514   513  1.704114117E+00  1.413075044E+01  5.652383076E+02  5.654174799E+02  1.078959322E-05  0.00000E+00  9.000E+00
      21     1     1     2   516   511  3.326471907E+00 -6.671678072E+00 -3.149363209E+01  3.236395474E+01  4.768371582E-07  0.00000E+00  9.000E+00
</event>
<event>
      5  10001  3.52971E+09  9.78341E+00 -1.00000E+00  1.96858E-01
      21    -1     0     0   512   513  0.000000000E+00  0.000000000E+00  1.098519262E+02  1.098519262E+02  0.000000000E+00  0.00000E+00  9.000E+00
      21    -1     0     0   517   512  0.000000000E+00  0.000000000E+00 -8.572443721E+00  8.572443721E+00  0.000000000E+00  0.00000E+00  9.000E+00
      21     1     1     2   511   513 -9.529789193E+00 -2.236037086E+00  9.958370154E+01  1.000636315E+02  1.348699152E-06  0.00000E+00  9.000E+00
      21     1     1     2   514   511  1.700729826E+00  4.931894279E+00 -5.361733420E+00  7.480925637E+00  4.539354507E-07  0.00000E+00  9.000E+00
      21     1     1     2   517   514  7.829059368E+00 -2.695857193E+00  7.057514377E+00  1.087981276E+01  2.665600750E-07  0.00000E+00  9.000E+00
</event>
<event>
      5  10001  3.52971E+09  2.71478E+01 -1.00000E+00  1.56113E-01
       4    -1     0     0   514     0  0.000000000E+00  0.000000000E+00  2.868690903E+01  2.868690903E+01  0.000000000E+00  0.00000E+00  9.000E+00
      21    -1     0     0   515   512  0.000000000E+00  0.000000000E+00 -5.758244374E+01  5.758244374E+01  0.000000000E+00  0.00000E+00  9.000E+00
      21     1     1     2   514   511 -4.289062945E+00  1.141409802E+01 -3.198449163E+01  3.422989044E+01  8.259061849E-07  0.00000E+00  9.000E+00
       4     1     1     2   515     0  1.665033105E+01  2.945641351E+00  2.028602987E+01  2.645152803E+01  1.500000000E+00  0.00000E+00  9.000E+00
      21     1     1     2   511   512 -1.236126811E+01 -1.435973937E+01 -1.719707296E+01  2.558793431E+01  0.000000000E+00  0.00000E+00  9.000E+00
</event>
<event>
      5  10001  3.52971E+09  1.20229E+01 -1.00000E+00  1.86937E-01
      21    -1     0     0   511   515  0.000000000E+00  0.000000000E+00  5.425709826E+01  5.425709826E+01  0.000000000E+00  0.00000E+00  9.000E+00
       2    -1     0     0   515     0  0.000000000E+00  0.000000000E+00 -7.725410276E+02  7.725410276E+02  0.000000000E+00  0.00000E+00  9.000E+00
      21     1     1     2   514   513 -1.463919456E+01 -2.121544700E+01  4.742614151E+01  5.397814472E+01  0.000000000E+00  0.00000E+00  9.000E+00
       2     1     1     2   513     0  1.220884071E+01  1.189099075E+01 -7.624602114E+02  7.626507290E+02  3.300000131E-01  0.00000E+00  9.000E+00
      21     1     1     2   511   514  2.430353842E+00  9.324456247E+00 -3.249859441E+00  1.016925221E+01  1.788139343E-07  0.00000E+00  9.000E+00
</event>
<event>
      5  10001  3.52971E+09  3.81924E+00 -1.00000E+00  2.68285E-01
      21    -1     0     0   512   513  0.000000000E+00  0.000000000E+00  5.112095325E+00  5.112095325E+00  0.000000000E+00  0.00000E+00  9.000E+00
      21    -1     0     0   516   514  0.000000000E+00  0.000000000E+00 -2.151944664E+02  2.151944664E+02  0.000000000E+00  0.00000E+00  9.000E+00
      21     1     1     2   512   514 -7.819515948E+00  8.648559477E+00 -2.536063490E+00  1.193205886E+01  7.027283980E-07  0.00000E+00  9.000E+00
      21     1     1     2   515   513  8.801785126E+00 -4.957796278E+00 -1.949586337E+02  1.952201835E+02  2.697398305E-06  0.00000E+00  9.000E+00
      21     1     1     2   516   515 -9.822691787E-01 -3.690763200E+00 -1.258767383E+01  1.315431937E+01  2.384185791E-07  0.00000E+00  9.000E+00
</event>
<event>
      5  10001  3.52971E+09  6.87041E+00 -1.00000E+00  2.16701E-01
      21    -1     0     0   511   514  0.000000000E+00  0.000000000E+00  1.499223632E+01  1.499223632E+01  0.000000000E+00  0.00000E+00  9.000E+00
      21    -1     0     0   516   517  0.000000000E+00  0.000000000E+00 -7.997950809E+00  7.997950809E+00  0.000000000E+00  0.00000E+00  9.000E+00
      21     1     1     2   511   517 -5.411305367E+00 -7.486846193E+00  4.870722836E+00  1.044313328E+01  1.685873940E-07  0.00000E+00  9.000E+00
      21     1     1     2   512   514  5.829067897E+00  4.020577701E+00  4.439173154E+00  8.357591513E+00  2.308477966E-07  0.00000E+00  9.000E+00
      21     1     1     2   516   512 -4.177625302E-01  3.466268492E+00 -2.315610480E+00  4.189462338E+00  1.115100797E-07  0.00000E+00  9.000E+00
</event>
<event>
      5  10001  3.52971E+09  4.63637E+00 -1.00000E+00  2.49216E-01
      21    -1     0     0   513   511  0.000000000E+00  0.000000000E+00  5.579270829E+00  5.579270829E+00  0.000000000E+00  0.00000E+00  9.000E+00
      21    -1     0     0   515   513  0.000000000E+00  0.000000000E+00 -2.045003197E+02  2.045003197E+02  0.000000000E+00  0.00000E+00  9.000E+00
      21     1     1     2   515   516 -8.864902800E+00  6.369925767E+00 -1.237608385E+02  1.242413281E+02  1.348699152E-06  0.00000E+00  9.000E+00
      21     1     1     2   516   512  1.016282272E+01 -1.918933336E+00 -7.908825585E+01  7.976162915E+01  2.132480600E-06  0.00000E+00  9.000E+00
      21     1     1     2   512   511 -1.297919918E+00 -4.450992431E+00  3.928045545E+00  6.076633241E+00  3.039252468E-07  0.00000E+00  9.000E+00
</event>
<event>
      5  10001  3.52971E+09  4.49050E+00 -1.00000E+00  2.52161E-01
       4    -1     0     0   512     0  0.000000000E+00  0.000000000E+00  7.419504689E+00  7.419504689E+00  0.000000000E+00  0.00000E+00  9.000E+00
       2    -1     0     0   511     0  0.000000000E+00  0.000000000E+00 -9.405884222E+01  9.405884222E+01  0.000000000E+00  0.00000E+00  9.000E+00
       2     1     1     2   513     0  1.763557633E+01  1.453977263E+01 -3.441383887E+01  4.131391711E+01  3.300000131E-01  0.00000E+00  9.000E+00
       4     1     1     2   511     0 -1.737437695E+01 -1.854484338E+01 -4.118797915E+01  4.841982876E+01  1.500000000E+00  0.00000E+00  9.000E+00
      21     1     1     2   512   513 -2.611993813E-01  4.005070757E+00 -1.103751951E+01  1.174460105E+01  1.685873940E-07  0.00000E+00  9.000E+00
</event>
<event>
      5  10001  3.52971E+09  3.31494E+00 -1.00000E+00  2.84294E-01
       2    -1     0     0   513     0  0.000000000E+00  0.000000000E+00  5.061102701E+02  5.061102701E+02  0.000000000E+00  0.00000E+00  9.000E+00
       4    -1     0     0   511     0  0.000000000E+00  0.000000000E+00 -4.640711486E-01  4.640711486E-01  0.000000000E+00  0.00000E+00  9.000E+00
       2     1     1     2   512     0 -8.207827576E+00 -7.479017545E+00  3.666268343E+02  3.667951044E+02  3.300000131E-01  0.00000E+00  9.000E+00
       4     1     1     2   513     0  5.543302073E+00  9.433502150E+00  1.158843262E+02  1.164093906E+02  1.500000000E+00  0.00000E+00  9.000E+00
      21     1     1     2   511   512  2.664525503E+00 -1.954484605E+00  2.313503856E+01  2.336984629E+01  8.259061849E-07  0.00000E+00  9.000E+00
</event>
<event>
      5  10001  3.52971E+09  1.52192E+01 -1.00000E+00  1.76788E-01
      21    -1     0     0   514   515  0.000000000E+00  0.000000000E+00  1.054113600E+01  1.054113600E+01  0.000000000E+00  0.00000E+00  9.000E+00
      21    -1     0     0   511   512  0.000000000E+00  0.000000000E+00 -3.658161862E+01  3.658161862E+01  0.000000000E+00  0.00000E+00  9.000E+00
      21     1     1     2   514   512  7.593860061E+00 -8.372359537E+00 -2.912338363E+01  3.123995181E+01  3.371747881E-07  0.00000E+00  9.000E+00
      21     1     1     2   513   515 -6.551822217E+00  1.477072789E+00 -2.272312693E+00  7.090241417E+00  1.074538015E-07  0.00000E+00  9.000E+00
      21     1     1     2   511   513 -1.042037845E+00  6.895286748E+00  5.355213703E+00  8.792561402E+00  1.032382731E-07  0.00000E+00  9.000E+00
</event>
<event>
      5  10001  3.52971E+09  9.49301E+00 -1.00000E+00  1.98401E-01
      21    -1     0     0   516   512  0.000000000E+00  0.000000000E+00  8.114957153E-01  8.114957153E-01  0.000000000E+00  0.00000E+00  9.000E+00
      21    -1     0     0   511   516  0.000000000E+00  0.000000000E+00 -1.393108045E+02  1.393108045E+02  0.000000000E+00  0.00000E+00  9.000E+00
      21     1     1     2   511   517 -9.442558587E-02  7.447378803E+00 -4.811281313E+01  4.868588250E+01  6.743495762E-07  0.00000E+00  9.000E+00
      21     1     1     2   514   512  5.053080925E+00 -6.217838620E+00 -6.821586283E+01  6.868478059E+01  0.000000000E+00  0.00000E+00  9.000E+00
      21     1     1     2   517   514 -4.958655339E+00 -1.229540184E+00 -2.217063279E+01  2.275163708E+01  4.129530925E-07  0.00000E+00  9.000E+00
</event>
<event>
      5  10001  3.52971E+09  5.81154E+00 -1.00000E+00  2.27640E-01
      -2    -1     0     0     0   513  0.000000000E+00  0.000000000E+00  1.898026696E+01  1.898026696E+01  0.000000000E+00  0.00000E+00  9.000E+00
      21    -1     0     0   512   515  0.000000000E+00  0.000000000E+00 -3.972113402E+02  3.972113402E+02  0.000000000E+00  0.00000E+00  9.000E+00
      -2     1     1     2     0   511 -3.618908724E+00  8.234416280E+00  1.739736183E+01  1.958773113E+01  3.300000131E-01  0.00000E+00  9.000E+00
      21     1     1     2   511   515  2.010689076E+00 -1.381897804E+01 -1.058503090E+02  1.067674807E+02  1.348699152E-06  0.00000E+00  9.000E+00
      21     1     1     2   512   513  1.608219648E+00  5.584561755E+00 -2.897781261E+02  2.898363954E+02  3.814697266E-06  0.00000E+00  9.000E+00
</event>
<event>
      5  10001  3.52971E+09  6.00534E+00 -1.00000E+00  2.25406E-01
      21    -1     0     0   514   515  0.000000000E+00  0.000000000E+00  1.436372309E+01  1.436372309E+01  0.000000000E+00  0.00000E+00  9.000E+00
      21    -1     0     0   512   513  0.000000000E+00  0.000000000E+00 -9.362344945E+01  9.362344945E+01  0.000000000E+00  0.00000E+00  9.000E+00
      21     1     1     2   514   513 -2.810120609E+00 -1.774779610E+01 -7.801587962E+01  8.005846936E+01  1.651812370E-06  0.00000E+00  9.000E+00
      21     1     1     2   512   511 -1.660863886E+00  2.175708691E+01 -1.290617631E-01  2.182076893E+01  1.974930952E-07  0.00000E+00  9.000E+00
      21     1     1     2   511   515  4.470984495E+00 -4.009290810E+00 -1.114784979E+00  6.107934242E+00  1.591008641E-07  0.00000E+00  9.000E+00
</event>
<event>
      5  10001  3.52971E+09  5.52695E+00 -1.00000E+00  2.31151E-01
      21    -1     0     0   516   512  0.000000000E+00  0.000000000E+00  1.397430747E-01  1.397430747E-01  0.000000000E+00  0.00000E+00  9.000E+00
      21    -1     0     0   517   515  0.000000000E+00  0.000000000E+00 -1.091312318E+03  1.091312318E+03  0.000000000E+00  0.00000E+00  9.000E+00
      21     1     1     2   516   515  5.185938503E+00 -7.071059948E+00 -2.093366534E+02  2.095202336E+02  2.697398305E-06  0.00000E+00  9.000E+00
      21     1     1     2   513   512 -7.934668456E+00  4.915139470E+00 -7.013236985E+02  7.013858051E+02  0.000000000E+00  0.00000E+00  9.000E+00
      21     1     1     2   517   513  2.748729953E+00  2.155920478E+00 -1.805122230E+02  1.805460223E+02  0.000000000E+00  0.00000E+00  9.000E+00
</event>
<event>
      5  10001  3.52971E+09  1.44727E+01 -1.00000E+00  1.78857E-01
      21    -1     0     0   511   512  0.000000000E+00  0.000000000E+00  4.858089849E+00  4.858089849E+00  0.000000000E+00  0.00000E+00  9.000E+00
      21    -1     0     0   514   511  0.000000000E+00  0.000000000E+00 -7.196468714E+01  7.196468714E+01  0.000000000E+00  0.00000E+00  9.000E+00
      21     1     1     2   513   512 -1.114770062E+01 -5.643111002E+00 -5.795739330E+00  1.377339919E+01  3.264680848E-07  0.00000E+00  9.000E+00
      21     1     1     2   515   513  2.908175115E+00  3.214764543E+00 -8.470127164E+00  9.515001195E+00  1.192092896E-07  0.00000E+00  9.000E+00
      21     1     1     2   514   515  8.239525505E+00  2.428346459E+00 -5.284073080E+01  5.353437660E+01  6.743495762E-07  0.00000E+00  9.000E+00
</event>
<event>
      5  10001  3.52971E+09  4.24592E+00 -1.00000E+00  2.57502E-01
      21    -1     0     0   514   511  0.000000000E+00  0.000000000E+00  7.700676780E+02  7.700676780E+02  0.000000000E+00  0.00000E+00  9.000E+00
       2    -1     0     0   512     0  0.000000000E+00  0.000000000E+00 -7.639341810E+02  7.639341810E+02  0.000000000E+00  0.00000E+00  9.000E+00
      21     1     1     2   512   515  5.865854655E+00 -1.649450292E+01 -8.505808412E+01  8.684097277E+01  1.348699152E-06  0.00000E+00  9.000E+00
       2     1     1     2   514     0 -9.539271316E+00  1.436522435E+01 -6.778691036E+02  6.780884809E+02  3.300000131E-01  0.00000E+00  9.000E+00
      21     1     1     2   515   511  3.673416660E+00  2.129278571E+00  7.690606847E+02  7.690724053E+02  1.525878906E-05  0.00000E+00  9.000E+00
</event>
<event>
      5  10001  3.52971E+09  4.19324E+00 -1.00000E+00  2.58726E-01
      21    -1     0     0   513   514  0.000000000E+00  0.000000000E+00  9.475024881E+01  9.475024881E+01  0.000000000E+00  0.00000E+00  9.000E+00
      21    -1     0     0   512   511  0.000000000E+00  0.000000000E+00 -3.925409596E+00  3.925409596E+00  0.000000000E+00  0.00000E+00  9.000E+00
      21     1     1     2   513   511 -2.720110175E+00 -1.201418066E+01  1.810990745E+01  2.190224382E+01  3.371747881E-07  0.00000E+00  9.000E+00
      21     1     1     2   512   515  5.048343427E+00  8.526692938E+00  1.057475729E+01  1.449192035E+01  1.685873940E-07  0.00000E+00  9.000E+00
      21     1     1     2   515   514 -2.328233252E+00  3.487487722E+00  6.214017447E+01  6.228149423E+01  0.000000000E+00  0.00000E+00  9.000E+00
</event>
<event>
      5  10001  3.52971E+09  2.53202E+00 -1.00000E+00  3.21156E-01
       3    -1     0     0   511     0  0.000000000E+00  0.000000000E+00  4.874946396E+00  4.874946396E+00  0.000000000E+00  0.00000E+00  9.000E+00
       2    -1     0     0   515     0  0.000000000E+00  0.000000000E+00 -3.086694732E+02  3.086694732E+02  0.000000000E+00  0.00000E+00  9.000E+00
      21     1     1     2   511   516 -7.591720913E+00  8.654508428E+00 -5.051655314E+01  5.181174465E+01  9.536743164E-07  0.00000E+00  9.000E+00
       3     1     1     2   515     0  5.812296445E+00 -1.045559127E+01 -4.270000879E+00  1.271161226E+01  5.000000000E-01  0.00000E+00  9.000E+00
       2     1     1     2   516     0  1.779424468E+00  1.801082841E+00 -2.490079728E+02  2.490210627E+02  3.300000131E-01  0.00000E+00  9.000E+00
</event>
<event>
      5  10001  3.52971E+09  1.02648E+01 -1.00000E+00  1.94449E-01
       1    -1     0     0   511     0  0.000000000E+00  0.000000000E+00  8.648101363E+01  8.648101363E+01  0.000000000E+00  0.00000E+00  9.000E+00
      21    -1     0     0   514   511  0.000000000E+00  0.000000000E+00 -9.411880702E+00  9.411880702E+00  0.000000000E+00  0.00000E+00  9.000E+00
      21     1     1     2   513   512  1.586281900E+01  1.102219667E+01  1.378883367E+01  2.373288394E+01  5.057621821E-07  0.00000E+00  9.000E+00
       1     1     1     2   512     0 -1.117130263E+01 -1.892726165E+00  6.046250057E+01  6.151587835E+01  3.300000131E-01  0.00000E+00  9.000E+00
      21     1     1     2   514   513 -4.691516368E+00 -9.129470500E+00  2.817798690E+00  1.064413204E+01  2.563692709E-07  0.00000E+00  9.000E+00
</event>
<event>
      5  10001  3.52971E+09  3.68800E+00 -1.00000E+00  2.72058E-01
       2    -1     0     0   511     0  0.000000000E+00  0.000000000E+00  7.529540546E+02  7.529540546E+02  0.000000000E+00  0.00000E+00  9.000E+00
       2    -1     0     0   514     0  0.000000000E+00  0.000000000E+00 -1.259627017E+01  1.259627017E+01  0.000000000E+00  0.00000E+00  9.000E+00
       2     1     1     2   514     0  2.229247193E+00  9.794135195E+00  7.508121445E+02  7.508794044E+02  3.300000131E-01  0.00000E+00  9.000E+00
      21     1     1     2   511   512 -1.566302710E+00 -2.607250252E+00 -2.628975618E+00  4.020269998E+00  1.228781231E-07  0.00000E+00  9.000E+00
       2     1     1     2   512     0 -6.629444829E-01 -7.186884943E+00 -7.825384513E+00  1.065065037E+01  3.300000131E-01  0.00000E+00  9.000E+00
</event>
<event>
      5  10001  3.52971E+09  3.75863E+01 -1.00000E+00  1.46534E-01
       2    -1     0     0   513     0  0.000000000E+00  0.000000000E+00  1.743114164E+02  1.743114164E+02  0.000000000E+00  0.00000E+00  9.000E+00
      21    -1     0     0   512   511  0.000000000E+00  0.000000000E+00 -3.491930540E+01  3.491930540E+01  0.000000000E+00  0.00000E+00  9.000E+00
      21     1     1     2   513   514 -1.003272473E+01  5.118100276E+01  2.585631734E+01  5.821253950E+01  1.966049969E-06  0.00000E+00  9.000E+00
       2     1     1     2   512     0 -1.457626067E+01 -5.911832648E+01  1.088737171E+02  1.247438939E+02  3.300000131E-01  0.00000E+00  9.000E+00
      21     1     1     2   514   511  2.460898540E+01  7.937323713E+00  4.662076546E+00  2.627428834E+01  1.082772143E-06  0.00000E+00  9.000E+00
</event>
<event>
      5  10001  3.52971E+09  6.45695E+00 -1.00000E+00  2.20627E-01
      21    -1     0     0   515   512  0.000000000E+00  0.000000000E+00  1.501750629E+00  1.501750629E+00  0.000000000E+00  0.00000E+00  9.000E+00
      21    -1     0     0   516   513  0.000000000E+00  0.000000000E+00 -4.890829721E+02  4.890829721E+02  0.000000000E+00  0.00000E+00  9.000E+00
      21     1     1     2   511   512 -9.473455742E+00  3.922997618E+00 -2.044147888E+01  2.286898189E+01  9.830249847E-07  0.00000E+00  9.000E+00
      21     1     1     2   516   511  1.226177964E+01  1.900876776E+00 -1.506496120E+02  1.511597505E+02  2.697398305E-06  0.00000E+00  9.000E+00
      21     1     1     2   515   513 -2.788323900E+00 -5.823874394E+00 -3.164901306E+02  3.165559903E+02  5.394796609E-06  0.00000E+00  9.000E+00
</event>
<event>
      5  10001  3.52971E+09  5.14648E+00 -1.00000E+00  2.36339E-01
      21    -1     0     0   514   511  0.000000000E+00  0.000000000E+00  6.882873010E+01  6.882873010E+01  0.000000000E+00  0.00000E+00  9.000E+00
      21    -1     0     0   512   514  0.000000000E+00  0.000000000E+00 -3.831227346E+01  3.831227346E+01  0.000000000E+00  0.00000E+00  9.000E+00
      21     1     1     2   513   511  9.932708455E+00 -1.375379588E-01  6.141284297E+01  6.221105123E+01  9.536743164E-07  0.00000E+00  9.000E+00
      21     1     1     2   517   513 -1.380753958E+01  3.524570726E+00 -6.673026229E-01  1.426590483E+01  4.220607590E-07  0.00000E+00  9.000E+00
      21     1     1     2   512   517  3.874831122E+00 -3.387032767E+00 -3.022908371E+01  3.066404750E+01  5.840038640E-07  0.00000E+00  9.000E+00
</event>
<event>
      5  10001  3.52971E+09  7.43097E+00 -1.00000E+00  2.11945E-01
      21    -1     0     0   515   511  0.000000000E+00  0.000000000E+00  4.582833718E+01  4.582833718E+01  0.000000000E+00  0.00000E+00  9.000E+00
      21    -1     0     0   512   515  0.000000000E+00  0.000000000E+00 -4.720566624E+01  4.720566624E+01  0.000000000E+00  0.00000E+00  9.000E+00
      21     1     1     2   512   516  1.438347322E+01 -4.387944791E-01 -4.213084479E+01  4.452061236E+01  6.743495762E-07  0.00000E+00  9.000E+00
      21     1     1     2   516   513 -1.323944315E+01  5.314967100E+00  4.108734753E+01  4.349369905E+01  4.768371582E-07  0.00000E+00  9.000E+00
      21     1     1     2   513   511 -1.144030070E+00 -4.876172621E+00 -3.338317943E-01  5.019692012E+00  4.842877388E-08  0.00000E+00  9.000E+00
</event>
<event>
      5  10001  3.52971E+09  6.58232E+00 -1.00000E+00  2.19395E-01
      21    -1     0     0   514   512  0.000000000E+00  0.000000000E+00  3.398417493E+00  3.398417493E+00  0.000000000E+00  0.00000E+00  9.000E+00
      21    -1     0     0   511   514  0.000000000E+00  0.000000000E+00 -1.062629225E+02  1.062629225E+02  0.000000000E+00  0.00000E+00  9.000E+00
      21     1     1     2   517   512  1.597398195E+01 -4.528845758E+00 -2.756308186E+01  3.217766345E+01  5.840038640E-07  0.00000E+00  9.000E+00
      21     1     1     2   511   515 -7.597024001E+00  3.266454670E+00 -5.273646775E+01  5.338089106E+01  6.743495762E-07  0.00000E+00  9.000E+00
      21     1     1     2   515   517 -8.376957954E+00  1.262391088E+00 -2.256495535E+01  2.410278544E+01  4.129530925E-07  0.00000E+00  9.000E+00
</event>
<event>
      5  10001 -3.52971E+09  3.97114E+00 -1.00000E+00  2.64205E-01
      21    -1     0     0   513   511  0.000000000E+00  0.000000000E+00  5.100254634E+00  5.100254634E+00  0.000000000E+00  0.00000E+00  9.000E+00
      21    -1     0     0   516   513  0.000000000E+00  0.000000000E+00 -5.298607907E+02  5.298607907E+02  0.000000000E+00  0.00000E+00  9.000E+00
      21     1     1     2   516   517  3.755103996E+00  9.506454618E+00 -5.180232440E+02  5.181240728E+02  0.000000000E+00  0.00000E+00  9.000E+00
      21     1     1     2   512   511 -3.118768007E+00 -5.370479399E+00  2.501047321E+00  6.695072856E+00  6.590290185E-07  0.00000E+00  9.000E+00
      21     1     1     2   517   512 -6.363359893E-01 -4.135975220E+00 -9.238339358E+00  1.014189965E+01  1.685873940E-07  0.00000E+00  9.000E+00
</event>
<event>
      5  10001  3.52971E+09  7.24058E+00 -1.00000E+00  2.13495E-01
      21    -1     0     0   514   511  0.000000000E+00  0.000000000E+00  4.401877056E+02  4.401877056E+02  0.000000000E+00  0.00000E+00  9.000E+00
      21    -1     0     0   513   514  0.000000000E+00  0.000000000E+00 -2.423114502E+00  2.423114502E+00  0.000000000E+00  0.00000E+00  9.000E+00
      21     1     1     2   512   511 -3.034849424E+00 -8.381724625E+00  2.038323929E+02  2.040272237E+02  6.031565972E-06  0.00000E+00  9.000E+00
      21     1     1     2   515   512  9.931002139E+00  1.058833046E+01  2.297776549E+02  2.302357666E+02  3.814697266E-06  0.00000E+00  9.000E+00
      21     1     1     2   513   515 -6.896152715E+00 -2.206605832E+00  4.154543279E+00  8.347829743E+00  5.364418030E-07  0.00000E+00  9.000E+00
</event>
<event>
      5  10001  3.52971E+09  4.18454E+00 -1.00000E+00  2.58930E-01
      -1    -1     0     0     0   516  0.000000000E+00  0.000000000E+00  8.264956180E+00  8.264956180E+00  0.000000000E+00  0.00000E+00  9.000E+00
      21    -1     0     0   516   514  0.000000000E+00  0.000000000E+00 -1.922478553E+01  1.922478553E+01  0.000000000E+00  0.00000E+00  9.000E+00
      -1     1     1     2     0   512 -2.277440127E-01 -1.163216054E+01 -9.790535026E-01  1.168017432E+01  3.300000131E-01  0.00000E+00  9.000E+00
      21     1     1     2   512   511 -1.348808653E+00  5.755160636E+00 -3.287161583E+00  6.763622550E+00  1.737759082E-07  0.00000E+00  9.000E+00
      21     1     1     2   511   514  1.576552666E+00  5.876999908E+00 -6.693614266E+00  9.045944847E+00  8.429369702E-08  0.00000E+00  9.000E+00
</event>
<event>
      5  10001  3.52971E+09  7.01934E+00 -1.00000E+00  2.15379E-01
      -2    -1     0     0     0   513  0.000000000E+00  0.000000000E+00  1.063053083E+02  1.063053083E+02  0.000000000E+00  0.00000E+00  9.000E+00
      21    -1     0     0   512   514  0.000000000E+00  0.000000000E+00 -1.486792442E+02  1.486792442E+02  0.000000000E+00  0.00000E+00  9.000E+00
      -2     1     1     2     0   511 -1.124691687E+00  1.972829994E+01  1.024318776E+02  1.043209912E+02  3.300000131E-01  0.00000E+00  9.000E+00
      21     1     1     2   511   514 -5.894072026E+00 -1.963917842E+01 -3.449085851E+01  4.012551227E+01  1.261592536E-06  0.00000E+00  9.000E+00
      21     1     1     2   512   513  7.018763714E+00 -8.912152129E-02 -1.103149550E+02  1.105380490E+02  0.000000000E+00  0.00000E+00  9.000E+00
</event>
<event>
      5  10001  3.52971E+09  5.61926E+00 -1.00000E+00  2.29980E-01
      21    -1     0     0   514   511  0.000000000E+00  0.000000000E+00  5.611921983E+01  5.611921983E+01  0.000000000E+00  0.00000E+00  9.000E+00
      21    -1     0     0   512   515  0.000000000E+00  0.000000000E+00 -1.877806548E+01  1.877806548E+01  0.000000000E+00  0.00000E+00  9.000E+00
      21     1     1     2   512   513 -1.574761542E+01 -8.750480295E+00 -1.179915628E+01  2.153551453E+01  4.460403188E-07  0.00000E+00  9.000E+00
      21     1     1     2   513   511  1.188531659E+01  4.668975984E+00  2.032339250E+01  2.400209095E+01  2.384185791E-07  0.00000E+00  9.000E+00
      21     1     1     2   514   515  3.862298834E+00  4.081504311E+00  2.881691813E+01  2.935967984E+01  4.768371582E-07  0.00000E+00  9.000E+00
</event>
<event>
      5  10001  3.52971E+09  5.75687E+00 -1.00000E+00  2.28292E-01
      21    -1     0     0   516   511  0.000000000E+00  0.000000000E+00  2.737353919E+02  2.737353919E+02  0.000000000E+00  0.00000E+00  9.000E+00
      21    -1     0     0   517   516  0.000000000E+00  0.000000000E+00 -6.089620470E+00  6.089620470E+00  0.000000000E+00  0.00000E+00  9.000E+00
      21     1     1     2   517   512 -3.147376748E+00  9.458208591E+00 -7.028223098E-01  9.992879933E+00  2.626791978E-07  0.00000E+00  9.000E+00
      21     1     1     2   512   513  8.828033725E+00 -8.524569407E+00  5.282840937E+01  5.423507444E+01  6.743495762E-07  0.00000E+00  9.000E+00
      21     1     1     2   513   511 -5.680656977E+00 -9.336391840E-01  2.155201844E+02  2.155970580E+02  2.697398305E-06  0.00000E+00  9.000E+00
</event>
<event>
      5  10001  3.52971E+09  6.66077E+00 -1.00000E+00  2.18643E-01
      21    -1     0     0   513   511  0.000000000E+00  0.000000000E+00  2.298018202E+00  2.298018202E+00  0.000000000E+00  0.00000E+00  9.000E+00
      21    -1     0     0   511   514  0.000000000E+00  0.000000000E+00 -1.726853698E+02  1.726853698E+02  0.000000000E+00  0.00000E+00  9.000E+00
      21     1     1     2   512   514  1.508140477E-02 -5.255638696E+00 -1.066222450E+02  1.067516983E+02  0.000000000E+00  0.00000E+00  9.000E+00
       4     1     1     2   513     0  5.913830659E+00  8.187384542E+00 -1.090801788E+01  1.494126878E+01  1.500000000E+00  0.00000E+00  9.000E+00
      -4     1     1     2     0   512 -5.928912064E+00 -2.931745846E+00 -5.285708867E+01  5.329042086E+01  1.500000000E+00  0.00000E+00  9.000E+00
</event>
<event>
      5  10001  3.52971E+09  3.56238E+00 -1.00000E+00  2.75910E-01
      -1    -1     0     0     0   512  0.000000000E+00  0.000000000E+00  1.163343085E+02  1.163343085E+02  0.000000000E+00  0.00000E+00  9.000E+00
      21    -1     0     0   513   515  0.000000000E+00  0.000000000E+00 -1.631793784E+01  1.631793784E+01  0.000000000E+00  0.00000E+00  9.000E+00
      -1     1     1     2     0   511 -4.751523143E-01 -1.036308000E+01  5.721103227E+01  5.814490786E+01  3.300000131E-01  0.00000E+00  9.000E+00
      21     1     1     2   511   515  2.855302319E+00  1.301350866E+01  5.768686191E+01  5.920538993E+01  9.536743164E-07  0.00000E+00  9.000E+00
      21     1     1     2   513   512 -2.380150004E+00 -2.650428659E+00 -1.488152354E+01  1.530194853E+01  1.685873940E-07  0.00000E+00  9.000E+00
</event>
<event>
      5  10001  3.52971E+09  1.80851E+01 -1.00000E+00  1.70055E-01
      21    -1     0     0   511   512  0.000000000E+00  0.000000000E+00  1.302866096E+01  1.302866096E+01  0.000000000E+00  0.00000E+00  9.000E+00
       2    -1     0     0   512     0  0.000000000E+00  0.000000000E+00 -4.230517304E+01  4.230517304E+01  0.000000000E+00  0.00000E+00  9.000E+00
      21     1     1     2   511   514  1.097917318E+00  9.437002358E+00 -3.386228997E+00  1.008607866E+01  2.308477966E-07  0.00000E+00  9.000E+00
       2     1     1     2   513     0  9.666144418E+00 -1.379218630E+01 -2.872041139E+01  3.329609109E+01  3.300000131E-01  0.00000E+00  9.000E+00
      21     1     1     2   514   513 -1.076406174E+01  4.355183946E+00  2.830128312E+00  1.195166426E+01  3.371747881E-07  0.00000E+00  9.000E+00
</event>
<event>
      5  10001  3.52971E+09  1.83094E+00 -1.00000E+00  3.81954E-01
      21    -1     0     0   515   512  0.000000000E+00  0.000000000E+00  5.680425820E+00  5.680425820E+00  0.000000000E+00  0.00000E+00  9.000E+00
      -1    -1     0     0     0   515  0.000000000E+00  0.000000000E+00 -1.713952886E+02  1.713952886E+02  0.000000000E+00  0.00000E+00  9.000E+00
      -1     1     1     2     0   511  7.788312281E+00 -1.025000836E+01 -1.624716676E+02  1.629812019E+02  3.300000131E-01  0.00000E+00  9.000E+00
      21     1     1     2   511   516 -7.172017669E+00  7.535087347E+00 -8.747797143E-01  1.043937825E+01  1.381876841E-07  0.00000E+00  9.000E+00
      21     1     1     2   516   512 -6.162946120E-01  2.714921010E+00 -2.368415465E+00  3.655134327E+00  8.940696716E-08  0.00000E+00  9.000E+00
</event>
<event>
      5  10001  3.52971E+09  1.04245E+01 -1.00000E+00  1.93688E-01
       2    -1     0     0   511     0  0.000000000E+00  0.000000000E+00  5.715906467E+01  5.715906467E+01  0.000000000E+00  0.00000E+00  9.000E+00
      21    -1     0     0   513   514  0.000000000E+00  0.000000000E+00 -2.546712292E+01  2.546712292E+01  0.000000000E+00  0.00000E+00  9.000E+00
      21     1     1     2   515   514  2.023548917E+00 -1.261563767E-01 -3.829983853E+00  4.333525350E+00  9.424321831E-08  0.00000E+00  9.000E+00
       2     1     1     2   513     0 -1.099368027E+01  1.098931934E+01  5.335044292E+01  5.556981920E+01  3.300000131E-01  0.00000E+00  9.000E+00
      21     1     1     2   511   515  8.970131354E+00 -1.086316297E+01 -1.782851731E+01  2.272284304E+01  4.768371582E-07  0.00000E+00  9.000E+00
</event>
<event>
      5  10001  3.52971E+09  2.50859E+01 -1.00000E+00  1.58636E-01
      21    -1     0     0   512   515  0.000000000E+00  0.000000000E+00  2.182610170E+01  2.182610170E+01  0.000000000E+00  0.00000E+00  9.000E+00
      21    -1     0     0   516   514  0.000000000E+00  0.000000000E+00 -1.789866559E+02  1.789866559E+02  0.000000000E+00  0.00000E+00  9.000E+00
      21     1     1     2   513   515  3.497107907E+01 -1.134144020E-01 -8.614246060E+00  3.601658603E+01  8.596304120E-07  0.00000E+00  9.000E+00
      21     1     1     2   516   513 -1.590263111E+01  1.641358163E+01 -1.170970107E+01  2.567910507E+01  7.725644944E-07  0.00000E+00  9.000E+00
      21     1     1     2   512   514 -1.906844796E+01 -1.630016723E+01 -1.368366071E+02  1.391170665E+02  1.907348633E-06  0.00000E+00  9.000E+00
</event>
<event>
      5  10001  3.52971E+09  2.19765E+01 -1.00000E+00  1.63058E-01
       3    -1     0     0   514     0  0.000000000E+00  0.000000000E+00  3.513647640E+01  3.513647640E+01  0.000000000E+00  0.00000E+00  9.000E+00
      21    -1     0     0   511   512  0.000000000E+00  0.000000000E+00 -5.337144312E+00  5.337144312E+00  0.000000000E+00  0.00000E+00  9.000E+00
      21     1     1     2   514   512 -4.296436870E+00  1.716797762E+00  7.297094913E+00  8.640275372E+00  1.685873940E-07  0.00000E+00  9.000E+00
       3     1     1     2   513     0  4.062260150E+00 -4.640712820E+00  2.630939199E+01  2.702725069E+01  5.000000000E-01  0.00000E+00  9.000E+00
      21     1     1     2   511   513  2.341767204E-01  2.923915058E+00 -3.807154815E+00  4.806094650E+00  3.009887021E-07  0.00000E+00  9.000E+00
</event>
<event>
      5  10001  3.52971E+09  8.09652E+00 -1.00000E+00  2.06987E-01
      21    -1     0     0   511   513  0.000000000E+00  0.000000000E+00  2.728295181E+01  2.728295181E+01  0.000000000E+00  0.00000E+00  9.000E+00
      -1    -1     0     0     0   515  0.000000000E+00  0.000000000E+00 -4.562846513E+01  4.562846513E+01  0.000000000E+00  0.00000E+00  9.000E+00
      -1     1     1     2     0   512 -1.281768490E+01  2.993845016E+00 -2.264967691E+01  2.619871978E+01  3.300000131E-01  0.00000E+00  9.000E+00
      21     1     1     2   511   515  1.439340889E+01 -7.406644370E+00  2.261531852E+01  2.781153056E+01  2.384185791E-07  0.00000E+00  9.000E+00
      21     1     1     2   512   513 -1.575723992E+00  4.412799354E+00 -1.831115493E+01  1.890116661E+01  4.129530925E-07  0.00000E+00  9.000E+00
</event>
<event>
      5  10001  3.52971E+09  5.92631E+00 -1.00000E+00  2.26302E-01
      21    -1     0     0   514   516  0.000000000E+00  0.000000000E+00  3.374397142E+00  3.374397142E+00  0.000000000E+00  0.00000E+00  9.000E+00
      21    -1     0     0   512   513  0.000000000E+00  0.000000000E+00 -4.434213720E+02  4.434213720E+02  0.000000000E+00  0.00000E+00  9.000E+00
      21     1     1     2   514   513  9.655292040E+00 -4.142527874E-02 -4.062526479E+02  4.063673712E+02  0.000000000E+00  0.00000E+00  9.000E+00
      21     1     1     2   512   511 -9.711525597E+00 -2.788380328E+00 -4.607845936E+00  1.110500061E+01  3.576278687E-07  0.00000E+00  9.000E+00
      21     1     1     2   511   516  5.623355682E-02  2.829805607E+00 -2.918648102E+01  2.932339742E+01  3.371747881E-07  0.00000E+00  9.000E+00
</event>
<event>
      5  10001  3.52971E+09  9.85360E+00 -1.00000E+00  1.96496E-01
      21    -1     0     0   515   512  0.000000000E+00  0.000000000E+00  3.110215541E+01  3.110215541E+01  0.000000000E+00  0.00000E+00  9.000E+00
      21    -1     0     0   516   513  0.000000000E+00  0.000000000E+00 -3.383100990E+01  3.383100990E+01  0.000000000E+00  0.00000E+00  9.000E+00
      21     1     1     2   516   517  6.731652739E+00  2.090679623E+00 -4.473280790E+00  8.348432842E+00  1.685873940E-07  0.00000E+00  9.000E+00
      21     1     1     2   517   512 -1.425559551E+01  4.272004783E+00  2.624846189E+01  3.017372665E+01  3.371747881E-07  0.00000E+00  9.000E+00
      21     1     1     2   515   513  7.523942768E+00 -6.362684406E+00 -2.450403560E+01  2.641100582E+01  4.768371582E-07  0.00000E+00  9.000E+00
</event>
<event>
      5  10001  3.52971E+09  1.07206E+01 -1.00000E+00  1.92323E-01
      21    -1     0     0   514   512  0.000000000E+00  0.000000000E+00  3.632701936E+02  3.632701936E+02  0.000000000E+00  0.00000E+00  9.000E+00
      21    -1     0     0   511   513  0.000000000E+00  0.000000000E+00 -3.741688806E+00  3.741688806E+00  0.000000000E+00  0.00000E+00  9.000E+00
      21     1     1     2   514   513 -2.265228826E+00 -2.385381000E+01  2.582374640E+02  2.593467241E+02  5.394796609E-06  0.00000E+00  9.000E+00
       5     1     1     2   511     0  3.124488555E+00  1.336446891E+01  1.610574296E+01  2.169807402E+01  4.800000191E+00  0.00000E+00  9.000E+00
      -5     1     1     2     0   512 -8.592597290E-01  1.048934108E+01  8.518529782E+01  8.596708423E+01  4.800000191E+00  0.00000E+00  9.000E+00
</event>
<event>
      5  10001  3.52971E+09  8.26633E+00 -1.00000E+00  2.05823E-01
      21    -1     0     0   511   513  0.000000000E+00  0.000000000E+00  1.692138921E+02  1.692138921E+02  0.000000000E+00  0.00000E+00  9.000E+00
       3    -1     0     0   512     0  0.000000000E+00  0.000000000E+00 -5.627761869E+00  5.627761869E+00  0.000000000E+00  0.00000E+00  9.000E+00
      21     1     1     2   511   515  3.387895015E+00 -1.731761489E+01  3.397092528E+01  3.828056142E+01  0.000000000E+00  0.00000E+00  9.000E+00
       3     1     1     2   515     0 -3.180264627E+00  9.054753887E+00  3.580069811E+00  1.025522067E+01  5.000000000E-01  0.00000E+00  9.000E+00
      21     1     1     2   512   513 -2.076303878E-01  8.262861007E+00  1.260351352E+02  1.263058719E+02  1.907348633E-06  0.00000E+00  9.000E+00
</event>
<event>
      5  10001  3.52971E+09  4.00285E+00 -1.00000E+00  2.63389E-01
      21    -1     0     0   514   515  0.000000000E+00  0.000000000E+00  6.774074030E+01  6.774074030E+01  0.000000000E+00  0.00000E+00  9.000E+00
      21    -1     0     0   512   513  0.000000000E+00  0.000000000E+00 -2.972769575E+00  2.972769575E+00  0.000000000E+00  0.00000E+00  9.000E+00
      21     1     1     2   514   513  3.790884125E+00  9.957213385E+00  9.582530507E+00  1.432975198E+01  2.384185791E-07  0.00000E+00  9.000E+00
       1     1     1     2   512     0 -3.809996046E-03 -6.166906905E+00  3.111845034E+01  3.172534644E+01  3.300000131E-01  0.00000E+00  9.000E+00
      -1     1     1     2     0   515 -3.787074129E+00 -3.790306480E+00  2.406698988E+01  2.465841145E+01  3.300000131E-01  0.00000E+00  9.000E+00
</event>
<event>
      5  10001  3.52971E+09  8.56922E+00 -1.00000E+00  2.03838E-01
       2    -1     0     0   513     0  0.000000000E+00  0.000000000E+00  9.578181032E+02  9.578181032E+02  0.000000000E+00  0.00000E+00  9.000E+00
      21    -1     0     0   511   516  0.000000000E+00  0.000000000E+00 -2.595408558E+02  2.595408558E+02  0.000000000E+00  0.00000E+00  9.000E+00
      21     1     1     2   512   516 -3.446065395E+00  1.127387735E+01 -2.591638696E+02  2.594318542E+02  9.344061824E-06  0.00000E+00  9.000E+00
       2     1     1     2   511     0  7.039520027E+00 -1.905324607E+01  7.955703309E+02  7.958296559E+02  3.300000131E-01  0.00000E+00  9.000E+00
      21     1     1     2   513   512 -3.593454632E+00  7.779368721E+00  1.618707862E+02  1.620974489E+02  0.000000000E+00  0.00000E+00  9.000E+00
</event>
<event>
      5  10001  3.52971E+09  8.78025E+00 -1.00000E+00  2.02518E-01
      21    -1     0     0   514   511  0.000000000E+00  0.000000000E+00  3.801403128E+02  3.801403128E+02  0.000000000E+00  0.00000E+00  9.000E+00
      21    -1     0     0   515   512  0.000000000E+00  0.000000000E+00 -4.936976152E-01  4.936976152E-01  0.000000000E+00  0.00000E+00  9.000E+00
      21     1     1     2   514   512 -9.447675826E+00  4.947556904E+00  8.336721869E+01  8.404659452E+01  9.536743164E-07  0.00000E+00  9.000E+00
      21     1     1     2   515   516  5.163051790E+00 -4.806017920E+00  9.465851560E+01  9.492096443E+01  0.000000000E+00  0.00000E+00  9.000E+00
      21     1     1     2   516   511  4.284624035E+00 -1.415389839E-01  2.016208809E+02  2.016664515E+02  2.697398305E-06  0.00000E+00  9.000E+00
</event>
<event>
      5  10001  3.52971E+09  6.57397E+00 -1.00000E+00  2.19476E-01
      21    -1     0     0   513   512  0.000000000E+00  0.000000000E+00  9.579431578E+01  9.579431578E+01  0.000000000E+00  0.00000E+00  9.000E+00
      21    -1     0     0   511   513  0.000000000E+00  0.000000000E+00 -9.867016487E+01  9.867016487E+01  0.000000000E+00  0.00000E+00  9.000E+00
      21     1     1     2   511   517  3.493209132E+00 -1.506451457E+01 -9.704203279E+01  9.826646547E+01  0.000000000E+00  0.00000E+00  9.000E+00
      21     1     1     2   517   514  9.473589784E-01  1.519492205E+01  7.284193106E+01  7.441592615E+01  2.523185073E-06  0.00000E+00  9.000E+00
      21     1     1     2   514   512 -4.440568110E+00 -1.304074804E-01  2.132425265E+01  2.178208902E+01  0.000000000E+00  0.00000E+00  9.000E+00
</event>
<event>
      5  10001  3.52971E+09  7.64484E+00 -1.00000E+00  2.10278E-01
       1    -1     0     0   515     0  0.000000000E+00  0.000000000E+00  1.448576349E+02  1.448576349E+02  0.000000000E+00  0.00000E+00  9.000E+00
      21    -1     0     0   514   513  0.000000000E+00  0.000000000E+00 -2.428506378E+02  2.428506378E+02  0.000000000E+00  0.00000E+00  9.000E+00
      21     1     1     2   515   513 -1.090576494E+01 -3.763458540E+00 -2.422457866E+02  2.425203506E+02  3.814697266E-06  0.00000E+00  9.000E+00
       1     1     1     2   511     0  3.694350833E+00  6.248164916E+00  1.015242512E+02  1.017839392E+02  3.300000131E-01  0.00000E+00  9.000E+00
      21     1     1     2   514   511  7.211414107E+00 -2.484706376E+00  4.272853242E+01  4.340398302E+01  8.259061849E-07  0.00000E+00  9.000E+00
</event>
<event>
      5  10001  3.52971E+09  6.22772E+00 -1.00000E+00  2.22982E-01
      21    -1     0     0   512   513  0.000000000E+00  0.000000000E+00  1.835145158E+01  1.835145158E+01  0.000000000E+00  0.00000E+00  9.000E+00
       2    -1     0     0   514     0  0.000000000E+00  0.000000000E+00 -3.185355312E+02  3.185355312E+02  0.000000000E+00  0.00000E+00  9.000E+00
      21     1     1     2   514   511 -3.490184508E+00  1.510615875E+01 -1.034976572E+02  1.046524843E+02  3.303624740E-06  0.00000E+00  9.000E+00
       2     1     1     2   512     0  4.005299685E+00 -8.899821201E+00 -2.138000583E+02  2.140229498E+02  3.300000131E-01  0.00000E+00  9.000E+00
      21     1     1     2   511   513 -5.151151765E-01 -6.206337548E+00  1.711363590E+01  1.821154862E+01  4.129530925E-07  0.00000E+00  9.000E+00
</event>
<event>
      5  10001  3.52971E+09  8.34192E+00 -1.00000E+00  2.05317E-01
      21    -1     0     0   515   514  0.000000000E+00  0.000000000E+00  2.195604930E+01  2.195604930E+01  0.000000000E+00  0.00000E+00  9.000E+00
      21    -1     0     0   511   513  0.000000000E+00  0.000000000E+00 -4.525775764E+01  4.525775764E+01  0.000000000E+00  0.00000E+00  9.000E+00
      21     1     1     2   515   513 -6.310101055E+00 -9.565972394E+00  1.797015674E+01  2.131318222E+01  3.371747881E-07  0.00000E+00  9.000E+00
      21     1     1     2   512   514 -2.699653534E-01  8.455014081E+00 -3.705138496E+01  3.800480591E+01  0.000000000E+00  0.00000E+00  9.000E+00
      21     1     1     2   511   512  6.580066408E+00  1.110958312E+00 -4.220480123E+00  7.895818816E+00  1.192092896E-07  0.00000E+00  9.000E+00
</event>
<event>
      5  10001  3.52971E+09  7.45767E+00 -1.00000E+00  2.11733E-01
       3    -1     0     0   511     0  0.000000000E+00  0.000000000E+00  1.492022927E+01  1.492022927E+01  0.000000000E+00  0.00000E+00  9.000E+00
      21    -1     0     0   516   512  0.000000000E+00  0.000000000E+00 -2.243350829E+01  2.243350829E+01  0.000000000E+00  0.00000E+00  9.000E+00
      21     1     1     2   511   512 -1.539154859E+01  2.955041237E-01 -1.006830382E+01  1.839450550E+01  2.920019320E-07  0.00000E+00  9.000E+00
       3     1     1     2   513     0  1.024498457E+01 -4.006164333E+00  5.084362347E+00  1.212888297E+01  5.000000000E-01  0.00000E+00  9.000E+00
      21     1     1     2   516   513  5.146564013E+00  3.710660209E+00 -2.529337541E+00  6.830349092E+00  1.397852826E-07  0.00000E+00  9.000E+00
</event>
<event>
      5  10001  3.52971E+09  4.77422E+00 -1.00000E+00  2.46579E-01
      21    -1     0     0   514   513  0.000000000E+00  0.000000000E+00  7.978807069E+00  7.978807069E+00  0.000000000E+00  0.00000E+00  9.000E+00
      21    -1     0     0   513   511  0.000000000E+00  0.000000000E+00 -4.307772067E+01  4.307772067E+01  0.000000000E+00  0.00000E+00  9.000E+00
      -2     1     1     2     0   512  7.010715004E+00 -1.144606047E+00 -3.369046262E+01  3.443278117E+01  3.300000131E-01  0.00000E+00  9.000E+00
       2     1     1     2   514     0 -1.113534545E+01  8.180566405E-01  1.894229733E+00  1.132970173E+01  3.300000131E-01  0.00000E+00  9.000E+00
      21     1     1     2   512   511  4.124630444E+00  3.265494066E-01 -3.302680712E+00  5.294044834E+00  5.960464478E-08  0.00000E+00  9.000E+00
</event>
<event>
      5  10001  3.52971E+09  1.86757E+01 -1.00000E+00  1.68859E-01
      21    -1     0     0   515   512  0.000000000E+00  0.000000000E+00  8.775685657E+01  8.775685657E+01  0.000000000E+00  0.00000E+00  9.000E+00
      21    -1     0     0   513   515  0.000000000E+00  0.000000000E+00 -1.489049685E+01  1.489049685E+01  0.000000000E+00  0.00000E+00  9.000E+00
      21     1     1     2   513   511 -1.225296935E+01  1.528843928E+01 -3.999123229E+00  1.999661521E+01  2.950279396E-07  0.00000E+00  9.000E+00
      21     1     1     2   511   514 -2.255162283E+00 -1.226426778E+01  5.386225943E+01  5.528689729E+01  9.536743164E-07  0.00000E+00  9.000E+00
      21     1     1     2   514   512  1.450813164E+01 -3.024171493E+00  2.300322352E+01  2.736384090E+01  5.840038640E-07  0.00000E+00  9.000E+00
</event>
<event>
      5  10001  3.52971E+09  6.15892E+00 -1.00000E+00  2.23717E-01
      21    -1     0     0   516   511  0.000000000E+00  0.000000000E+00  2.458608763E+01  2.458608763E+01  0.000000000E+00  0.00000E+00  9.000E+00
      21    -1     0     0   512   516  0.000000000E+00  0.000000000E+00 -1.384615314E+01  1.384615314E+01  0.000000000E+00  0.00000E+00  9.000E+00
      21     1     1     2   512   513 -3.781517775E+00  8.353777359E+00 -9.404395224E+00  1.313499609E+01  1.685873940E-07  0.00000E+00  9.000E+00
      21     1     1     2   513   515  7.089366091E+00 -5.878323315E+00  1.883035950E+01  2.096178035E+01  2.384185791E-07  0.00000E+00  9.000E+00
      21     1     1     2   515   511 -3.307848316E+00 -2.475454044E+00  1.313970216E+00  4.335464328E+00  1.490116119E-08  0.00000E+00  9.000E+00
</event>
<event>
      5  10001  3.52971E+09  5.52020E+00 -1.00000E+00  2.31238E-01
      21    -1     0     0   514   511  0.000000000E+00  0.000000000E+00  6.527814741E+00  6.527814741E+00  0.000000000E+00  0.00000E+00  9.000E+00
      21    -1     0     0   511   512  0.000000000E+00  0.000000000E+00 -1.458403219E+02  1.458403219E+02  0.000000000E+00  0.00000E+00  9.000E+00
      -1     1     1     2     0   515  3.630306359E+00  9.022638575E+00 -3.123962114E+00  1.022033123E+01  3.300000131E-01  0.00000E+00  9.000E+00
       1     1     1     2   514     0  9.133717389E-01 -1.215655107E+01 -9.816578203E+00  1.565535338E+01  3.300000131E-01  0.00000E+00  9.000E+00
      21     1     1     2   515   512 -4.543678098E+00  3.133912492E+00 -1.263719669E+02  1.264924521E+02  0.000000000E+00  0.00000E+00  9.000E+00
</event>
<event>
      5  10001  3.52971E+09  1.12430E+01 -1.00000E+00  1.90049E-01
      21    -1     0     0   514   515  0.000000000E+00  0.000000000E+00  2.516392948E+02  2.516392948E+02  0.000000000E+00  0.00000E+00  9.000E+00
      21    -1     0     0   511   513  0.000000000E+00  0.000000000E+00 -2.036945300E+01  2.036945300E+01  0.000000000E+00  0.00000E+00  9.000E+00
      21     1     1     2   511   512  1.118875582E+01  5.337076575E+00 -1.744280650E+01  2.139916217E+01  1.066240300E-06  0.00000E+00  9.000E+00
      21     1     1     2   512   515 -8.719024328E+00 -1.630543225E+01  1.840847394E+02  1.850110261E+02  3.814697266E-06  0.00000E+00  9.000E+00
      21     1     1     2   514   513 -2.469731487E+00  1.096835567E+01  6.462790893E+01  6.559855953E+01  0.000000000E+00  0.00000E+00  9.000E+00
</event>
<event>
      5  10001  3.52971E+09  4.84422E+00 -1.00000E+00  2.45291E-01
       3    -1     0     0   512     0  0.000000000E+00  0.000000000E+00  5.546953097E+01  5.546953097E+01  0.000000000E+00  0.00000E+00  9.000E+00
      21    -1     0     0   514   513  0.000000000E+00  0.000000000E+00 -2.822337071E+01  2.822337071E+01  0.000000000E+00  0.00000E+00  9.000E+00
      21     1     1     2   512   511 -7.390370298E+00  1.432680019E+01  2.841802178E+01  3.267198706E+01  4.768371582E-07  0.00000E+00  9.000E+00
       3     1     1     2   514     0  1.197193836E+01 -1.871931715E+01 -2.077031461E+01  3.042032399E+01  5.000000000E-01  0.00000E+00  9.000E+00
      21     1     1     2   511   513 -4.581568058E+00  4.392516958E+00  1.959845309E+01  2.060059064E+01  2.384185791E-07  0.00000E+00  9.000E+00
</event>
<event>
      5  10001  3.52971E+09  3.69978E+00 -1.00000E+00  2.71709E-01
      21    -1     0     0   515   513  0.000000000E+00  0.000000000E+00  5.466906893E+00  5.466906893E+00  0.000000000E+00  0.00000E+00  9.000E+00
       2    -1     0     0   511     0  0.000000000E+00  0.000000000E+00 -9.337412457E+02  9.337412457E+02  0.000000000E+00  0.00000E+00  9.000E+00
      21     1     1     2   515   516  2.185098679E+00  1.198682250E+01 -1.813943855E+00  1.231864287E+01  3.959336953E-07  0.00000E+00  9.000E+00
      21     1     1     2   511   513 -4.138363927E-01 -8.738613512E+00 -9.071594735E+01  9.113680777E+01  1.907348633E-06  0.00000E+00  9.000E+00
       2     1     1     2   516     0 -1.771262286E+00 -3.248208984E+00 -8.357444476E+02  8.357527020E+02  3.300000131E-01  0.00000E+00  9.000E+00
</event>
<event>
      5  10001  3.52971E+09  9.13831E+00 -1.00000E+00  2.00388E-01
      21    -1     0     0   512   511  0.000000000E+00  0.000000000E+00  8.501337193E+00  8.501337193E+00  0.000000000E+00  0.00000E+00  9.000E+00
      21    -1     0     0   516   514  0.000000000E+00  0.000000000E+00 -1.806973647E+01  1.806973647E+01  0.000000000E+00  0.00000E+00  9.000E+00
      21     1     1     2   512   514 -1.085177174E+01 -1.025381920E-01  8.211702944E-01  1.088328005E+01  6.580174615E-08  0.00000E+00  9.000E+00
      21     1     1     2   516   513  1.025400605E+00  8.787224638E-01 -3.242256548E+00  3.512239612E+00  0.000000000E+00  0.00000E+00  9.000E+00
      21     1     1     2   513   511  9.826371138E+00 -7.761842718E-01 -7.147313027E+00  1.217555400E+01  2.384185791E-07  0.00000E+00  9.000E+00
</event>
<event>
      5  10001  3.52971E+09  1.12124E+01 -1.00000E+00  1.90178E-01
      -1    -1     0     0     0   511  0.000000000E+00  0.000000000E+00  2.627278109E+01  2.627278109E+01  0.000000000E+00  0.00000E+00  9.000E+00
      21    -1     0     0   512   513  0.000000000E+00  0.000000000E+00 -1.699745019E+01  1.699745019E+01  0.000000000E+00  0.00000E+00  9.000E+00
      -1     1     1     2     0   513 -1.262697269E+01 -1.412858946E+01  8.025082922E+00  2.058077587E+01  3.300000131E-01  0.00000E+00  9.000E+00
      21     1     1     2   514   511  7.767464975E+00  6.074147248E+00 -5.330682708E+00  1.120914604E+01  2.308477966E-07  0.00000E+00  9.000E+00
      21     1     1     2   512   514  4.859507717E+00  8.054442211E+00  6.580930680E+00  1.148030937E+01  1.192092896E-07  0.00000E+00  9.000E+00
</event>
<event>
      5  10001  3.52971E+09  5.26148E+00 -1.00000E+00  2.34705E-01
      21    -1     0     0   515   513  0.000000000E+00  0.000000000E+00  2.921388511E+02  2.921388511E+02  0.000000000E+00  0.00000E+00  9.000E+00
      21    -1     0     0   511   516  0.000000000E+00  0.000000000E+00 -5.947250929E+02  5.947250929E+02  0.000000000E+00  0.00000E+00  9.000E+00
      21     1     1     2   515   516 -9.047250901E+00  2.136999586E+00  2.543111922E+02  2.544810445E+02  3.814697266E-06  0.00000E+00  9.000E+00
      21     1     1     2   512   513  1.145688791E+01 -6.814266680E+00  3.655369581E+01  3.890844623E+01  4.768371582E-07  0.00000E+00  9.000E+00
      21     1     1     2   511   512 -2.409637011E+00  4.677267094E+00 -5.934511298E+02  5.934744532E+02  1.078959322E-05  0.00000E+00  9.000E+00
</event>
<event>
      5  10001  3.52971E+09  2.66656E+00 -1.00000E+00  3.13300E-01
      -2    -1     0     0     0   514  0.000000000E+00  0.000000000E+00  1.189470004E+02  1.189470004E+02  0.000000000E+00  0.00000E+00  9.000E+00
      21    -1     0     0   513   512  0.000000000E+00  0.000000000E+00 -1.317863525E+01  1.317863525E+01  0.000000000E+00  0.00000E+00  9.000E+00
      -2     1     1     2     0   515  4.307823270E+00  1.206387248E+01  1.086313492E+02  1.093845204E+02  3.300000131E-01  0.00000E+00  9.000E+00
      21     1     1     2   513   514 -2.296561704E+00 -1.338818136E+01 -8.901248695E+00  1.624037635E+01  4.298152060E-07  0.00000E+00  9.000E+00
      21     1     1     2   515   512 -2.011261566E+00  1.324308876E+00  6.038264611E+00  6.500738927E+00  8.429369702E-08  0.00000E+00  9.000E+00
</event>
<event>
      5  10001  3.52971E+09  7.55858E+00 -1.00000E+00  2.10941E-01
       4    -1     0     0   511     0  0.000000000E+00  0.000000000E+00  1.685697058E+01  1.685697058E+01  0.000000000E+00  0.00000E+00  9.000E+00
      21    -1     0     0   515   516  0.000000000E+00  0.000000000E+00 -4.077116739E+01  4.077116739E+01  0.000000000E+00  0.00000E+00  9.000E+00
      21     1     1     2   511   516 -1.388671897E+01 -5.266894936E+00 -1.804821198E+01  2.337347004E+01  2.384185791E-07  0.00000E+00  9.000E+00
      21     1     1     2   515   512  1.426800202E+01  1.280525430E+01 -1.347426449E+01  2.343301566E+01  4.129530925E-07  0.00000E+00  9.000E+00
       4     1     1     2   512     0 -3.812830481E-01 -7.538359363E+00  7.608279657E+00  1.082165228E+01  1.500000000E+00  0.00000E+00  9.000E+00
</event>
<event>
      5  10001  3.52971E+09  6.42424E+00 -1.00000E+00  2.20955E-01
      -3    -1     0     0     0   513  0.000000000E+00  0.000000000E+00  5.635430740E+01  5.635430740E+01  0.000000000E+00  0.00000E+00  9.000E+00
       3    -1     0     0   513     0  0.000000000E+00  0.000000000E+00 -2.040227914E+02  2.040227914E+02  0.000000000E+00  0.00000E+00  9.000E+00
      -3     1     1     2     0   512  2.314336056E+00 -7.503755535E+00  5.217361630E+01  5.276361186E+01  5.000000000E-01  0.00000E+00  9.000E+00
      21     1     1     2   512   511 -4.411477421E+00  1.357598100E+01 -9.465507679E+00  1.712787870E+01  5.591411304E-07  0.00000E+00  9.000E+00
       3     1     1     2   511     0  2.097141364E+00 -6.072225469E+00 -1.903765926E+02  1.904856082E+02  5.000000000E-01  0.00000E+00  9.000E+00
</event>
<event>
      5  10001  3.52971E+09  1.21882E+01 -1.00000E+00  1.86316E-01
      21    -1     0     0   514   512  0.000000000E+00  0.000000000E+00  1.862823245E+02  1.862823245E+02  0.000000000E+00  0.00000E+00  9.000E+00
      21    -1     0     0   513   515  0.000000000E+00  0.000000000E+00 -1.870558301E+00  1.870558301E+00  0.000000000E+00  0.00000E+00  9.000E+00
      21     1     1     2   514   515  5.212221002E+00 -8.263965522E+00  1.368387086E+02  1.371870714E+02  1.907348633E-06  0.00000E+00  9.000E+00
      21     1     1     2   516   512 -8.801589284E+00  9.085581216E-01  1.533136199E+01  1.770152853E+01  3.371747881E-07  0.00000E+00  9.000E+00
      21     1     1     2   513   516  3.589368282E+00  7.355407400E+00  3.224169562E+01  3.326428293E+01  6.743495762E-07  0.00000E+00  9.000E+00
</event>
<event>
      5  10001  3.52971E+09  1.78425E+01 -1.00000E+00  1.70562E-01
       4    -1     0     0   513     0  0.000000000E+00  0.000000000E+00  1.595920724E+02  1.595920724E+02  0.000000000E+00  0.00000E+00  9.000E+00
      21    -1     0     0   511   516  0.000000000E+00  0.000000000E+00 -1.552401187E+00  1.552401187E+00  0.000000000E+00  0.00000E+00  9.000E+00
      21     1     1     2   513   516 -4.535301716E+00 -8.817204551E+00  3.746336144E+01  3.875326448E+01  6.743495762E-07  0.00000E+00  9.000E+00
       4     1     1     2   512     0  7.612404938E+00  4.927247921E-01  9.502420438E+01  9.534170601E+01  1.500000000E+00  0.00000E+00  9.000E+00
      21     1     1     2   511   512 -3.077103222E+00  8.324479759E+00  2.555210536E+01  2.704950306E+01  0.000000000E+00  0.00000E+00  9.000E+00
</event>
<event>
      5  10001  3.52971E+09  5.13932E+00 -1.00000E+00  2.36443E-01
      21    -1     0     0   514   511  0.000000000E+00  0.000000000E+00  1.309694289E+02  1.309694289E+02  0.000000000E+00  0.00000E+00  9.000E+00
      -1    -1     0     0     0   514  0.000000000E+00  0.000000000E+00 -1.220312806E+01  1.220312806E+01  0.000000000E+00  0.00000E+00  9.000E+00
      -1     1     1     2     0   515 -1.940478379E+00 -5.869950122E+00 -1.004862230E+01  1.180277429E+01  3.300000131E-01  0.00000E+00  9.000E+00
      21     1     1     2   513   511  4.794189352E+00  9.706313599E+00  1.243738369E+02  1.248440951E+02  1.348699152E-06  0.00000E+00  9.000E+00
      21     1     1     2   515   513 -2.853710973E+00 -3.836363476E+00  4.441086164E+00  6.525687500E+00  1.032382731E-07  0.00000E+00  9.000E+00
</event>
<event>
      5  10001  3.52971E+09  6.26243E+00 -1.00000E+00  2.22617E-01
      21    -1     0     0   512   513  0.000000000E+00  0.000000000E+00  2.682585770E+00  2.682585770E+00  0.000000000E+00  0.00000E+00  9.000E+00
      21    -1     0     0   515   516  0.000000000E+00  0.000000000E+00 -4.979128983E+01  4.979128983E+01  0.000000000E+00  0.00000E+00  9.000E+00
      21     1     1     2   512   516 -4.433430307E+00 -8.005067656E+00 -9.572474835E+00  1.324268428E+01  3.371747881E-07  0.00000E+00  9.000E+00
      21     1     1     2   515   511  4.932037548E+00  4.650046901E+00 -1.525409090E+01  1.669237011E+01  0.000000000E+00  0.00000E+00  9.000E+00
      21     1     1     2   511   513 -4.986072403E-01  3.355020755E+00 -2.228213832E+01  2.253882121E+01  3.371747881E-07  0.00000E+00  9.000E+00
</event>
<event>
      5  10001  3.52971E+09  4.59209E+00 -1.00000E+00  2.50093E-01
      21    -1     0     0   514   515  0.000000000E+00  0.000000000E+00  2.455069670E+02  2.455069670E+02  0.000000000E+00  0.00000E+00  9.000E+00
      21    -1     0     0   513   514  0.000000000E+00  0.000000000E+00 -7.328690391E+00  7.328690391E+00  0.000000000E+00  0.00000E+00  9.000E+00
      21     1     1     2   513   517 -5.245195562E+00 -1.123782223E+01 -1.614924331E+00  1.250634661E+01  5.057621821E-07  0.00000E+00  9.000E+00
      21     1     1     2   512   515  8.261262821E-01  9.027850463E+00  2.034394822E+02  2.036413698E+02  3.814697266E-06  0.00000E+00  9.000E+00
      21     1     1     2   517   512  4.419069280E+00  2.209971767E+00  3.635371875E+01  3.668794101E+01  6.743495762E-07  0.00000E+00  9.000E+00
</event>
<event>
      5  10001  3.52971E+09  3.23543E+00 -1.00000E+00  2.87244E-01
       2    -1     0     0   514     0  0.000000000E+00  0.000000000E+00  5.358562977E+02  5.358562977E+02  0.000000000E+00  0.00000E+00  9.000E+00
      21    -1     0     0   513   512  0.000000000E+00  0.000000000E+00 -5.770383306E+00  5.770383306E+00  0.000000000E+00  0.00000E+00  9.000E+00
      21     1     1     2   514   512  1.105880228E+01 -2.610692734E+00  2.787845570E+02  2.790160247E+02  5.394796609E-06  0.00000E+00  9.000E+00
       2     1     1     2   511     0 -1.326890794E+01  4.973545344E+00  2.562807796E+02  2.566724507E+02  3.300000131E-01  0.00000E+00  9.000E+00
      21     1     1     2   513   511  2.210105659E+00 -2.362852610E+00 -4.979422221E+00  5.938205549E+00  2.528810911E-07  0.00000E+00  9.000E+00
</event>
<event>
      5  10001  3.52971E+09  4.14426E+00 -1.00000E+00  2.59888E-01
      21    -1     0     0   512   511  0.000000000E+00  0.000000000E+00  5.165318254E+01  5.165318254E+01  0.000000000E+00  0.00000E+00  9.000E+00
      21    -1     0     0   513   516  0.000000000E+00  0.000000000E+00 -1.002153883E+01  1.002153883E+01  0.000000000E+00  0.00000E+00  9.000E+00
      21     1     1     2   515   516  7.555410263E-01  9.718026959E+00 -5.535235174E+00  1.120935853E+01  4.086288572E-07  0.00000E+00  9.000E+00
      21     1     1     2   513   511  2.127933555E+00 -1.269468036E+01  4.146217588E+01  4.341422623E+01  0.000000000E+00  0.00000E+00  9.000E+00
      21     1     1     2   512   515 -2.883474582E+00  2.976653400E+00  5.704703005E+00  7.051136610E+00  8.429369702E-08  0.00000E+00  9.000E+00
</event>
<event>
      5  10001  3.52971E+09  1.14587E+01 -1.00000E+00  1.89156E-01
      21    -1     0     0   514   513  0.000000000E+00  0.000000000E+00  3.455084623E+01  3.455084623E+01  0.000000000E+00  0.00000E+00  9.000E+00
      21    -1     0     0   517   515  0.000000000E+00  0.000000000E+00 -1.448198258E+01  1.448198258E+01  0.000000000E+00  0.00000E+00  9.000E+00
      21     1     1     2   514   515  9.963497046E+00 -9.822302477E+00 -8.280342330E+00  1.625770489E+01  2.064765462E-07  0.00000E+00  9.000E+00
      21     1     1     2   517   511  2.604855727E-01  4.536353826E+00  1.154697638E+01  1.240882840E+01  0.000000000E+00  0.00000E+00  9.000E+00
      21     1     1     2   511   513 -1.022398262E+01  5.285948651E+00  1.680222960E+01  2.036629552E+01  2.384185791E-07  0.00000E+00  9.000E+00
</event>
<event>
      5  10001  3.52971E+09  6.03691E+00 -1.00000E+00  2.25053E-01
      21    -1     0     0   514   512  0.000000000E+00  0.000000000E+00  3.646215337E+01  3.646215337E+01  0.000000000E+00  0.00000E+00  9.000E+00
      21    -1     0     0   512   513  0.000000000E+00  0.000000000E+00 -2.757798345E+01  2.757798345E+01  0.000000000E+00  0.00000E+00  9.000E+00
      -5     1     1     2     0   511  1.678997690E+01 -7.370054617E+00 -1.402462900E+01  2.357861849E+01  4.800000191E+00  0.00000E+00  9.000E+00
      21     1     1     2   511   513 -1.084336094E+01  7.287160554E+00 -3.037574399E+00  1.341298042E+01  1.632340424E-07  0.00000E+00  9.000E+00
       5     1     1     2   514     0 -5.946615955E+00  8.289406309E-02  2.594637332E+01  2.704853791E+01  4.800000191E+00  0.00000E+00  9.000E+00
</event>
<event>
      5  10001  3.52971E+09  4.00975E+00 -1.00000E+00  2.63213E-01
       3    -1     0     0   514     0  0.000000000E+00  0.000000000E+00  1.657608685E+03  1.657608685E+03  0.000000000E+00  0.00000E+00  9.000E+00
       2    -1     0     0   512     0  0.000000000E+00  0.000000000E+00 -5.902479637E+00  5.902479637E+00  0.000000000E+00  0.00000E+00  9.000E+00
      21     1     1     2   514   511  6.316866693E+00  4.820620256E+00  1.141531299E+00  8.027719364E+00  1.017324876E-06  0.00000E+00  9.000E+00
       3     1     1     2   512     0 -1.395932982E+01 -5.805437525E+00  1.646855864E+03  1.646925333E+03  5.000000000E-01  0.00000E+00  9.000E+00
       2     1     1     2   511     0  7.642463126E+00  9.848172687E-01  3.708809619E+00  8.558111736E+00  3.300000131E-01  0.00000E+00  9.000E+00
</event>
<event>
      5  10001  3.52971E+09  2.30117E+01 -1.00000E+00  1.61492E-01
      21    -1     0     0   513   512  0.000000000E+00  0.000000000E+00  5.585030704E+00  5.585030704E+00  0.000000000E+00  0.00000E+00  9.000E+00
      21    -1     0     0   511   515  0.000000000E+00  0.000000000E+00 -3.871938308E+01  3.871938308E+01  0.000000000E+00  0.00000E+00  9.000E+00
      21     1     1     2   513   515 -5.537464482E+00 -5.061803483E+00 -4.234469852E+00  8.614876802E+00  1.332800375E-07  0.00000E+00  9.000E+00
      21     1     1     2   511   514 -1.127053385E+00  5.329210263E+00  5.676473880E-01  5.476582412E+00  2.308477966E-07  0.00000E+00  9.000E+00
      21     1     1     2   514   512  6.664517867E+00 -2.674067798E-01 -2.946752991E+01  3.021295457E+01  3.371747881E-07  0.00000E+00  9.000E+00
</event>
<event>
      5  10001  3.52971E+09  1.69359E+01 -1.00000E+00  1.72554E-01
      21    -1     0     0   516   511  0.000000000E+00  0.000000000E+00  7.665753340E+00  7.665753340E+00  0.000000000E+00  0.00000E+00  9.000E+00
      21    -1     0     0   513   512  0.000000000E+00  0.000000000E+00 -7.938419125E+02  7.938419125E+02  0.000000000E+00  0.00000E+00  9.000E+00
      21     1     1     2   516   512 -2.297248674E+01  5.095324399E+00 -5.362291028E+01  5.855863715E+01  0.000000000E+00  0.00000E+00  9.000E+00
      21     1     1     2   517   511  7.988307423E+00 -1.298830930E+01 -6.300200361E+00  1.649853807E+01  5.654593098E-07  0.00000E+00  9.000E+00
      21     1     1     2   513   517  1.498417931E+01  7.892984900E+00 -7.262530485E+02  7.264504906E+02  1.078959322E-05  0.00000E+00  9.000E+00
</event>
<event>
      5  10001  3.52971E+09  1.09420E+01 -1.00000E+00  1.91339E-01
      21    -1     0     0   512   514  0.000000000E+00  0.000000000E+00  1.997491471E+03  1.997491471E+03  0.000000000E+00  0.00000E+00  9.000E+00
      21    -1     0     0   511   515  0.000000000E+00  0.000000000E+00 -5.281338712E-01  5.281338712E-01  0.000000000E+00  0.00000E+00  9.000E+00
      -5     1     1     2     0   515  5.805606215E+00 -1.583603353E+00  3.449963834E+01  3.534795483E+01  4.800000191E+00  0.00000E+00  9.000E+00
      21     1     1     2   511   514 -1.636622339E+01  3.584484743E+00  1.098414210E+03  1.098541979E+03  1.525878906E-05  0.00000E+00  9.000E+00
       5     1     1     2   512     0  1.056061718E+01 -2.000881390E+00  8.640494883E+02  8.641296711E+02  4.800000191E+00  0.00000E+00  9.000E+00
</event>
<event>
      5  10001  3.52971E+09  4.11295E+00 -1.00000E+00  2.60645E-01
      -1    -1     0     0     0   513  0.000000000E+00  0.000000000E+00  1.009974005E+01  1.009974005E+01  0.000000000E+00  0.00000E+00  9.000E+00
      21    -1     0     0   512   511  0.000000000E+00  0.000000000E+00 -2.211097452E+01  2.211097452E+01  0.000000000E+00  0.00000E+00  9.000E+00
      -1     1     1     2     0   514 -6.128357356E+00 -8.349809580E+00 -7.201054142E-01  1.038766267E+01  3.300000131E-01  0.00000E+00  9.000E+00
      21     1     1     2   512   513  8.931869462E+00  1.135830109E+01 -7.752568966E+00  1.639791515E+01  2.384185791E-07  0.00000E+00  9.000E+00
      21     1     1     2   514   511 -2.803512106E+00 -3.008491511E+00 -3.538560087E+00  5.425136753E+00  8.429369702E-08  0.00000E+00  9.000E+00
</event>
<event>
      5  10001  3.52971E+09  5.17629E+00 -1.00000E+00  2.35910E-01
      21    -1     0     0   515   512  0.000000000E+00  0.000000000E+00  4.125592417E+01  4.125592417E+01  0.000000000E+00  0.00000E+00  9.000E+00
      21    -1     0     0   513   516  0.000000000E+00  0.000000000E+00 -1.142016755E+01  1.142016755E+01  0.000000000E+00  0.00000E+00  9.000E+00
      21     1     1     2   513   512 -1.318739127E+01 -1.603813318E-02  2.265358069E+01  2.621244482E+01  4.768371582E-07  0.00000E+00  9.000E+00
       5     1     1     2   515     0  8.360224923E+00  1.147113105E+00  1.381966871E+01  1.688882691E+01  4.800000191E+00  0.00000E+00  9.000E+00
      -5     1     1     2     0   516  4.827166343E+00 -1.131074972E+00 -6.637492778E+00  9.574819983E+00  4.800000191E+00  0.00000E+00  9.000E+00
</event>
<event>
      5  10001  3.52971E+09  4.35523E+00 -1.00000E+00  2.55049E-01
      -2    -1     0     0     0   511  0.000000000E+00  0.000000000E+00  3.855441418E+00  3.855441418E+00  0.000000000E+00  0.00000E+00  9.000E+00
      21    -1     0     0   511   514  0.000000000E+00  0.000000000E+00 -5.464910551E+01  5.464910551E+01  0.000000000E+00  0.00000E+00  9.000E+00
      -2     1     1     2     0   512  7.125402339E-01 -5.208474009E+00 -5.436133791E+00  7.569436287E+00  3.300000131E-01  0.00000E+00  9.000E+00
      21     1     1     2   513   514  1.875521808E+00  1.193469337E+01 -4.045085554E+01  4.221642099E+01  6.743495762E-07  0.00000E+00  9.000E+00
      21     1     1     2   512   513 -2.588062042E+00 -6.726219356E+00 -4.906674763E+00  8.718689649E+00  5.960464478E-08  0.00000E+00  9.000E+00
</event>
<event>
      5  10001  3.52971E+09  2.00232E+01 -1.00000E+00  1.66324E-01
      21    -1     0     0   515   514  0.000000000E+00  0.000000000E+00  1.774797417E+00  1.774797417E+00  0.000000000E+00  0.00000E+00  9.000E+00
      21    -1     0     0   511   515  0.000000000E+00  0.000000000E+00 -8.634879177E+01  8.634879177E+01  0.000000000E+00  0.00000E+00  9.000E+00
      21     1     1     2   513   514 -3.395208440E+00 -3.402243570E+00 -1.890709981E+01  1.950848854E+01  2.384185791E-07  0.00000E+00  9.000E+00
      21     1     1     2   511   516  3.252802991E-01 -8.268474086E-01  1.228361241E+00  1.516032733E+00  1.731358474E-07  0.00000E+00  9.000E+00
      21     1     1     2   516   513  3.069928141E+00  4.229090978E+00 -6.689525578E+01  6.709906792E+01  0.000000000E+00  0.00000E+00  9.000E+00
</event>
<event>
      5  10001  3.52971E+09  3.86452E+00 -1.00000E+00  2.67038E-01
      -1    -1     0     0     0   512  0.000000000E+00  0.000000000E+00  1.755055251E+02  1.755055251E+02  0.000000000E+00  0.00000E+00  9.000E+00
      21    -1     0     0   512   513  0.000000000E+00  0.000000000E+00 -7.495361215E-01  7.495361215E-01  0.000000000E+00  0.00000E+00  9.000E+00
      -1     1     1     2     0   511  6.917851830E+00 -7.126296607E+00  1.274328755E+02  1.278197458E+02  3.300000131E-01  0.00000E+00  9.000E+00
      21     1     1     2   515   513 -6.558618539E+00  5.944726792E+00  4.418480675E+01  4.506276069E+01  1.168007728E-06  0.00000E+00  9.000E+00
      21     1     1     2   511   515 -3.592332914E-01  1.181569815E+00  3.138306768E+00  3.372554693E+00  4.214684851E-08  0.00000E+00  9.000E+00
</event>
<event>
      5  10001  3.52971E+09  6.58266E+00 -1.00000E+00  2.19391E-01
      21    -1     0     0   514   512  0.000000000E+00  0.000000000E+00  1.002061826E+01  1.002061826E+01  0.000000000E+00  0.00000E+00  9.000E+00
      21    -1     0     0   511   516  0.000000000E+00  0.000000000E+00 -2.728587766E+02  2.728587766E+02  0.000000000E+00  0.00000E+00  9.000E+00
      21     1     1     2   514   516  7.253164117E+00 -8.023145205E+00  6.633671462E+00  1.268798037E+01  5.900558792E-07  0.00000E+00  9.000E+00
      21     1     1     2   511   513 -3.683954486E+00  2.844663306E+00 -2.404887829E+02  2.405338195E+02  4.672030912E-06  0.00000E+00  9.000E+00
      21     1     1     2   513   512 -3.569209631E+00  5.178481899E+00 -2.898304695E+01  2.965759503E+01  0.000000000E+00  0.00000E+00  9.000E+00
</event>
<event>
      5  10001  3.52971E+09  1.11278E+01 -1.00000E+00  1.90537E-01
       1    -1     0     0   514     0  0.000000000E+00  0.000000000E+00  6.789046831E+01  6.789046831E+01  0.000000000E+00  0.00000E+00  9.000E+00
      21    -1     0     0   513   511  0.000000000E+00  0.000000000E+00 -6.458420793E+01  6.458420793E+01  0.000000000E+00  0.00000E+00  9.000E+00
       1     1     1     2   513     0  1.283799441E+01  5.295300898E+00  6.537337618E+01  6.683293742E+01  3.300000131E-01  0.00000E+00  9.000E+00
       4     1     1     2   514     0 -2.509904468E+00 -9.421527124E+00 -2.381352112E+01  2.577593029E+01  1.500000000E+00  0.00000E+00  9.000E+00
      -4     1     1     2     0   511 -1.032808994E+01  4.126226226E+00 -3.825359467E+01  3.986580853E+01  1.500000000E+00  0.00000E+00  9.000E+00
</event>
<event>
      5  10001  3.52971E+09  9.69039E+00 -1.00000E+00  1.97345E-01
      21    -1     0     0   512   511  0.000000000E+00  0.000000000E+00  3.134143823E+01  3.134143823E+01  0.000000000E+00  0.00000E+00  9.000E+00
      -1    -1     0     0     0   515  0.000000000E+00  0.000000000E+00 -9.586619849E+01  9.586619849E+01  0.000000000E+00  0.00000E+00  9.000E+00
      21     1     1     2   512   515 -1.567875382E+01  4.002453827E+00  2.501931377E+01  2.979612423E+01  8.259061849E-07  0.00000E+00  9.000E+00
      21     1     1     2   513   511  1.083945237E+01 -1.239785157E+01 -1.511375274E+01  2.235231472E+01  6.529361695E-07  0.00000E+00  9.000E+00
      -1     1     1     2     0   513  4.839301444E+00  8.395397745E+00 -7.443032129E+01  7.505919776E+01  3.300000131E-01  0.00000E+00  9.000E+00
</event>
<event>
      5  10001  3.52971E+09  8.58654E+00 -1.00000E+00  2.03727E-01
      21    -1     0     0   514   513  0.000000000E+00  0.000000000E+00  5.520555231E+01  5.520555231E+01  0.000000000E+00  0.00000E+00  9.000E+00
      21    -1     0     0   517   516  0.000000000E+00  0.000000000E+00 -3.895998052E+00  3.895998052E+00  0.000000000E+00  0.00000E+00  9.000E+00
      21     1     1     2   514   516 -5.956713139E+00  8.451633404E+00  4.008092071E+01  4.139314851E+01  4.768371582E-07  0.00000E+00  9.000E+00
      21     1     1     2   517   511 -1.296018856E-01 -3.890474392E+00 -2.920401537E-01  3.903572095E+00  9.714368590E-08  0.00000E+00  9.000E+00
      21     1     1     2   511   513  6.086315024E+00 -4.561159011E+00  1.152067370E+01  1.380482975E+01  1.685873940E-07  0.00000E+00  9.000E+00
</event>
<event>
      5  10001  3.52971E+09  3.29356E+00 -1.00000E+00  2.85074E-01
      21    -1     0     0   512   516  0.000000000E+00  0.000000000E+00  4.232595936E+00  4.232595936E+00  0.000000000E+00  0.00000E+00  9.000E+00
       2    -1     0     0   515     0  0.000000000E+00  0.000000000E+00 -1.746100353E+03  1.746100353E+03  0.000000000E+00  0.00000E+00  9.000E+00
      21     1     1     2   512   513  7.302216822E+00 -7.620910095E+00 -3.883421942E+00  1.124640419E+01  1.192092896E-07  0.00000E+00  9.000E+00
      21     1     1     2   515   516 -5.598598898E+00  1.043962463E+01 -6.329854288E+01  6.439748134E+01  9.536743164E-07  0.00000E+00  9.000E+00
       2     1     1     2   513     0 -1.703617924E+00 -2.818714533E+00 -1.674685792E+03  1.674689064E+03  3.300000131E-01  0.00000E+00  9.000E+00
</event>
<event>
      5  10001  3.52971E+09  1.01492E+01 -1.00000E+00  1.95012E-01
      21    -1     0     0   511   515  0.000000000E+00  0.000000000E+00  4.116569853E+02  4.116569853E+02  0.000000000E+00  0.00000E+00  9.000E+00
      21    -1     0     0   513   514  0.000000000E+00  0.000000000E+00 -5.424197879E-01  5.424197879E-01  0.000000000E+00  0.00000E+00  9.000E+00
      21     1     1     2   511   514  3.215520868E-02  8.158468524E+00  4.905348512E+01  4.972731689E+01  9.536743164E-07  0.00000E+00  9.000E+00
      21     1     1     2   512   515 -5.788700227E+00 -8.327512730E+00  2.915022141E+02  2.916785856E+02  6.607249480E-06  0.00000E+00  9.000E+00
      21     1     1     2   513   512  5.756545018E+00  1.690442059E-01  7.055886630E+01  7.079350252E+01  9.536743164E-07  0.00000E+00  9.000E+00
</event>
<event>
      5  10001  3.52971E+09  3.64592E+00 -1.00000E+00  2.73321E-01
      -1    -1     0     0     0   513  0.000000000E+00  0.000000000E+00  1.437964128E+00  1.437964128E+00  0.000000000E+00  0.00000E+00  9.000E+00
       2    -1     0     0   513     0  0.000000000E+00  0.000000000E+00 -1.212141755E+03  1.212141755E+03  0.000000000E+00  0.00000E+00  9.000E+00
      -1     1     1     2     0   514 -1.109520201E+01  9.410109737E-01 -2.803424343E+01  3.016648328E+01  3.300000131E-01  0.00000E+00  9.000E+00
       2     1     1     2   511     0  1.195498772E+01  1.265309588E+00 -1.178902057E+03  1.178963397E+03  3.300000131E-01  0.00000E+00  9.000E+00
      21     1     1     2   514   511 -8.597857149E-01 -2.206320562E+00 -3.767491235E+00  4.449839559E+00  4.214684851E-08  0.00000E+00  9.000E+00
</event>
<event>
      5  10001  3.52971E+09  3.68421E+00 -1.00000E+00  2.72171E-01
      21    -1     0     0   515   511  0.000000000E+00  0.000000000E+00  3.640761180E+02  3.640761180E+02  0.000000000E+00  0.00000E+00  9.000E+00
      -2    -1     0     0     0   512  0.000000000E+00  0.000000000E+00 -8.306114231E-01  8.306114231E-01  0.000000000E+00  0.00000E+00  9.000E+00
      21     1     1     2   513   511  3.332413122E+00  9.428333205E+00  1.021179387E+02  1.026063928E+02  1.907348633E-06  0.00000E+00  9.000E+00
      21     1     1     2   515   512 -8.115264710E+00 -1.495307355E+01  1.579002373E+02  1.588141582E+02  1.907348633E-06  0.00000E+00  9.000E+00
      -2     1     1     2     0   513  4.782851588E+00  5.524740350E+00  1.032273306E+02  1.034861783E+02  3.300000131E-01  0.00000E+00  9.000E+00
</event>
<event>
      5  10001  3.52971E+09  5.78837E+00 -1.00000E+00  2.27915E-01
      21    -1     0     0   511   514  0.000000000E+00  0.000000000E+00  1.864505438E+02  1.864505438E+02  0.000000000E+00  0.00000E+00  9.000E+00
      -3    -1     0     0     0   513  0.000000000E+00  0.000000000E+00 -9.440249289E+00  9.440249289E+00  0.000000000E+00  0.00000E+00  9.000E+00
      -3     1     1     2     0   512 -1.316713425E+01 -2.496116855E+00 -3.759951617E+00  1.392807452E+01  5.000000000E-01  0.00000E+00  9.000E+00
      21     1     1     2   512   514  1.190674923E+01 -3.153151718E+00  1.575944758E+02  1.580750829E+02  1.907348633E-06  0.00000E+00  9.000E+00
      21     1     1     2   511   513  1.260385017E+00  5.649268573E+00  2.317577033E+01  2.388763564E+01  3.371747881E-07  0.00000E+00  9.000E+00
</event>
<event>
      5  10001  3.52971E+09  8.49752E+00 -1.00000E+00  2.04298E-01
      21    -1     0     0   515   512  0.000000000E+00  0.000000000E+00  1.720192466E+00  1.720192466E+00  0.000000000E+00  0.00000E+00  9.000E+00
      21    -1     0     0   516   515  0.000000000E+00  0.000000000E+00 -1.325741086E+02  1.325741086E+02  0.000000000E+00  0.00000E+00  9.000E+00
      21     1     1     2   516   513 -7.160590155E+00 -8.479543646E+00 -1.021191512E+02  1.027204836E+02  1.907348633E-06  0.00000E+00  9.000E+00
      21     1     1     2   514   512  2.365916746E+00  5.763649452E+00 -2.203585399E+01  2.289969603E+01  4.768371582E-07  0.00000E+00  9.000E+00
      21     1     1     2   513   514  4.794673409E+00  2.715894194E+00 -6.698910865E+00  8.674121347E+00  8.429369702E-08  0.00000E+00  9.000E+00
</event>
<event>
      5  10001  3.52971E+09  7.12787E+00 -1.00000E+00  2.14443E-01
       2    -1     0     0   513     0  0.000000000E+00  0.000000000E+00  2.402183153E+02  2.402183153E+02  0.000000000E+00  0.00000E+00  9.000E+00
      21    -1     0     0   512   514  0.000000000E+00  0.000000000E+00 -4.553686409E+01  4.553686409E+01  0.000000000E+00  0.00000E+00  9.000E+00
      21     1     1     2   513   514  7.683904417E+00  8.800879521E+00  1.584035349E+01  1.968285208E+01  5.057621821E-07  0.00000E+00  9.000E+00
       2     1     1     2   511     0 -1.198082023E+01 -1.448795387E+01  2.217649656E+02  2.225606653E+02  3.300000131E-01  0.00000E+00  9.000E+00
      21     1     1     2   512   511  4.296915809E+00  5.687074345E+00 -4.292386787E+01  4.351166203E+01  4.768371582E-07  0.00000E+00  9.000E+00
</event>
<event>
      5  10001  3.52971E+09  2.04334E+01 -1.00000E+00  1.65601E-01
      21    -1     0     0   515   511  0.000000000E+00  0.000000000E+00  1.800950572E+02  1.800950572E+02  0.000000000E+00  0.00000E+00  9.000E+00
      21    -1     0     0   512   516  0.000000000E+00  0.000000000E+00 -1.273020338E+00  1.273020338E+00  0.000000000E+00  0.00000E+00  9.000E+00
      21     1     1     2   515   516 -7.484338030E+00 -8.112433342E-01  2.689762435E+01  2.793126613E+01  3.371747881E-07  0.00000E+00  9.000E+00
      21     1     1     2   512   513  5.519928743E+00  8.249970124E+00  3.874968602E+01  4.000087232E+01  6.743495762E-07  0.00000E+00  9.000E+00
      21     1     1     2   513   511  1.964409287E+00 -7.438726790E+00  1.131747265E+02  1.134359391E+02  1.907348633E-06  0.00000E+00  9.000E+00
</event>
<event>
      5  10001  3.52971E+09  5.06181E+00 -1.00000E+00  2.37581E-01
      21    -1     0     0   515   512  0.000000000E+00  0.000000000E+00  8.061780548E+01  8.061780548E+01  0.000000000E+00  0.00000E+00  9.000E+00
      21    -1     0     0   517   511  0.000000000E+00  0.000000000E+00 -6.041239397E+00  6.041239397E+00  0.000000000E+00  0.00000E+00  9.000E+00
      21     1     1     2   514   511 -1.070442367E+00  1.094475919E+01  2.272234762E+01  2.524358695E+01  3.371747881E-07  0.00000E+00  9.000E+00
      21     1     1     2   517   512  2.215439911E+00 -1.587536659E+01  9.240075963E+00  1.850174159E+01  5.331201500E-07  0.00000E+00  9.000E+00
      21     1     1     2   515   514 -1.144997544E+00  4.930607394E+00  4.261414250E+01  4.291371633E+01  8.259061849E-07  0.00000E+00  9.000E+00
</event>
<event>
      5  10001  3.52971E+09  2.95367E+01 -1.00000E+00  1.53508E-01
      21    -1     0     0   513   511  0.000000000E+00  0.000000000E+00  5.113786525E+01  5.113786525E+01  0.000000000E+00  0.00000E+00  9.000E+00
      21    -1     0     0   516   513  0.000000000E+00  0.000000000E+00 -7.482450934E+00  7.482450934E+00  0.000000000E+00  0.00000E+00  9.000E+00
      21     1     1     2   516   514 -4.875903142E+00 -9.382167751E+00  3.694839138E+00  1.120050621E+01  2.107342426E-07  0.00000E+00  9.000E+00
      21     1     1     2   514   512  5.521354670E+00 -6.834127134E+00  1.880606626E+01  2.075713804E+01  0.000000000E+00  0.00000E+00  9.000E+00
      21     1     1     2   512   511 -6.454515282E-01  1.621629488E+01  2.115450892E+01  2.666267194E+01  6.307962682E-07  0.00000E+00  9.000E+00
</event>
<event>
      5  10001  3.52971E+09  2.55950E+01 -1.00000E+00  1.57987E-01
      21    -1     0     0   514   511  0.000000000E+00  0.000000000E+00  5.111666601E+01  5.111666601E+01  0.000000000E+00  0.00000E+00  9.000E+00
       2    -1     0     0   511     0  0.000000000E+00  0.000000000E+00 -9.898799930E+01  9.898799930E+01  0.000000000E+00  0.00000E+00  9.000E+00
      21     1     1     2   514   512 -5.697921672E+00 -1.366120552E+01  4.670411429E+01  4.899356223E+01  0.000000000E+00  0.00000E+00  9.000E+00
       2     1     1     2   513     0  1.436802676E+01  1.986676895E+01 -5.695478900E+01  6.200875415E+01  3.300000131E-01  0.00000E+00  9.000E+00
      21     1     1     2   512   513 -8.670105088E+00 -6.205563433E+00 -3.762065859E+01  3.910234893E+01  0.000000000E+00  0.00000E+00  9.000E+00
</event>
<event>
      5  10001  3.52971E+09  3.10804E+01 -1.00000E+00  1.51978E-01
      21    -1     0     0   515   512  0.000000000E+00  0.000000000E+00  2.322752077E+02  2.322752077E+02  0.000000000E+00  0.00000E+00  9.000E+00
      21    -1     0     0   511   516  0.000000000E+00  0.000000000E+00 -1.206123317E+00  1.206123317E+00  0.000000000E+00  0.00000E+00  9.000E+00
      21     1     1     2   515   516 -3.966563169E+00  5.575219501E-01  5.629242857E+01  5.643475852E+01  0.000000000E+00  0.00000E+00  9.000E+00
      21     1     1     2   511   514  1.990509370E+00 -1.480745914E+00  1.748467617E+02  1.748643612E+02  1.907348633E-06  0.00000E+00  9.000E+00
      21     1     1     2   514   512  1.976053800E+00  9.232239637E-01 -7.010595214E-02  2.182211253E+00  2.227399637E-07  0.00000E+00  9.000E+00
</event>
<event>
      5  10001  3.52971E+09  8.62207E+00 -1.00000E+00  2.03502E-01
      21    -1     0     0   513   514  0.000000000E+00  0.000000000E+00  8.010730277E+00  8.010730277E+00  0.000000000E+00  0.00000E+00  9.000E+00
      21    -1     0     0   512   513  0.000000000E+00  0.000000000E+00 -3.564326589E+01  3.564326589E+01  0.000000000E+00  0.00000E+00  9.000E+00
      21     1     1     2   511   514  5.819870836E+00 -7.560806844E+00  1.701820217E+00  9.691898097E+00  1.965598160E-07  0.00000E+00  9.000E+00
      21     1     1     2   515   511 -9.437344189E+00  8.979366981E+00 -2.020554866E+01  2.404072988E+01  2.384185791E-07  0.00000E+00  9.000E+00
      21     1     1     2   512   515  3.617473354E+00 -1.418560137E+00 -9.128807175E+00  9.921368190E+00  1.192092896E-07  0.00000E+00  9.000E+00
</event>
<event>
      5  10001  3.52971E+09  3.88609E+00 -1.00000E+00  2.66453E-01
       3    -1     0     0   511     0  0.000000000E+00  0.000000000E+00  2.001351383E+01  2.001351383E+01  0.000000000E+00  0.00000E+00  9.000E+00
       4    -1     0     0   512     0  0.000000000E+00  0.000000000E+00 -1.884582780E+01  1.884582780E+01  0.000000000E+00  0.00000E+00  9.000E+00
       3     1     1     2   512     0 -9.961143770E+00 -5.584183812E+00  1.414399846E+01  1.818543886E+01  5.000000000E-01  0.00000E+00  9.000E+00
       4     1     1     2   513     0  1.125997488E+01  3.984378085E+00 -1.392358540E+01  1.840593745E+01  1.500000000E+00  0.00000E+00  9.000E+00
      21     1     1     2   511   513 -1.298831106E+00  1.599805727E+00  9.472729746E-01  2.267965320E+00  6.746787681E-08  0.00000E+00  9.000E+00
</event>
<event>
      5  10001  3.52971E+09  2.91488E+00 -1.00000E+00  3.00703E-01
      21    -1     0     0   516   513  0.000000000E+00  0.000000000E+00  8.806211873E+00  8.806211873E+00  0.000000000E+00  0.00000E+00  9.000E+00
      21    -1     0     0   512   515  0.000000000E+00  0.000000000E+00 -1.971202451E+02  1.971202451E+02  0.000000000E+00  0.00000E+00  9.000E+00
      21     1     1     2   514   515  1.064809028E+01 -7.614494327E+00 -1.823187030E+02  1.827880516E+02  0.000000000E+00  0.00000E+00  9.000E+00
      21     1     1     2   512   513 -9.673672098E+00  4.867311120E+00 -1.218200200E+01  1.629944238E+01  8.760057960E-07  0.00000E+00  9.000E+00
      21     1     1     2   516   514 -9.744181799E-01  2.747183207E+00  6.186671792E+00  6.838962949E+00  2.795705652E-07  0.00000E+00  9.000E+00
</event>
<event>
      5  10001  3.52971E+09  4.34799E+00 -1.00000E+00  2.55208E-01
      21    -1     0     0   513   512  0.000000000E+00  0.000000000E+00  1.048528473E+02  1.048528473E+02  0.000000000E+00  0.00000E+00  9.000E+00
      21    -1     0     0   517   514  0.000000000E+00  0.000000000E+00 -3.498956516E+01  3.498956516E+01  0.000000000E+00  0.00000E+00  9.000E+00
      21     1     1     2   511   514 -1.417635231E+01  1.194164598E+01 -1.991622688E+01  2.720713081E+01  4.129530925E-07  0.00000E+00  9.000E+00
      21     1     1     2   517   512  1.150272356E+01 -8.512832680E+00 -6.879922363E+00  1.587810761E+01  1.460009660E-07  0.00000E+00  9.000E+00
      21     1     1     2   513   511  2.673628752E+00 -3.428813299E+00  9.665943139E+01  9.675717404E+01  1.348699152E-06  0.00000E+00  9.000E+00
</event>
<event>
      5  10001  3.52971E+09  1.93197E+01 -1.00000E+00  1.67615E-01
      21    -1     0     0   515   514  0.000000000E+00  0.000000000E+00  2.020595559E+01  2.020595559E+01  0.000000000E+00  0.00000E+00  9.000E+00
      21    -1     0     0   516   515  0.000000000E+00  0.000000000E+00 -6.623717522E+00  6.623717522E+00  0.000000000E+00  0.00000E+00  9.000E+00
      21     1     1     2   516   511 -5.680583284E-01 -4.876939957E+00  5.941077864E+00  7.707375675E+00  1.685873940E-07  0.00000E+00  9.000E+00
      21     1     1     2   512   514  3.591234476E+00 -4.290864233E+00 -1.536445874E+00  5.802512116E+00  6.322027277E-08  0.00000E+00  9.000E+00
      21     1     1     2   511   512 -3.023176147E+00  9.167804190E+00  9.177606080E+00  1.331978532E+01  2.384185791E-07  0.00000E+00  9.000E+00
</event>
<event>
      5  10001  3.52971E+09  6.56043E+00 -1.00000E+00  2.19607E-01
      21    -1     0     0   513   511  0.000000000E+00  0.000000000E+00  8.330643212E+00  8.330643212E+00  0.000000000E+00  0.00000E+00  9.000E+00
      21    -1     0     0   517   513  0.000000000E+00  0.000000000E+00 -4.559179841E+01  4.559179841E+01  0.000000000E+00  0.00000E+00  9.000E+00
      21     1     1     2   517   516  8.830167931E+00  4.328998184E+00 -3.756749567E+01  3.883334678E+01  6.743495762E-07  0.00000E+00  9.000E+00
      -5     1     1     2     0   511 -6.237708732E+00 -4.141649050E+00 -2.076447123E+00  9.133121129E+00  4.800000191E+00  0.00000E+00  9.000E+00
       5     1     1     2   516     0 -2.592459199E+00 -1.873491343E-01  2.382787592E+00  5.955973718E+00  4.800000191E+00  0.00000E+00  9.000E+00
</event>
<event>
      5  10001  3.52971E+09  9.40044E+00 -1.00000E+00  1.98909E-01
      21    -1     0     0   511   516  0.000000000E+00  0.000000000E+00  2.991674376E+01  2.991674376E+01  0.000000000E+00  0.00000E+00  9.000E+00
      21    -1     0     0   515   514  0.000000000E+00  0.000000000E+00 -2.290144163E+01  2.290144163E+01  0.000000000E+00  0.00000E+00  9.000E+00
      21     1     1     2   512   514 -1.301517507E+01  8.331603833E+00 -6.759896688E+00  1.686732367E+01  3.674277069E-07  0.00000E+00  9.000E+00
      21     1     1     2   515   516  6.493323751E+00 -1.561548566E+00 -9.060568563E+00  1.125591355E+01  2.384185791E-07  0.00000E+00  9.000E+00
      21     1     1     2   511   512  6.521851323E+00 -6.770055267E+00  2.283576738E+01  2.469494816E+01  0.000000000E+00  0.00000E+00  9.000E+00
</event>
<event>
      5  10001  3.52971E+09  1.14570E+01 -1.00000E+00  1.89163E-01
      21    -1     0     0   513   514  0.000000000E+00  0.000000000E+00  1.534924851E+02  1.534924851E+02  0.000000000E+00  0.00000E+00  9.000E+00
      21    -1     0     0   517   515  0.000000000E+00  0.000000000E+00 -4.955512210E+00  4.955512210E+00  0.000000000E+00  0.00000E+00  9.000E+00
      21     1     1     2   513   512 -1.046731938E+01  1.068894859E+01  7.721884167E+01  7.865473861E+01  1.348699152E-06  0.00000E+00  9.000E+00
      21     1     1     2   517   514  1.183878432E+01  6.857137926E-01  6.618478309E+01  6.723877252E+01  0.000000000E+00  0.00000E+00  9.000E+00
      21     1     1     2   512   515 -1.371464934E+00 -1.137466239E+01  5.133348152E+00  1.255448620E+01  3.264680848E-07  0.00000E+00  9.000E+00
</event>
<event>
      5  10001  3.52971E+09  1.10470E+01 -1.00000E+00  1.90883E-01
      21    -1     0     0   511   515  0.000000000E+00  0.000000000E+00  3.220417024E+00  3.220417024E+00  0.000000000E+00  0.00000E+00  9.000E+00
      21    -1     0     0   512   516  0.000000000E+00  0.000000000E+00 -1.189652262E+02  1.189652262E+02  0.000000000E+00  0.00000E+00  9.000E+00
      21     1     1     2   511   516  8.334130481E+00 -1.085765402E+01 -7.973459338E+01  8.090087615E+01  0.000000000E+00  0.00000E+00  9.000E+00
       3     1     1     2   512     0 -6.947600971E+00  3.379934999E+00 -4.693257988E+00  9.053716938E+00  5.000000000E-01  0.00000E+00  9.000E+00
      -3     1     1     2     0   515 -1.386529510E+00  7.477719023E+00 -3.131695776E+01  3.223105008E+01  5.000000000E-01  0.00000E+00  9.000E+00
</event>
<event>
      5  10001  3.52971E+09  2.12455E+00 -1.00000E+00  3.51241E-01
       1    -1     0     0   511     0  0.000000000E+00  0.000000000E+00  5.988256391E-02  5.988256391E-02  0.000000000E+00  0.00000E+00  9.000E+00
       2    -1     0     0   513     0  0.000000000E+00  0.000000000E+00 -2.014288218E+03  2.014288218E+03  0.000000000E+00  0.00000E+00  9.000E+00
       1     1     1     2   512     0 -6.987498506E+00 -2.040303177E+00 -4.039039700E+02  4.039696943E+02  3.300000131E-01  0.00000E+00  9.000E+00
       2     1     1     2   511     0  9.089261206E+00  4.224667186E+00 -1.324565467E+03  1.324603430E+03  3.300000131E-01  0.00000E+00  9.000E+00
      21     1     1     2   513   512 -2.101762700E+00 -2.184364009E+00 -2.857588982E+02  2.857749758E+02  3.814697266E-06  0.00000E+00  9.000E+00
</event>
<event>
      5  10001  3.52971E+09  1.17372E+01 -1.00000E+00  1.88041E-01
      21    -1     0     0   514   515  0.000000000E+00  0.000000000E+00  6.477173227E+01  6.477173227E+01  0.000000000E+00  0.00000E+00  9.000E+00
      21    -1     0     0   513   514  0.000000000E+00  0.000000000E+00 -1.333134326E+01  1.333134326E+01  0.000000000E+00  0.00000E+00  9.000E+00
      21     1     1     2   513   512 -1.493848573E+01 -8.220098957E+00 -5.493411145E+00  1.791384796E+01  2.665600750E-07  0.00000E+00  9.000E+00
      21     1     1     2   511   515  9.262144465E+00  4.473207690E+00  1.858043894E+01  2.123745791E+01  4.129530925E-07  0.00000E+00  9.000E+00
      21     1     1     2   512   511  5.676341260E+00  3.746891266E+00  3.835336120E+01  3.895176966E+01  0.000000000E+00  0.00000E+00  9.000E+00
</event>
<event>
      5  10001  3.52971E+09  1.35361E+01 -1.00000E+00  1.81687E-01
      21    -1     0     0   516   511  0.000000000E+00  0.000000000E+00  1.207129058E+02  1.207129058E+02  0.000000000E+00  0.00000E+00  9.000E+00
      21    -1     0     0   517   516  0.000000000E+00  0.000000000E+00 -1.002223932E+00  1.002223932E+00  0.000000000E+00  0.00000E+00  9.000E+00
      21     1     1     2   517   513 -6.623477481E+00 -8.541915976E-01  2.571565836E+01  2.656868800E+01  7.539457465E-07  0.00000E+00  9.000E+00
      21     1     1     2   513   514  3.689533928E+00  5.395908766E+00  2.204929658E+01  2.299782537E+01  4.129530925E-07  0.00000E+00  9.000E+00
      21     1     1     2   514   511  2.933943553E+00 -4.541717168E+00  7.194572691E+01  7.214861634E+01  0.000000000E+00  0.00000E+00  9.000E+00
</event>
<event>
      5  10001  3.52971E+09  6.62045E+00 -1.00000E+00  2.19027E-01
      21    -1     0     0   512   513  0.000000000E+00  0.000000000E+00  2.849538083E+01  2.849538083E+01  0.000000000E+00  0.00000E+00  9.000E+00
      21    -1     0     0   511   512  0.000000000E+00  0.000000000E+00 -2.213349244E+01  2.213349244E+01  0.000000000E+00  0.00000E+00  9.000E+00
      21     1     1     2   511   515  3.327890092E-01  9.897876112E+00 -1.982257066E+01  2.215881331E+01  4.129530925E-07  0.00000E+00  9.000E+00
      21     1     1     2   515   516 -1.802590070E+00 -5.411727034E+00  9.053613290E+00  1.070065578E+01  1.192092896E-07  0.00000E+00  9.000E+00
      21     1     1     2   516   513  1.469801061E+00 -4.486149078E+00  1.713084576E+01  1.776940418E+01  3.371747881E-07  0.00000E+00  9.000E+00
</event>
<event>
      5  10001  3.52971E+09  1.42028E+01 -1.00000E+00  1.79644E-01
      21    -1     0     0   514   515  0.000000000E+00  0.000000000E+00  1.996941251E+01  1.996941251E+01  0.000000000E+00  0.00000E+00  9.000E+00
      21    -1     0     0   511   513  0.000000000E+00  0.000000000E+00 -1.204480863E+02  1.204480863E+02  0.000000000E+00  0.00000E+00  9.000E+00
      21     1     1     2   514   513 -5.724286561E+00  8.451496903E+00  1.810463143E+01  2.078395862E+01  9.830249847E-07  0.00000E+00  9.000E+00
      21     1     1     2   511   512  7.620881536E+00 -6.845065284E-01 -4.926196775E+01  4.985266143E+01  9.536743164E-07  0.00000E+00  9.000E+00
      21     1     1     2   512   515 -1.896594975E+00 -7.766990375E+00 -6.932133742E+01  6.978087872E+01  1.651812370E-06  0.00000E+00  9.000E+00
</event>
<event>
      5  10001  3.52971E+09  9.95519E+00 -1.00000E+00  1.95978E-01
       2    -1     0     0   513     0  0.000000000E+00  0.000000000E+00  5.004505526E+02  5.004505526E+02  0.000000000E+00  0.00000E+00  9.000E+00
      21    -1     0     0   516   513  0.000000000E+00  0.000000000E+00 -2.094584253E+02  2.094584253E+02  0.000000000E+00  0.00000E+00  9.000E+00
      21     1     1     2   516   512 -1.124703395E+01  8.894407721E+00 -2.090731524E+02  2.095642844E+02  4.672030912E-06  0.00000E+00  9.000E+00
       2     1     1     2   511     0  8.914066216E+00 -4.802174210E+00  2.130120408E+02  2.132528074E+02  3.300000131E-01  0.00000E+00  9.000E+00
      21     1     1     2   512   511  2.332967733E+00 -4.092233511E+00  2.870532389E+02  2.870918861E+02  6.607249480E-06  0.00000E+00  9.000E+00
</event>
<event>
      5  10001  3.52971E+09  6.57123E+00 -1.00000E+00  2.19502E-01
       2    -1     0     0   514     0  0.000000000E+00  0.000000000E+00  1.813929309E+02  1.813929309E+02  0.000000000E+00  0.00000E+00  9.000E+00
       4    -1     0     0   512     0  0.000000000E+00  0.000000000E+00 -7.355812411E+01  7.355812411E+01  0.000000000E+00  0.00000E+00  9.000E+00
      21     1     1     2   512   511 -2.003675440E+00  1.522755738E+01  2.468384566E+01  2.907207346E+01  3.371747881E-07  0.00000E+00  9.000E+00
       4     1     1     2   514     0  4.313208918E+00 -9.075882080E+00 -7.093183871E+01  7.165578239E+01  1.500000000E+00  0.00000E+00  9.000E+00
       2     1     1     2   511     0 -2.309533478E+00 -6.151675301E+00  1.540827999E+02  1.542231992E+02  3.300000131E-01  0.00000E+00  9.000E+00
</event>
<event>
      5  10001  3.52971E+09  2.22754E+00 -1.00000E+00  3.42543E-01
       3    -1     0     0   514     0  0.000000000E+00  0.000000000E+00  3.691161555E+00  3.691161555E+00  0.000000000E+00  0.00000E+00  9.000E+00
      21    -1     0     0   512   514  0.000000000E+00  0.000000000E+00 -7.059076612E+02  7.059076612E+02  0.000000000E+00  0.00000E+00  9.000E+00
      21     1     1     2   511   513  1.058958466E+01 -3.438325963E+00 -1.929505699E+02  1.932715287E+02  2.697398305E-06  0.00000E+00  9.000E+00
       3     1     1     2   513     0 -1.108583139E+01  5.609833786E+00 -7.427477864E+00  1.448389865E+01  5.000000000E-01  0.00000E+00  9.000E+00
      21     1     1     2   512   511  4.962467292E-01 -2.171507823E+00 -5.018384519E+02  5.018433954E+02  0.000000000E+00  0.00000E+00  9.000E+00
</event>
<event>
      5  10001  3.52971E+09  1.13939E+01 -1.00000E+00  1.89422E-01
      21    -1     0     0   515   513  0.000000000E+00  0.000000000E+00  1.041874220E+01  1.041874220E+01  0.000000000E+00  0.00000E+00  9.000E+00
      21    -1     0     0   512   515  0.000000000E+00  0.000000000E+00 -3.789723164E+02  3.789723164E+02  0.000000000E+00  0.00000E+00  9.000E+00
      21     1     1     2   512   511 -7.690692109E+00  9.116272689E+00 -3.534234948E+02  3.536246878E+02  3.814697266E-06  0.00000E+00  9.000E+00
      21     1     1     2   511   514  1.002609063E+01 -1.175379894E+00  6.903367178E+00  1.222949262E+01  3.153981341E-07  0.00000E+00  9.000E+00
      21     1     1     2   514   513 -2.335398524E+00 -7.940892795E+00 -2.203344664E+01  2.353687820E+01  2.384185791E-07  0.00000E+00  9.000E+00
</event>
<event>
      5  10001  3.52971E+09  4.03127E+00 -1.00000E+00  2.62667E-01
      21    -1     0     0   515   511  0.000000000E+00  0.000000000E+00  8.154466080E+01  8.154466080E+01  0.000000000E+00  0.00000E+00  9.000E+00
      21    -1     0     0   512   513  0.000000000E+00  0.000000000E+00 -1.752432747E+01  1.752432747E+01  0.000000000E+00  0.00000E+00  9.000E+00
      21     1     1     2   516   513 -5.989328162E+00 -1.059988149E+01  8.934819605E+00  1.510167344E+01  4.129530925E-07  0.00000E+00  9.000E+00
      21     1     1     2   512   511  2.904166100E+00  1.319467143E+01 -1.120620540E+01  1.755313574E+01  0.000000000E+00  0.00000E+00  9.000E+00
      21     1     1     2   515   516  3.085162062E+00 -2.594789938E+00  6.629171913E+01  6.641417909E+01  9.536743164E-07  0.00000E+00  9.000E+00
</event>
<event>
      5  10001  3.52971E+09  1.39003E+01 -1.00000E+00  1.80553E-01
       2    -1     0     0   512     0  0.000000000E+00  0.000000000E+00  6.412802588E+02  6.412802588E+02  0.000000000E+00  0.00000E+00  9.000E+00
      21    -1     0     0   514   515  0.000000000E+00  0.000000000E+00 -2.718296847E-01  2.718296847E-01  0.000000000E+00  0.00000E+00  9.000E+00
      21     1     1     2   511   515  5.143558968E-01 -7.052305253E+00  2.647527485E+02  2.648471586E+02  0.000000000E+00  0.00000E+00  9.000E+00
       2     1     1     2   514     0 -8.709358214E+00  4.254620740E+00  1.873087081E+02  1.875596325E+02  3.300000131E-01  0.00000E+00  9.000E+00
      21     1     1     2   512   511  8.195002318E+00  2.797684512E+00  1.889469726E+02  1.891452974E+02  0.000000000E+00  0.00000E+00  9.000E+00
</event>
<event>
      5  10001  3.52971E+09  3.02177E+00 -1.00000E+00  2.95908E-01
      21    -1     0     0   513   515  0.000000000E+00  0.000000000E+00  2.480233726E+01  2.480233726E+01  0.000000000E+00  0.00000E+00  9.000E+00
      -2    -1     0     0     0   511  0.000000000E+00  0.000000000E+00 -3.551102526E+01  3.551102526E+01  0.000000000E+00  0.00000E+00  9.000E+00
      -2     1     1     2     0   514  7.001071062E+00  8.946893286E+00 -2.994124090E+01  3.202575061E+01  3.300000131E-01  0.00000E+00  9.000E+00
      21     1     1     2   513   511 -4.009316243E+00 -9.371011317E+00  1.503568880E+00  1.030296992E+01  1.632340424E-07  0.00000E+00  9.000E+00
      21     1     1     2   514   515 -2.991754820E+00  4.241180310E-01  1.772898402E+01  1.798464199E+01  0.000000000E+00  0.00000E+00  9.000E+00
</event>
<event>
      5  10001  3.52971E+09  9.91938E+00 -1.00000E+00  1.96160E-01
       2    -1     0     0   513     0  0.000000000E+00  0.000000000E+00  4.598541457E+01  4.598541457E+01  0.000000000E+00  0.00000E+00  9.000E+00
      21    -1     0     0   516   511  0.000000000E+00  0.000000000E+00 -5.831301725E+01  5.831301725E+01  0.000000000E+00  0.00000E+00  9.000E+00
      21     1     1     2   513   511  3.762989188E+00 -2.948176569E+01 -2.705314651E+01  4.018964210E+01  6.743495762E-07  0.00000E+00  9.000E+00
       2     1     1     2   512     0  6.133426151E+00  2.880872709E+01  3.243265148E+01  4.381264036E+01  3.300000131E-01  0.00000E+00  9.000E+00
      21     1     1     2   516   512 -9.896415339E+00  6.730385992E-01 -1.770710764E+01  2.029614935E+01  2.384185791E-07  0.00000E+00  9.000E+00
</event>
<event>
      5  10001  3.52971E+09  3.98467E+00 -1.00000E+00  2.63855E-01
       4    -1     0     0   511     0  0.000000000E+00  0.000000000E+00  1.565838090E+02  1.565838090E+02  0.000000000E+00  0.00000E+00  9.000E+00
      21    -1     0     0   512   511  0.000000000E+00  0.000000000E+00 -1.250382625E+00  1.250382625E+00  0.000000000E+00  0.00000E+00  9.000E+00
      21     1     1     2   513   514  7.026965482E+00 -2.091563211E+00  1.238966803E+01  1.439641464E+01  5.840038640E-07  0.00000E+00  9.000E+00
       4     1     1     2   514     0 -9.074301581E+00  2.962387830E+00  1.180392452E+02  1.184340833E+02  1.500000000E+00  0.00000E+00  9.000E+00
      21     1     1     2   512   513  2.047336099E+00 -8.708246189E-01  2.490451315E+01  2.500369365E+01  4.768371582E-07  0.00000E+00  9.000E+00
</event>
<event>
      5  10001  3.52971E+09  2.03078E+01 -1.00000E+00  1.65820E-01
      21    -1     0     0   515   513  0.000000000E+00  0.000000000E+00  3.624290228E+01  3.624290228E+01  0.000000000E+00  0.00000E+00  9.000E+00
      21    -1     0     0   512   515  0.000000000E+00  0.000000000E+00 -1.293875901E+02  1.293875901E+02  0.000000000E+00  0.00000E+00  9.000E+00
      21     1     1     2   516   513 -1.212757408E+01  9.286298540E+00  3.370448068E+01  3.700412695E+01  1.261592536E-06  0.00000E+00  9.000E+00
      21     1     1     2   512   511  5.925951776E+00 -9.882429562E+00 -4.209911933E+01  4.364762499E+01  9.536743164E-07  0.00000E+00  9.000E+00
      21     1     1     2   511   516  6.201622301E+00  5.961310220E-01 -8.475004913E+01  8.497874039E+01  1.651812370E-06  0.00000E+00  9.000E+00
</event>
<event>
      5  10001  3.52971E+09  4.67571E+01 -1.00000E+00  1.40755E-01
       1    -1     0     0   515     0  0.000000000E+00  0.000000000E+00  5.742076503E+02  5.742076503E+02  0.000000000E+00  0.00000E+00  9.000E+00
      21    -1     0     0   514   515  0.000000000E+00  0.000000000E+00 -1.176165819E+00  1.176165819E+00  0.000000000E+00  0.00000E+00  9.000E+00
      21     1     1     2   514   511  6.392707185E+00  3.938608431E+00  1.823785446E+01  1.972304938E+01  5.331201500E-07  0.00000E+00  9.000E+00
      21     1     1     2   511   512 -1.950608464E+00 -5.156516632E+00  1.751262968E+01  1.835992199E+01  5.840038640E-07  0.00000E+00  9.000E+00
       1     1     1     2   512     0 -4.442098721E+00  1.217908201E+00  5.372810003E+02  5.373008447E+02  3.300000131E-01  0.00000E+00  9.000E+00
</event>
<event>
      5  10001  3.52971E+09  2.02217E+01 -1.00000E+00  1.65972E-01
      21    -1     0     0   513   511  0.000000000E+00  0.000000000E+00  2.846785307E+01  2.846785307E+01  0.000000000E+00  0.00000E+00  9.000E+00
      21    -1     0     0   514   516  0.000000000E+00  0.000000000E+00 -2.034903907E+01  2.034903907E+01  0.000000000E+00  0.00000E+00  9.000E+00
      21     1     1     2   513   516  1.426496504E+00  8.689114010E+00 -1.365440531E+01  1.624741145E+01  3.371747881E-07  0.00000E+00  9.000E+00
      21     1     1     2   515   511  1.002054689E+01 -7.559748611E+00  1.326173016E+01  1.826019293E+01  4.768371582E-07  0.00000E+00  9.000E+00
      21     1     1     2   514   515 -1.144704339E+01 -1.129365399E+00  8.511489145E+00  1.430928775E+01  3.371747881E-07  0.00000E+00  9.000E+00
</event>
<event>
      5  10001  3.52971E+09  9.31839E+00 -1.00000E+00  1.99365E-01
      21    -1     0     0   512   511  0.000000000E+00  0.000000000E+00  8.843294902E+00  8.843294902E+00  0.000000000E+00  0.00000E+00  9.000E+00
       1    -1     0     0   514     0  0.000000000E+00  0.000000000E+00 -6.344269639E+01  6.344269639E+01  0.000000000E+00  0.00000E+00  9.000E+00
      21     1     1     2   513   511 -7.920702236E+00 -9.889550508E+00 -1.044603099E+01  1.642133663E+01  2.920019320E-07  0.00000E+00  9.000E+00
       1     1     1     2   512     0  9.840747772E+00  1.587112990E+01 -4.572189871E+01  4.938961432E+01  3.300000131E-01  0.00000E+00  9.000E+00
      21     1     1     2   514   513 -1.920045536E+00 -5.981579390E+00  1.568528203E+00  6.475040354E+00  1.672651196E-07  0.00000E+00  9.000E+00
</event>
<event>
      5  10001  3.52971E+09  6.70590E+00 -1.00000E+00  2.18217E-01
      -1    -1     0     0     0   513  0.000000000E+00  0.000000000E+00  4.652978885E-01  4.652978885E-01  0.000000000E+00  0.00000E+00  9.000E+00
       2    -1     0     0   513     0  0.000000000E+00  0.000000000E+00 -1.904131408E+03  1.904131408E+03  0.000000000E+00  0.00000E+00  9.000E+00
      -1     1     1     2     0   514 -1.006450687E+01 -5.531719849E+00 -7.382763825E+01  7.471628532E+01  3.300000131E-01  0.00000E+00  9.000E+00
      21     1     1     2   514   511  3.948180460E+00 -2.643527198E-01 -5.919088460E+02  5.919220726E+02  7.629394531E-06  0.00000E+00  9.000E+00
       2     1     1     2   511     0  6.116326413E+00  5.796072569E+00 -1.237929626E+03  1.237958348E+03  3.300000131E-01  0.00000E+00  9.000E+00
</event>
<event>
      5  10001  3.52971E+09  8.02337E+00 -1.00000E+00  2.07500E-01
      21    -1     0     0   513   512  0.000000000E+00  0.000000000E+00  1.480314326E+02  1.480314326E+02  0.000000000E+00  0.00000E+00  9.000E+00
      21    -1     0     0   512   515  0.000000000E+00  0.000000000E+00 -5.609023740E+01  5.609023740E+01  0.000000000E+00  0.00000E+00  9.000E+00
      -5     1     1     2     0   515  6.160430638E+00 -2.528628221E+01 -4.887678407E+01  5.558171459E+01  4.800000191E+00  0.00000E+00  9.000E+00
       5     1     1     2   511     0 -2.502523351E+00  1.817946179E+01  2.039616542E+01  2.785316894E+01  4.800000191E+00  0.00000E+00  9.000E+00
      21     1     1     2   513   511 -3.657907287E+00  7.106820426E+00  1.204218138E+02  1.206867864E+02  1.348699152E-06  0.00000E+00  9.000E+00
</event>
<event>
      5  10001  3.52971E+09  7.11592E+00 -1.00000E+00  2.14545E-01
       3    -1     0     0   512     0  0.000000000E+00  0.000000000E+00  2.619276136E+02  2.619276136E+02  0.000000000E+00  0.00000E+00  9.000E+00
      21    -1     0     0   513   511  0.000000000E+00  0.000000000E+00 -1.088466721E+01  1.088466721E+01  0.000000000E+00  0.00000E+00  9.000E+00
      21     1     1     2   514   511 -3.891429263E+01 -2.797613729E+00  4.482382176E+01  5.942494266E+01  1.719260824E-06  0.00000E+00  9.000E+00
       3     1     1     2   513     0  4.593448577E+01  1.635377517E+00  1.548715906E+02  1.615490978E+02  5.000000000E-01  0.00000E+00  9.000E+00
      21     1     1     2   512   514 -7.020193147E+00  1.162236212E+00  5.134753404E+01  5.183824029E+01  6.743495762E-07  0.00000E+00  9.000E+00
</event>
<event>
      5  10001  3.52971E+09  7.41860E+00 -1.00000E+00  2.12044E-01
      21    -1     0     0   515   511  0.000000000E+00  0.000000000E+00  7.300796718E+00  7.300796718E+00  0.000000000E+00  0.00000E+00  9.000E+00
      21    -1     0     0   513   514  0.000000000E+00  0.000000000E+00 -2.559402391E+02  2.559402391E+02  0.000000000E+00  0.00000E+00  9.000E+00
      21     1     1     2   515   514  6.087175382E+00  7.965398285E+00 -2.433898449E+01  2.632275518E+01  4.768371582E-07  0.00000E+00  9.000E+00
      21     1     1     2   516   511 -7.931648415E-01 -1.316242029E+01 -7.106482420E-01  1.320543219E+01  2.200130084E-07  0.00000E+00  9.000E+00
      21     1     1     2   513   516 -5.294010540E+00  5.197022003E+00 -2.235898096E+02  2.237128484E+02  2.697398305E-06  0.00000E+00  9.000E+00
</event>
<event>
      5  10001  3.52971E+09  8.17986E+00 -1.00000E+00  2.06411E-01
       2    -1     0     0   514     0  0.000000000E+00  0.000000000E+00  5.196115560E+02  5.196115560E+02  0.000000000E+00  0.00000E+00  9.000E+00
      21    -1     0     0   516   514  0.000000000E+00  0.000000000E+00 -6.550796346E+00  6.550796346E+00  0.000000000E+00  0.00000E+00  9.000E+00
      21     1     1     2   516   512 -1.266846019E+01 -5.123612280E+00  8.296647730E-01  1.369049415E+01  6.373622241E-07  0.00000E+00  9.000E+00
      21     1     1     2   512   511  9.735202421E+00  2.226617063E+00  2.378066342E+02  2.380162331E+02  3.814697266E-06  0.00000E+00  9.000E+00
       2     1     1     2   511     0  2.933257768E+00  2.896995217E+00  2.744244607E+02  2.744556250E+02  3.300000131E-01  0.00000E+00  9.000E+00
</event>
<event>
      5  10001  3.52971E+09  5.13998E+00 -1.00000E+00  2.36433E-01
      21    -1     0     0   513   511  0.000000000E+00  0.000000000E+00  3.445127276E+01  3.445127276E+01  0.000000000E+00  0.00000E+00  9.000E+00
      21    -1     0     0   515   513  0.000000000E+00  0.000000000E+00 -3.589998278E+01  3.589998278E+01  0.000000000E+00  0.00000E+00  9.000E+00
      21     1     1     2   517   511  9.283768851E+00 -4.284003466E+00  3.251758559E+01  3.408715920E+01  4.768371582E-07  0.00000E+00  9.000E+00
      21     1     1     2   515   512 -3.618790734E+00  1.129927973E+00 -2.449137827E+01  2.478305860E+01  4.768371582E-07  0.00000E+00  9.000E+00
      21     1     1     2   512   517 -5.664978117E+00  3.154075494E+00 -9.474917336E+00  1.148103775E+01  1.685873940E-07  0.00000E+00  9.000E+00
</event>
<event>
      5  10001  3.52971E+09  1.82958E+01 -1.00000E+00  1.69622E-01
      -4    -1     0     0     0   515  0.000000000E+00  0.000000000E+00  8.196987344E+02  8.196987344E+02  0.000000000E+00  0.00000E+00  9.000E+00
      21    -1     0     0   511   516  0.000000000E+00  0.000000000E+00 -2.734793410E+00  2.734793410E+00  0.000000000E+00  0.00000E+00  9.000E+00
      21     1     1     2   514   516 -2.729045755E+00 -1.866707423E+01  7.223486568E+01  7.465777368E+01  1.651812370E-06  0.00000E+00  9.000E+00
      21     1     1     2   511   515  9.348704665E+00  3.571590778E+01  2.504860273E+02  2.531921685E+02  4.672030912E-06  0.00000E+00  9.000E+00
      -4     1     1     2     0   514 -6.619658910E+00 -1.704883355E+01  4.942430481E+02  4.945835857E+02  1.500000000E+00  0.00000E+00  9.000E+00
</event>
<event>
      5  10001  3.52971E+09  5.07902E+00 -1.00000E+00  2.37326E-01
      21    -1     0     0   513   511  0.000000000E+00  0.000000000E+00  6.556947804E+01  6.556947804E+01  0.000000000E+00  0.00000E+00  9.000E+00
      -3    -1     0     0     0   512  0.000000000E+00  0.000000000E+00 -1.445164157E+02  1.445164157E+02  0.000000000E+00  0.00000E+00  9.000E+00
      -3     1     1     2     0   515 -1.114560878E+01  5.768193858E-01 -1.404975305E+02  1.409409926E+02  5.000000000E-01  0.00000E+00  9.000E+00
      21     1     1     2   513   512  1.016239586E+01  3.097769568E+00  6.383151112E+01  6.470959958E+01  6.743495762E-07  0.00000E+00  9.000E+00
      21     1     1     2   515   511  9.832129176E-01 -3.674588954E+00 -2.280918233E+00  4.435301524E+00  1.154238983E-07  0.00000E+00  9.000E+00
</event>
<event>
      5  10001  3.52971E+09  8.07575E+00 -1.00000E+00  2.07132E-01
      21    -1     0     0   515   511  0.000000000E+00  0.000000000E+00  1.824067477E+01  1.824067477E+01  0.000000000E+00  0.00000E+00  9.000E+00
       1    -1     0     0   511     0  0.000000000E+00  0.000000000E+00 -1.545262870E+02  1.545262870E+02  0.000000000E+00  0.00000E+00  9.000E+00
      21     1     1     2   515   514  9.796320763E+00 -4.972702373E-01  1.614727139E+01  1.889310857E+01  0.000000000E+00  0.00000E+00  9.000E+00
       1     1     1     2   512     0 -6.225920184E+00  6.333920783E+00 -1.325312403E+02  1.328289095E+02  3.300000131E-01  0.00000E+00  9.000E+00
      21     1     1     2   514   512 -3.570400578E+00 -5.836650545E+00 -1.990164331E+01  2.104494372E+01  3.371747881E-07  0.00000E+00  9.000E+00
</event>
<event>
      5  10001  3.52971E+09  5.51947E+00 -1.00000E+00  2.31247E-01
      21    -1     0     0   513   516  0.000000000E+00  0.000000000E+00  3.139900931E+00  3.139900931E+00  0.000000000E+00  0.00000E+00  9.000E+00
      21    -1     0     0   511   515  0.000000000E+00  0.000000000E+00 -2.121658478E+02  2.121658478E+02  0.000000000E+00  0.00000E+00  9.000E+00
      21     1     1     2   512   516  1.261620555E+01  1.086480665E+01 -4.586746046E+01  4.879586657E+01  6.743495762E-07  0.00000E+00  9.000E+00
      21     1     1     2   511   512 -9.528208703E+00 -6.290003444E+00 -1.845456844E+01  2.170073733E+01  4.129530925E-07  0.00000E+00  9.000E+00
      21     1     1     2   513   515 -3.087996844E+00 -4.574803203E+00 -1.447039180E+02  1.448091448E+02  1.907348633E-06  0.00000E+00  9.000E+00
</event>
<event>
      5  10001  3.52971E+09  1.04021E+01 -1.00000E+00  1.93794E-01
      21    -1     0     0   514   512  0.000000000E+00  0.000000000E+00  7.407042887E+00  7.407042887E+00  0.000000000E+00  0.00000E+00  9.000E+00
      21    -1     0     0   516   514  0.000000000E+00  0.000000000E+00 -1.935125496E+02  1.935125496E+02  0.000000000E+00  0.00000E+00  9.000E+00
      21     1     1     2   511   512  1.637760014E+01  2.166521711E+00 -4.804324137E+00  1.720468347E+01  3.625608999E-07  0.00000E+00  9.000E+00
      21     1     1     2   517   511 -6.783851908E+00 -6.186990797E+00 -1.922153755E+01  2.130180761E+01  4.129530925E-07  0.00000E+00  9.000E+00
      21     1     1     2   516   517 -9.593748235E+00  4.020469086E+00 -1.620796451E+02  1.624131014E+02  0.000000000E+00  0.00000E+00  9.000E+00
</event>
<event>
      5  10001  3.52971E+09  3.83920E+00 -1.00000E+00  2.67732E-01
      21    -1     0     0   513   516  0.000000000E+00  0.000000000E+00  5.157501290E+01  5.157501290E+01  0.000000000E+00  0.00000E+00  9.000E+00
       4    -1     0     0   512     0  0.000000000E+00  0.000000000E+00 -2.337672238E+01  2.337672238E+01  0.000000000E+00  0.00000E+00  9.000E+00
      21     1     1     2   513   515 -1.504010311E+01  2.988703429E-01  3.633344247E+01  3.932445888E+01  4.768371582E-07  0.00000E+00  9.000E+00
      21     1     1     2   512   516  1.122375858E+01  9.942358919E-02  1.120104794E+01  1.585705258E+01  2.384185791E-07  0.00000E+00  9.000E+00
       4     1     1     2   515     0  3.816344534E+00 -3.982939321E-01 -1.933619989E+01  1.977022382E+01  1.500000000E+00  0.00000E+00  9.000E+00
</event>
<event>
      5  10001  3.52971E+09  1.48649E+01 -1.00000E+00  1.77751E-01
      21    -1     0     0   511   512  0.000000000E+00  0.000000000E+00  8.296491920E+00  8.296491920E+00  0.000000000E+00  0.00000E+00  9.000E+00
      21    -1     0     0   514   511  0.000000000E+00  0.000000000E+00 -1.531520431E+01  1.531520431E+01  0.000000000E+00  0.00000E+00  9.000E+00
      21     1     1     2   514   517 -7.720531586E+00  2.202786233E+00 -3.454593474E+00  8.740314138E+00  1.632340424E-07  0.00000E+00  9.000E+00
      21     1     1     2   517   513  3.210463870E-01 -4.873735974E+00 -4.869545704E+00  6.897017362E+00  1.192092896E-07  0.00000E+00  9.000E+00
      21     1     1     2   513   512  7.399485199E+00  2.670949741E+00  1.305426789E+00  7.974364729E+00  1.365713982E-07  0.00000E+00  9.000E+00
</event>
<event>
      5  10001  3.52971E+09  1.65460E+01 -1.00000E+00  1.73458E-01
      21    -1     0     0   515   513  0.000000000E+00  0.000000000E+00  6.057598790E+00  6.057598790E+00  0.000000000E+00  0.00000E+00  9.000E+00
      21    -1     0     0   512   515  0.000000000E+00  0.000000000E+00 -1.902692513E+02  1.902692513E+02  0.000000000E+00  0.00000E+00  9.000E+00
      21     1     1     2   516   513  2.324961621E+01 -9.638503365E+00 -4.891660426E+01  5.501163126E+01  1.168007728E-06  0.00000E+00  9.000E+00
      21     1     1     2   512   511 -2.545938217E+01  1.709221383E+01 -1.230286529E+02  1.267926392E+02  1.348699152E-06  0.00000E+00  9.000E+00
      21     1     1     2   511   516  2.209765957E+00 -7.453710465E+00 -1.226639539E+01  1.452257970E+01  2.384185791E-07  0.00000E+00  9.000E+00
</event>
<event>
      5  10001  3.52971E+09  3.39062E+00 -1.00000E+00  2.81607E-01
      21    -1     0     0   514   513  0.000000000E+00  0.000000000E+00  6.450860412E+01  6.450860412E+01  0.000000000E+00  0.00000E+00  9.000E+00
      21    -1     0     0   517   514  0.000000000E+00  0.000000000E+00 -2.174473959E+02  2.174473959E+02  0.000000000E+00  0.00000E+00  9.000E+00
      21     1     1     2   517   516  9.553160216E+00 -4.230544501E+00 -2.085818735E+02  2.088433823E+02  3.814697266E-06  0.00000E+00  9.000E+00
      21     1     1     2   516   512 -1.290613108E+01  4.734408192E+00 -3.246712467E+00  1.412529583E+01  1.192092896E-07  0.00000E+00  9.000E+00
      21     1     1     2   512   513  3.352970863E+00 -5.038636907E-01  5.888979415E+01  5.898732192E+01  1.168007728E-06  0.00000E+00  9.000E+00
</event>
<event>
      5  10001  3.52971E+09  6.75586E+00 -1.00000E+00  2.17750E-01
      21    -1     0     0   511   516  0.000000000E+00  0.000000000E+00  3.148336343E+01  3.148336343E+01  0.000000000E+00  0.00000E+00  9.000E+00
      21    -1     0     0   513   511  0.000000000E+00  0.000000000E+00 -5.585684297E+01  5.585684297E+01  0.000000000E+00  0.00000E+00  9.000E+00
      21     1     1     2   513   515 -7.172148284E-01 -1.334770012E+01 -5.135707608E+01  5.306811433E+01  6.743495762E-07  0.00000E+00  9.000E+00
      21     1     1     2   515   514  1.509097736E+00  7.269323910E+00  2.714322140E+01  2.814027211E+01  5.840038640E-07  0.00000E+00  9.000E+00
      21     1     1     2   514   516 -7.918829081E-01  6.078376214E+00 -1.596248568E-01  6.131819961E+00  1.708564504E-07  0.00000E+00  9.000E+00
</event>
<event>
      5  10001  3.52971E+09  4.63888E+00 -1.00000E+00  2.49167E-01
      21    -1     0     0   513   511  0.000000000E+00  0.000000000E+00  5.219784555E+00  5.219784555E+00  0.000000000E+00  0.00000E+00  9.000E+00
      -4    -1     0     0     0   512  0.000000000E+00  0.000000000E+00 -1.065797288E+02  1.065797288E+02  0.000000000E+00  0.00000E+00  9.000E+00
      -4     1     1     2     0   514  1.220409199E+01 -2.293503213E+00 -9.287782860E+01  9.371627961E+01  1.500000000E+00  0.00000E+00  9.000E+00
      21     1     1     2   513   512 -1.104999838E+01 -2.194452998E+00 -5.221051185E+00  1.241682180E+01  3.526258339E-07  0.00000E+00  9.000E+00
      21     1     1     2   514   511 -1.154093613E+00  4.487956211E+00 -3.261064478E+00  5.666411964E+00  5.960464478E-08  0.00000E+00  9.000E+00
</event>
<event>
      5  10001  3.52971E+09  5.43706E+00 -1.00000E+00  2.32322E-01
      21    -1     0     0   515   516  0.000000000E+00  0.000000000E+00  6.422879631E+01  6.422879631E+01  0.000000000E+00  0.00000E+00  9.000E+00
      21    -1     0     0   514   511  0.000000000E+00  0.000000000E+00 -3.091357632E+00  3.091357632E+00  0.000000000E+00  0.00000E+00  9.000E+00
      21     1     1     2   515   511  7.049621719E+00 -8.095505316E+00  9.317042970E+00  1.421413601E+01  2.384185791E-07  0.00000E+00  9.000E+00
      21     1     1     2   512   516 -4.394773069E+00  3.194243749E+00  1.713807061E+01  1.797861752E+01  2.384185791E-07  0.00000E+00  9.000E+00
      21     1     1     2   514   512 -2.654848650E+00  4.901261567E+00  3.468232509E+01  3.512740042E+01  6.743495762E-07  0.00000E+00  9.000E+00
</event>
<event>
      5  10001  3.52971E+09  9.09462E+00 -1.00000E+00  2.00641E-01
      21    -1     0     0   513   516  0.000000000E+00  0.000000000E+00  3.157797508E+00  3.157797508E+00  0.000000000E+00  0.00000E+00  9.000E+00
      21    -1     0     0   514   513  0.000000000E+00  0.000000000E+00 -9.433114875E+01  9.433114875E+01  0.000000000E+00  0.00000E+00  9.000E+00
      21     1     1     2   512   516  3.313691852E+00  8.424934321E+00 -6.329568944E+00  1.104642544E+01  1.685873940E-07  0.00000E+00  9.000E+00
      21     1     1     2   511   512  1.681797464E+00 -5.393139301E+00 -7.317107898E+01  7.338883562E+01  1.348699152E-06  0.00000E+00  9.000E+00
      21     1     1     2   514   511 -4.995489315E+00 -3.031795020E+00 -1.167270332E+01  1.305368520E+01  3.371747881E-07  0.00000E+00  9.000E+00
</event>
<event>
      5  10001  3.52971E+09  1.06396E+01 -1.00000E+00  1.92691E-01
      21    -1     0     0   515   512  0.000000000E+00  0.000000000E+00  3.717885408E+01  3.717885408E+01  0.000000000E+00  0.00000E+00  9.000E+00
      21    -1     0     0   514   515  0.000000000E+00  0.000000000E+00 -1.875967687E+01  1.875967687E+01  0.000000000E+00  0.00000E+00  9.000E+00
      21     1     1     2   511   512  9.491642365E+00  4.677102703E+00  2.891255649E+01  3.078802507E+01  3.371747881E-07  0.00000E+00  9.000E+00
      21     1     1     2   514   513 -1.417873676E+01 -1.803930129E-01 -1.189182838E+01  1.850634216E+01  3.769728732E-07  0.00000E+00  9.000E+00
      21     1     1     2   513   511  4.687094391E+00 -4.496709690E+00  1.398449101E+00  6.644163736E+00  1.576990671E-07  0.00000E+00  9.000E+00
</event>
<event>
      5  10001  3.52971E+09  5.23290E+00 -1.00000E+00  2.35106E-01
      21    -1     0     0   516   514  0.000000000E+00  0.000000000E+00  6.697578330E+00  6.697578330E+00  0.000000000E+00  0.00000E+00  9.000E+00
      21    -1     0     0   515   511  0.000000000E+00  0.000000000E+00 -7.967927948E+02  7.967927948E+02  0.000000000E+00  0.00000E+00  9.000E+00
      21     1     1     2   516   511 -7.725706119E+00  1.241206159E+01 -1.523152685E+00  1.469917692E+01  8.309986290E-07  0.00000E+00  9.000E+00
      21     1     1     2   512   514  2.497759099E+00 -1.263965573E+01 -4.716976496E+02  4.718735767E+02  5.394796609E-06  0.00000E+00  9.000E+00
      21     1     1     2   515   512  5.227947020E+00  2.275941417E-01 -3.168744142E+02  3.169176195E+02  6.607249480E-06  0.00000E+00  9.000E+00
</event>
<event>
      5  10001  3.52971E+09  8.60556E+00 -1.00000E+00  2.03607E-01
      21    -1     0     0   513   511  0.000000000E+00  0.000000000E+00  8.532519864E+00  8.532519864E+00  0.000000000E+00  0.00000E+00  9.000E+00
      21    -1     0     0   515   517  0.000000000E+00  0.000000000E+00 -9.361274337E+01  9.361274337E+01  0.000000000E+00  0.00000E+00  9.000E+00
      21     1     1     2   513   517 -1.617090203E+01 -1.526985879E+00 -7.720489128E+01  7.889502516E+01  9.536743164E-07  0.00000E+00  9.000E+00
      21     1     1     2   515   514  8.872462712E+00  4.025119876E+00  2.746701834E+00  1.012257653E+01  8.429369702E-08  0.00000E+00  9.000E+00
      21     1     1     2   514   511  7.298439319E+00 -2.498133997E+00 -1.062203406E+01  1.312766154E+01  1.192092896E-07  0.00000E+00  9.000E+00
</event>
<event>
      5  10001  3.52971E+09  1.28206E+01 -1.00000E+00  1.84053E-01
       1    -1     0     0   513     0  0.000000000E+00  0.000000000E+00  2.523056640E+01  2.523056640E+01  0.000000000E+00  0.00000E+00  9.000E+00
       2    -1     0     0   512     0  0.000000000E+00  0.000000000E+00 -2.097149379E+02  2.097149379E+02  0.000000000E+00  0.00000E+00  9.000E+00
       1     1     1     2   512     0 -1.145562383E+01 -1.356389234E+01  2.066294337E+01  2.724475401E+01  3.300000131E-01  0.00000E+00  9.000E+00
       2     1     1     2   515     0  8.315610692E+00  2.178481527E+00 -1.765651233E+02  1.767745650E+02  3.300000131E-01  0.00000E+00  9.000E+00
      21     1     1     2   513   515  3.140013135E+00  1.138541081E+01 -2.858219157E+01  3.092618529E+01  3.371747881E-07  0.00000E+00  9.000E+00
</event>
<event>
      5  10001  3.52971E+09  6.63947E+00 -1.00000E+00  2.18845E-01
      21    -1     0     0   511   512  0.000000000E+00  0.000000000E+00  3.547159047E+01  3.547159047E+01  0.000000000E+00  0.00000E+00  9.000E+00
      21    -1     0     0   514   516  0.000000000E+00  0.000000000E+00 -1.028732087E+02  1.028732087E+02  0.000000000E+00  0.00000E+00  9.000E+00
      21     1     1     2   515   512 -1.003454549E+01  5.602101106E+00  3.319548139E+01  3.512855853E+01  4.768371582E-07  0.00000E+00  9.000E+00
      21     1     1     2   514   515  1.610966277E+01 -2.923376475E+00 -7.558110381E+01  7.733414910E+01  0.000000000E+00  0.00000E+00  9.000E+00
      21     1     1     2   511   516 -6.075117286E+00 -2.678724631E+00 -2.501599583E+01  2.588209155E+01  3.371747881E-07  0.00000E+00  9.000E+00
</event>
<event>
      5  10001  3.52971E+09  1.92953E+01 -1.00000E+00  1.67661E-01
      21    -1     0     0   513   515  0.000000000E+00  0.000000000E+00  2.553695442E+01  2.553695442E+01  0.000000000E+00  0.00000E+00  9.000E+00
      21    -1     0     0   517   513  0.000000000E+00  0.000000000E+00 -2.706503266E+01  2.706503266E+01  0.000000000E+00  0.00000E+00  9.000E+00
      21     1     1     2   514   515  2.556204521E+00  1.198385895E+01  1.371272138E+01  1.838982829E+01  2.384185791E-07  0.00000E+00  9.000E+00
      21     1     1     2   517   512 -4.274346882E+00 -4.658172000E+00 -2.273181637E+01  2.359457741E+01  0.000000000E+00  0.00000E+00  9.000E+00
      21     1     1     2   512   514  1.718142362E+00 -7.325686954E+00  7.491016744E+00  1.061758138E+01  1.685873940E-07  0.00000E+00  9.000E+00
</event>
<event>
      5  10001  3.52971E+09  5.34048E+00 -1.00000E+00  2.33617E-01
      -3    -1     0     0     0   513  0.000000000E+00  0.000000000E+00  1.917750826E+02  1.917750826E+02  0.000000000E+00  0.00000E+00  9.000E+00
      -1    -1     0     0     0   512  0.000000000E+00  0.000000000E+00 -1.760293423E+00  1.760293423E+00  0.000000000E+00  0.00000E+00  9.000E+00
      -3     1     1     2     0   512  1.161177457E+01 -8.053457155E+00  1.204919776E+02  1.213188285E+02  5.000000000E-01  0.00000E+00  9.000E+00
      -1     1     1     2     0   511 -7.826335389E+00  4.288748307E+00  1.517989273E+01  1.761201098E+01  3.300000131E-01  0.00000E+00  9.000E+00
      21     1     1     2   511   513 -3.785439181E+00  3.764708848E+00  5.434291880E+01  5.460453650E+01  6.743495762E-07  0.00000E+00  9.000E+00
</event>
<event>
      5  10001  3.52971E+09  5.25885E+00 -1.00000E+00  2.34742E-01
      21    -1     0     0   512   513  0.000000000E+00  0.000000000E+00  3.430280143E+00  3.430280143E+00  0.000000000E+00  0.00000E+00  9.000E+00
      21    -1     0     0   513   514  0.000000000E+00  0.000000000E+00 -7.265787079E+02  7.265787079E+02  0.000000000E+00  0.00000E+00  9.000E+00
      -5     1     1     2     0   511  1.069125280E+01  7.900898804E+00 -4.778338630E+01  4.982990163E+01  4.800000191E+00  0.00000E+00  9.000E+00
      21     1     1     2   511   514 -1.054334866E+01 -2.695538273E+00 -6.724214595E+02  6.725095147E+02  7.629394531E-06  0.00000E+00  9.000E+00
       5     1     1     2   512     0 -1.479041397E-01 -5.205360530E+00 -2.943581929E+00  7.669571715E+00  4.800000191E+00  0.00000E+00  9.000E+00
</event>
<event>
      5  10001  3.52971E+09  2.28542E+01 -1.00000E+00  1.61723E-01
      21    -1     0     0   515   511  0.000000000E+00  0.000000000E+00  6.960121656E+00  6.960121656E+00  0.000000000E+00  0.00000E+00  9.000E+00
      21    -1     0     0   513   516  0.000000000E+00  0.000000000E+00 -3.268038589E+02  3.268038589E+02  0.000000000E+00  0.00000E+00  9.000E+00
      21     1     1     2   515   516  1.668838148E+00 -1.019620303E+01 -3.146405745E+02  3.148101630E+02  3.814697266E-06  0.00000E+00  9.000E+00
      21     1     1     2   514   511  1.969732353E-01 -3.756308928E+00  4.420025972E-01  3.787350197E+00  3.042903223E-07  0.00000E+00  9.000E+00
      21     1     1     2   513   514 -1.865811384E+00  1.395251196E+01 -5.645165358E+00  1.516646742E+01  4.256623047E-07  0.00000E+00  9.000E+00
</event>
<event>
      5  10001  3.52971E+09  1.48353E+00 -1.00000E+00  4.48446E-01
      21    -1     0     0   512   511  0.000000000E+00  0.000000000E+00  3.477774550E+00  3.477774550E+00  0.000000000E+00  0.00000E+00  9.000E+00
      21    -1     0     0   513   515  0.000000000E+00  0.000000000E+00 -7.076128453E+01  7.076128453E+01  0.000000000E+00  0.00000E+00  9.000E+00
      21     1     1     2   513   511  8.444101314E+00  8.455874415E+00 -1.322135460E+01  1.782158457E+01  4.460403188E-07  0.00000E+00  9.000E+00
       3     1     1     2   512     0 -7.214774335E+00 -7.627948933E+00 -2.269157733E+01  2.500792385E+01  5.000000000E-01  0.00000E+00  9.000E+00
      -3     1     1     2     0   515 -1.229326980E+00 -8.279254829E-01 -3.137057805E+01  3.140955066E+01  5.000000000E-01  0.00000E+00  9.000E+00
</event>
<event>
      5  10001  3.52971E+09  5.82621E+00 -1.00000E+00  2.27466E-01
      21    -1     0     0   512   511  0.000000000E+00  0.000000000E+00  3.380173645E+02  3.380173645E+02  0.000000000E+00  0.00000E+00  9.000E+00
      21    -1     0     0   516   514  0.000000000E+00  0.000000000E+00 -5.275922920E+01  5.275922920E+01  0.000000000E+00  0.00000E+00  9.000E+00
      21     1     1     2   516   513  1.102409852E+01  2.640345363E+00 -4.896915528E+01  5.026410589E+01  0.000000000E+00  0.00000E+00  9.000E+00
      21     1     1     2   513   511 -9.440281192E+00 -8.247148711E+00  9.488694904E+00  1.572163165E+01  5.331201500E-07  0.00000E+00  9.000E+00
      21     1     1     2   512   514 -1.583817325E+00  5.606803348E+00  3.247385957E+02  3.247908562E+02  0.000000000E+00  0.00000E+00  9.000E+00
</event>
<event>
      5  10001  3.52971E+09  3.72954E+00 -1.00000E+00  2.70837E-01
      21    -1     0     0   515   511  0.000000000E+00  0.000000000E+00  3.347559217E-01  3.347559217E-01  0.000000000E+00  0.00000E+00  9.000E+00
       2    -1     0     0   512     0  0.000000000E+00  0.000000000E+00 -8.693828035E+02  8.693828035E+02  0.000000000E+00  0.00000E+00  9.000E+00
      21     1     1     2   513   511  4.705448738E+00  8.007843221E+00 -9.327240089E+01  9.373370562E+01  1.348699152E-06  0.00000E+00  9.000E+00
       2     1     1     2   515     0 -7.148892463E+00 -6.858568457E+00 -7.503054355E+02  7.503709097E+02  3.300000131E-01  0.00000E+00  9.000E+00
      21     1     1     2   512   513  2.443443725E+00 -1.149274765E+00 -2.547021114E+01  2.561294410E+01  0.000000000E+00  0.00000E+00  9.000E+00
</event>
<event>
      5  10001  3.52971E+09  1.26306E+01 -1.00000E+00  1.84715E-01
      21    -1     0     0   514   511  0.000000000E+00  0.000000000E+00  1.742508830E+03  1.742508830E+03  0.000000000E+00  0.00000E+00  9.000E+00
      21    -1     0     0   512   514  0.000000000E+00  0.000000000E+00 -6.778338645E+00  6.778338645E+00  0.000000000E+00  0.00000E+00  9.000E+00
      21     1     1     2   512   513  7.044621341E+00  7.055050544E+00 -2.899255425E+00  1.038297212E+01  1.075364265E-06  0.00000E+00  9.000E+00
      21     1     1     2   513   515 -1.416410695E+01  2.770644040E-01  1.486370556E+03  1.486438068E+03  3.051757813E-05  0.00000E+00  9.000E+00
      21     1     1     2   515   511  7.119485608E+00 -7.332114948E+00  2.522591903E+02  2.524661286E+02  2.697398305E-06  0.00000E+00  9.000E+00
</event>
<event>
      5  10001  3.52971E+09  9.52693E+00 -1.00000E+00  1.98217E-01
      21    -1     0     0   516   513  0.000000000E+00  0.000000000E+00  3.650286518E+02  3.650286518E+02  0.000000000E+00  0.00000E+00  9.000E+00
      21    -1     0     0   512   511  0.000000000E+00  0.000000000E+00 -1.570812756E+01  1.570812756E+01  0.000000000E+00  0.00000E+00  9.000E+00
      21     1     1     2   516   511 -6.314345841E+00  1.413145968E+01  3.497594067E+02  3.501017162E+02  6.607249480E-06  0.00000E+00  9.000E+00
       5     1     1     2   512     0  7.286814504E+00 -5.171784113E+00 -1.166607376E+01  1.545905221E+01  4.800000191E+00  0.00000E+00  9.000E+00
      -5     1     1     2     0   513 -9.724686627E-01 -8.959675569E+00  1.122719129E+01  1.517601093E+01  4.800000191E+00  0.00000E+00  9.000E+00
</event>
<event>
      5  10001  3.52971E+09  1.46582E+01 -1.00000E+00  1.78328E-01
       2    -1     0     0   511     0  0.000000000E+00  0.000000000E+00  6.316807753E+01  6.316807753E+01  0.000000000E+00  0.00000E+00  9.000E+00
      21    -1     0     0   515   511  0.000000000E+00  0.000000000E+00 -1.472819465E+02  1.472819465E+02  0.000000000E+00  0.00000E+00  9.000E+00
      21     1     1     2   515   512  1.032137961E+01  2.099442879E+01 -1.153839311E+02  1.177316800E+02  1.348699152E-06  0.00000E+00  9.000E+00
       2     1     1     2   514     0 -1.009454465E+01 -1.216834305E+01  6.031889903E+01  6.235741243E+01  3.300000131E-01  0.00000E+00  9.000E+00
      21     1     1     2   512   514 -2.268349509E-01 -8.826085739E+00 -2.904883688E+01  3.036093160E+01  3.371747881E-07  0.00000E+00  9.000E+00
</event>
<event>
      5  10001  3.52971E+09  8.92222E+00 -1.00000E+00  2.01657E-01
      21    -1     0     0   513   514  0.000000000E+00  0.000000000E+00  5.820439747E+00  5.820439747E+00  0.000000000E+00  0.00000E+00  9.000E+00
      21    -1     0     0   512   516  0.000000000E+00  0.000000000E+00 -1.868625861E+01  1.868625861E+01  0.000000000E+00  0.00000E+00  9.000E+00
      21     1     1     2   513   516 -6.080777908E+00 -2.855079360E+00 -6.545783519E+00  9.379478663E+00  1.460009660E-07  0.00000E+00  9.000E+00
      21     1     1     2   512   511  8.865888937E+00  5.302677242E-02 -6.763998939E+00  1.115161334E+01  8.429369702E-08  0.00000E+00  9.000E+00
      21     1     1     2   511   514 -2.785111029E+00  2.802052587E+00  4.439636001E-01  3.975606347E+00  5.241948098E-08  0.00000E+00  9.000E+00
</event>
<event>
      5  10001  3.52971E+09  8.97667E+00 -1.00000E+00  2.01333E-01
      21    -1     0     0   515   512  0.000000000E+00  0.000000000E+00  3.062024289E+00  3.062024289E+00  0.000000000E+00  0.00000E+00  9.000E+00
      21    -1     0     0   517   514  0.000000000E+00  0.000000000E+00 -6.511398049E+02  6.511398049E+02  0.000000000E+00  0.00000E+00  9.000E+00
      21     1     1     2   515   514 -4.049366873E+00 -9.426522640E+00 -6.339373303E+02  6.340203431E+02  7.629394531E-06  0.00000E+00  9.000E+00
      21     1     1     2   517   513 -2.629707814E+00  6.311827344E+00 -5.171505280E+00  8.573155456E+00  5.196212463E-07  0.00000E+00  9.000E+00
      21     1     1     2   513   512  6.679074686E+00  3.114695296E+00 -8.968945037E+00  1.160833065E+01  1.685873940E-07  0.00000E+00  9.000E+00
</event>
<event>
      5  10001  3.52971E+09  1.14372E+01 -1.00000E+00  1.89244E-01
       1    -1     0     0   511     0  0.000000000E+00  0.000000000E+00  5.171475187E+01  5.171475187E+01  0.000000000E+00  0.00000E+00  9.000E+00
      21    -1     0     0   514   511  0.000000000E+00  0.000000000E+00 -8.352009551E+01  8.352009551E+01  0.000000000E+00  0.00000E+00  9.000E+00
      -4     1     1     2     0   512 -1.204058886E+01  5.338400623E+00 -1.443930011E+01  1.960147160E+01  1.500000000E+00  0.00000E+00  9.000E+00
       1     1     1     2   512     0  1.274102870E+01  6.069503554E+00  4.760173797E+01  4.965085138E+01  3.300000131E-01  0.00000E+00  9.000E+00
       4     1     1     2   514     0 -7.004398430E-01 -1.140790418E+01 -6.496778149E+01  6.598252439E+01  1.500000000E+00  0.00000E+00  9.000E+00
</event>
<event>
      5  10001  3.52971E+09  8.34903E+00 -1.00000E+00  2.05270E-01
      21    -1     0     0   513   512  0.000000000E+00  0.000000000E+00  4.556046840E+01  4.556046840E+01  0.000000000E+00  0.00000E+00  9.000E+00
      21    -1     0     0   514   511  0.000000000E+00  0.000000000E+00 -6.730421799E+01  6.730421799E+01  0.000000000E+00  0.00000E+00  9.000E+00
      21     1     1     2   513   515  1.001076603E+01 -6.214474708E+00  3.056772741E+01  3.276005329E+01  3.371747881E-07  0.00000E+00  9.000E+00
      21     1     1     2   514   512 -1.586400690E+01  2.608247370E-01  8.990760440E+00  1.823646121E+01  3.153981341E-07  0.00000E+00  9.000E+00
      21     1     1     2   515   511  5.853240869E+00  5.953649971E+00 -6.130223744E+01  6.186817188E+01  6.743495762E-07  0.00000E+00  9.000E+00
</event>
<event>
      5  10001  3.52971E+09  5.15984E+00 -1.00000E+00  2.36146E-01
      21    -1     0     0   513   512  0.000000000E+00  0.000000000E+00  2.888604321E+02  2.888604321E+02  0.000000000E+00  0.00000E+00  9.000E+00
      21    -1     0     0   517   516  0.000000000E+00  0.000000000E+00 -4.586999128E+00  4.586999128E+00  0.000000000E+00  0.00000E+00  9.000E+00
      21     1     1     2   511   512  9.934520035E+00  3.113069433E+00  8.312070631E+01  8.377014807E+01  1.348699152E-06  0.00000E+00  9.000E+00
      21     1     1     2   517   511 -1.371525692E+01 -6.624470254E+00  9.491471418E+00  1.794658487E+01  5.196212463E-07  0.00000E+00  9.000E+00
      21     1     1     2   513   516  3.780736889E+00  3.511400821E+00  1.916612553E+02  1.917306983E+02  2.697398305E-06  0.00000E+00  9.000E+00
</event>
<event>
      5  10001  3.52971E+09  1.13148E+01 -1.00000E+00  1.89749E-01
      21    -1     0     0   514   515  0.000000000E+00  0.000000000E+00  1.281694635E+02  1.281694635E+02  0.000000000E+00  0.00000E+00  9.000E+00
       2    -1     0     0   512     0  0.000000000E+00  0.000000000E+00 -2.857438502E+01  2.857438502E+01  0.000000000E+00  0.00000E+00  9.000E+00
      21     1     1     2   512   515 -1.821059809E-01 -1.208259481E+01  1.199328735E+02  1.205401029E+02  0.000000000E+00  0.00000E+00  9.000E+00
       2     1     1     2   511     0 -3.606242935E+00  3.874388289E+00 -2.532826523E+01  2.587751519E+01  3.300000131E-01  0.00000E+00  9.000E+00
      21     1     1     2   514   511  3.788348915E+00  8.208206524E+00  4.990470179E+00  1.032623041E+01  1.192092896E-07  0.00000E+00  9.000E+00
</event>
<event>
      5  10001  3.52971E+09  6.96960E+00 -1.00000E+00  2.15815E-01
      21    -1     0     0   513   511  0.000000000E+00  0.000000000E+00  1.671475105E+01  1.671475105E+01  0.000000000E+00  0.00000E+00  9.000E+00
      21    -1     0     0   515   516  0.000000000E+00  0.000000000E+00 -1.082806708E+02  1.082806708E+02  0.000000000E+00  0.00000E+00  9.000E+00
      21     1     1     2   513   516  2.047751580E+01  7.501134779E+00  4.674334587E-01  2.181316507E+01  7.179089661E-07  0.00000E+00  9.000E+00
      21     1     1     2   512   511 -1.683400701E+01 -1.559737528E+00 -7.726906966E+00  1.858821305E+01  6.419616708E-07  0.00000E+00  9.000E+00
      21     1     1     2   515   512 -3.643508786E+00 -5.941397251E+00 -8.430644619E+01  8.459404369E+01  9.536743164E-07  0.00000E+00  9.000E+00
</event>
<event>
      5  10001  3.52971E+09  3.30684E+00 -1.00000E+00  2.84588E-01
      -1    -1     0     0     0   514  0.000000000E+00  0.000000000E+00  3.078376484E+01  3.078376484E+01  0.000000000E+00  0.00000E+00  9.000E+00
      21    -1     0     0   511   512  0.000000000E+00  0.000000000E+00 -3.661436476E+00  3.661436476E+00  0.000000000E+00  0.00000E+00  9.000E+00
      -1     1     1     2     0   512  1.020164968E+01 -6.042969888E-01  1.353911602E+01  1.696630170E+01  3.300000131E-01  0.00000E+00  9.000E+00
      21     1     1     2   513   514 -6.335763617E+00  9.083368778E-01  1.127792108E+01  1.296759347E+01  2.665600750E-07  0.00000E+00  9.000E+00
      21     1     1     2   511   513 -3.865886061E+00 -3.040398890E-01  2.305291266E+00  4.511306142E+00  5.161913656E-08  0.00000E+00  9.000E+00
</event>
<event>
      5  10001  3.52971E+09  9.08319E+00 -1.00000E+00  2.00707E-01
      21    -1     0     0   513   511  0.000000000E+00  0.000000000E+00  5.906030568E+02  5.906030568E+02  0.000000000E+00  0.00000E+00  9.000E+00
      21    -1     0     0   515   513  0.000000000E+00  0.000000000E+00 -1.811814253E+00  1.811814253E+00  0.000000000E+00  0.00000E+00  9.000E+00
      21     1     1     2   512   511  1.006439895E+01 -1.594747305E+00  3.694344356E+02  3.695749417E+02  5.394796609E-06  0.00000E+00  9.000E+00
       3     1     1     2   515     0 -1.558426602E+01  1.038741599E+01  5.401961565E+01  5.717636429E+01  5.000000000E-01  0.00000E+00  9.000E+00
      -3     1     1     2     0   512  5.519867070E+00 -8.792668683E+00  1.653371913E+02  1.656635650E+02  5.000000000E-01  0.00000E+00  9.000E+00
</event>
<event>
      5  10001  3.52971E+09  7.90651E+00 -1.00000E+00  2.08335E-01
      21    -1     0     0   513   515  0.000000000E+00  0.000000000E+00  8.071395932E+00  8.071395932E+00  0.000000000E+00  0.00000E+00  9.000E+00
       3    -1     0     0   511     0  0.000000000E+00  0.000000000E+00 -2.385525129E+02  2.385525129E+02  0.000000000E+00  0.00000E+00  9.000E+00
      21     1     1     2   511   515  1.481675230E+01 -4.027928573E+00 -6.094632186E+01  6.285073194E+01  6.743495762E-07  0.00000E+00  9.000E+00
       3     1     1     2   514     0 -1.016296474E+01 -2.363450110E+00 -1.742532257E+02  1.745660575E+02  5.000000000E-01  0.00000E+00  9.000E+00
      21     1     1     2   513   514 -4.653787562E+00  6.391378683E+00  4.718430625E+00  9.207119403E+00  2.598106231E-07  0.00000E+00  9.000E+00
</event>
<event>
      5  10001  3.52971E+09  6.43264E+00 -1.00000E+00  2.20870E-01
      -2    -1     0     0     0   512  0.000000000E+00  0.000000000E+00  3.828992141E+01  3.828992141E+01  0.000000000E+00  0.00000E+00  9.000E+00
      21    -1     0     0   512   513  0.000000000E+00  0.000000000E+00 -3.456073869E+00  3.456073869E+00  0.000000000E+00  0.00000E+00  9.000E+00
      -2     1     1     2     0   515 -4.040371577E+00  2.027207423E+00  1.383888509E+01  1.456220495E+01  3.300000131E-01  0.00000E+00  9.000E+00
      21     1     1     2   511   513  1.034683530E+01 -2.897772329E+00  1.490071996E+01  1.837077952E+01  0.000000000E+00  0.00000E+00  9.000E+00
      21     1     1     2   515   511 -6.306463718E+00  8.705649058E-01  6.094242494E+00  8.813010805E+00  1.884864366E-07  0.00000E+00  9.000E+00
</event>
<event>
      5  10001  3.52971E+09  8.76397E+00 -1.00000E+00  2.02618E-01
      21    -1     0     0   514   511  0.000000000E+00  0.000000000E+00  4.881604572E+01  4.881604572E+01  0.000000000E+00  0.00000E+00  9.000E+00
       2    -1     0     0   512     0  0.000000000E+00  0.000000000E+00 -2.485834447E+01  2.485834447E+01  0.000000000E+00  0.00000E+00  9.000E+00
      21     1     1     2   513   511 -1.261858970E+01 -4.089197729E+00  2.547517494E+01  2.872167965E+01  0.000000000E+00  0.00000E+00  9.000E+00
       2     1     1     2   514     0  1.382612487E+01  2.289788701E+00 -2.105531464E+01  2.529505952E+01  3.300000131E-01  0.00000E+00  9.000E+00
      21     1     1     2   512   513 -1.207535173E+00  1.799409028E+00  1.953784096E+01  1.965765101E+01  2.384185791E-07  0.00000E+00  9.000E+00
</event>
<event>
      5  10001  3.52971E+09  7.23179E+00 -1.00000E+00  2.13568E-01
      21    -1     0     0   515   511  0.000000000E+00  0.000000000E+00  1.160981292E+02  1.160981292E+02  0.000000000E+00  0.00000E+00  9.000E+00
      21    -1     0     0   512   515  0.000000000E+00  0.000000000E+00 -3.089830621E+01  3.089830621E+01  0.000000000E+00  0.00000E+00  9.000E+00
      21     1     1     2   512   513 -6.960669378E+00 -7.440213602E+00 -2.962920101E+01  3.133204828E+01  8.259061849E-07  0.00000E+00  9.000E+00
      21     1     1     2   514   511  9.387358626E-01  7.649904227E+00  7.252736880E+01  7.293573530E+01  9.536743164E-07  0.00000E+00  9.000E+00
      21     1     1     2   513   514  6.021933516E+00 -2.096906244E-01  4.230165523E+01  4.272865184E+01  8.259061849E-07  0.00000E+00  9.000E+00
</event>
<event>
      5  10001  3.52971E+09  9.23272E+00 -1.00000E+00  1.99847E-01
      21    -1     0     0   514   512  0.000000000E+00  0.000000000E+00  5.557677688E+01  5.557677688E+01  0.000000000E+00  0.00000E+00  9.000E+00
      21    -1     0     0   516   514  0.000000000E+00  0.000000000E+00 -1.740081704E+01  1.740081704E+01  0.000000000E+00  0.00000E+00  9.000E+00
      -4     1     1     2     0   511  7.905438296E+00 -1.318148496E+01  1.903560266E+01  2.451227588E+01  1.500000000E+00  0.00000E+00  9.000E+00
       4     1     1     2   516     0 -1.365802209E+01  5.980321801E+00 -9.924803969E+00  1.797380177E+01  1.500000000E+00  0.00000E+00  9.000E+00
      21     1     1     2   511   512  5.752583799E+00  7.201163156E+00  2.906516115E+01  3.049151626E+01  0.000000000E+00  0.00000E+00  9.000E+00
</event>
<event>
      5  10001  3.52971E+09  1.71351E+01 -1.00000E+00  1.72103E-01
      21    -1     0     0   515   512  0.000000000E+00  0.000000000E+00  9.132831438E+01  9.132831438E+01  0.000000000E+00  0.00000E+00  9.000E+00
      -4    -1     0     0     0   513  0.000000000E+00  0.000000000E+00 -6.224951313E+02  6.224951313E+02  0.000000000E+00  0.00000E+00  9.000E+00
      21     1     1     2   514   512 -6.095557580E+00  2.552450128E+00 -4.911562262E+02  4.912006814E+02  5.394796609E-06  0.00000E+00  9.000E+00
      21     1     1     2   515   513 -1.913083974E+00  1.069652050E+01  9.051943271E+01  9.116931029E+01  1.348699152E-06  0.00000E+00  9.000E+00
      -4     1     1     2     0   514  8.008641554E+00 -1.324897063E+01 -1.305300234E+02  1.314534540E+02  1.500000000E+00  0.00000E+00  9.000E+00
</event>
<event>
      5  10001  3.52971E+09  8.09283E+00 -1.00000E+00  2.07012E-01
      21    -1     0     0   511   513  0.000000000E+00  0.000000000E+00  1.484082977E+02  1.484082977E+02  0.000000000E+00  0.00000E+00  9.000E+00
      21    -1     0     0   516   511  0.000000000E+00  0.000000000E+00 -3.102374295E+00  3.102374295E+00  0.000000000E+00  0.00000E+00  9.000E+00
      21     1     1     2   517   513 -1.546878810E+01  3.524714870E+00  1.051179029E+02  1.063084217E+02  1.348699152E-06  0.00000E+00  9.000E+00
      21     1     1     2   512   517  1.421292196E+01 -7.314228896E+00  3.613841174E+01  3.951569180E+01  8.259061849E-07  0.00000E+00  9.000E+00
      21     1     1     2   516   512  1.255866134E+00  3.789514026E+00  4.049608828E+00  5.686558534E+00  1.332800375E-07  0.00000E+00  9.000E+00
</event>
<event>
      5  10001  3.52971E+09  1.12854E+01 -1.00000E+00  1.89872E-01
      -2    -1     0     0     0   514  0.000000000E+00  0.000000000E+00  3.589692244E+01  3.589692244E+01  0.000000000E+00  0.00000E+00  9.000E+00
      21    -1     0     0   515   511  0.000000000E+00  0.000000000E+00 -3.555214574E+00  3.555214574E+00  0.000000000E+00  0.00000E+00  9.000E+00
      21     1     1     2   513   511  3.796969440E+00 -6.299815361E+00  7.497809101E+00  1.050341810E+01  0.000000000E+00  0.00000E+00  9.000E+00
      21     1     1     2   515   514 -8.041172097E+00  1.342127100E+00  1.157171209E+01  1.415507946E+01  1.685873940E-07  0.00000E+00  9.000E+00
      -2     1     1     2     0   513  4.244202657E+00  4.957688260E+00  1.327218667E+01  1.479363945E+01  3.300000131E-01  0.00000E+00  9.000E+00
</event>
<event>
      5  10001  3.52971E+09  3.51100E+00 -1.00000E+00  2.77560E-01
      21    -1     0     0   512   513  0.000000000E+00  0.000000000E+00  2.547939776E+01  2.547939776E+01  0.000000000E+00  0.00000E+00  9.000E+00
      21    -1     0     0   516   512  0.000000000E+00  0.000000000E+00 -8.122761014E+00  8.122761014E+00  0.000000000E+00  0.00000E+00  9.000E+00
      21     1     1     2   515   513 -4.074446533E-01  1.335034115E+01  1.461674912E+01  1.980017614E+01  1.685873940E-07  0.00000E+00  9.000E+00
      -3     1     1     2     0   515 -5.067842782E-01 -2.719644524E+00  9.747764465E-01  2.975480761E+00  5.000000000E-01  0.00000E+00  9.000E+00
       3     1     1     2   516     0  9.142289315E-01 -1.063069663E+01  1.765111175E+00  1.082650188E+01  5.000000000E-01  0.00000E+00  9.000E+00
</event>
<event>
      5  10001  3.52971E+09  7.08671E+00 -1.00000E+00  2.14795E-01
      21    -1     0     0   511   515  0.000000000E+00  0.000000000E+00  1.891024913E+01  1.891024913E+01  0.000000000E+00  0.00000E+00  9.000E+00
      21    -1     0     0   514   511  0.000000000E+00  0.000000000E+00 -1.193665060E+02  1.193665060E+02  0.000000000E+00  0.00000E+00  9.000E+00
      21     1     1     2   516   515 -3.672301818E+00  1.161663980E+01  1.579455706E+01  1.994743476E+01  4.129530925E-07  0.00000E+00  9.000E+00
      21     1     1     2   512   516 -1.346679093E+00 -8.238313385E+00 -1.066833611E+02  1.070094523E+02  1.907348633E-06  0.00000E+00  9.000E+00
      21     1     1     2   514   512  5.018980911E+00 -3.378326416E+00 -9.567452825E+00  1.131986803E+01  1.192092896E-07  0.00000E+00  9.000E+00
</event>
<event>
      5  10001  3.52971E+09  8.79413E+00 -1.00000E+00  2.02433E-01
      21    -1     0     0   513   512  0.000000000E+00  0.000000000E+00  3.437875949E+02  3.437875949E+02  0.000000000E+00  0.00000E+00  9.000E+00
      21    -1     0     0   514   517  0.000000000E+00  0.000000000E+00 -6.223040564E+00  6.223040564E+00  0.000000000E+00  0.00000E+00  9.000E+00
      21     1     1     2   513   517 -7.587138158E-01 -1.196733427E+01  3.366647701E+02  3.368782572E+02  0.000000000E+00  0.00000E+00  9.000E+00
      21     1     1     2   514   511 -8.249464662E-01  5.152021794E+00  2.745834440E+00  5.896055632E+00  1.154238983E-07  0.00000E+00  9.000E+00
      21     1     1     2   511   512  1.583660282E+00  6.815312475E+00 -1.846050211E+00  7.236322643E+00  5.479090306E-07  0.00000E+00  9.000E+00
</event>
<event>
      5  10001  3.52971E+09  8.55843E+00 -1.00000E+00  2.03906E-01
      21    -1     0     0   515   514  0.000000000E+00  0.000000000E+00  1.267088309E+00  1.267088309E+00  0.000000000E+00  0.00000E+00  9.000E+00
      21    -1     0     0   516   513  0.000000000E+00  0.000000000E+00 -3.267508560E+02  3.267508560E+02  0.000000000E+00  0.00000E+00  9.000E+00
      21     1     1     2   515   512 -6.278396369E+00  5.198408645E+00 -6.006528733E+01  6.061584327E+01  1.348699152E-06  0.00000E+00  9.000E+00
      21     1     1     2   516   514  6.783849147E+00 -1.374190261E+01 -6.427944196E+01  6.608106503E+01  1.348699152E-06  0.00000E+00  9.000E+00
      21     1     1     2   512   513 -5.054527771E-01  8.543493964E+00 -2.011390384E+02  2.013210360E+02  3.814697266E-06  0.00000E+00  9.000E+00
</event>
<event>
      5  10001  3.52971E+09  3.16289E+00 -1.00000E+00  2.90060E-01
      -4    -1     0     0     0   511  0.000000000E+00  0.000000000E+00  9.887760722E+00  9.887760722E+00  0.000000000E+00  0.00000E+00  9.000E+00
       4    -1     0     0   514     0  0.000000000E+00  0.000000000E+00 -7.949204574E+01  7.949204574E+01  0.000000000E+00  0.00000E+00  9.000E+00
      -4     1     1     2     0   513  1.140007856E+01  6.682813908E-01  3.241798001E+00  1.196526830E+01  1.500000000E+00  0.00000E+00  9.000E+00
      21     1     1     2   514   511 -1.073344572E+01  2.417771609E+00 -1.130815045E+01  1.577741244E+01  3.371747881E-07  0.00000E+00  9.000E+00
       4     1     1     2   513     0 -6.666328426E-01 -3.086052999E+00 -6.153793256E+01  6.163712572E+01  1.500000000E+00  0.00000E+00  9.000E+00
</event>
<event>
      5  10001  3.52971E+09  5.87042E+00 -1.00000E+00  2.26948E-01
      21    -1     0     0   512   514  0.000000000E+00  0.000000000E+00  3.799338222E+00  3.799338222E+00  0.000000000E+00  0.00000E+00  9.000E+00
      21    -1     0     0   513   511  0.000000000E+00  0.000000000E+00 -3.969061541E+02  3.969061541E+02  0.000000000E+00  0.00000E+00  9.000E+00
      21     1     1     2   512   515 -7.187084812E+00 -1.096292254E+01 -9.691993184E+00  1.630259459E+01  5.196212463E-07  0.00000E+00  9.000E+00
      21     1     1     2   513   514  1.494768936E+00  1.239797369E+01 -8.331583927E+01  8.424650236E+01  1.907348633E-06  0.00000E+00  9.000E+00
      21     1     1     2   515   511  5.692315876E+00 -1.435051150E+00 -3.000989834E+02  3.001563954E+02  6.607249480E-06  0.00000E+00  9.000E+00
</event>
<event>
      5  10001  3.52971E+09  8.72037E+00 -1.00000E+00  2.02887E-01
      21    -1     0     0   516   511  0.000000000E+00  0.000000000E+00  3.419679704E+00  3.419679704E+00  0.000000000E+00  0.00000E+00  9.000E+00
      21    -1     0     0   515   517  0.000000000E+00  0.000000000E+00 -4.716811295E+01  4.716811295E+01  0.000000000E+00  0.00000E+00  9.000E+00
      21     1     1     2   516   517  2.718759040E+00 -8.179552935E+00 -2.670679328E+01  2.806331313E+01  5.840038640E-07  0.00000E+00  9.000E+00
      -5     1     1     2     0   511 -3.680929293E+00  4.318574585E+00 -1.334795457E+01  1.527767064E+01  4.800000191E+00  0.00000E+00  9.000E+00
       5     1     1     2   515     0  9.621702534E-01  3.860978350E+00 -3.693685402E+00  7.246808890E+00  4.800000191E+00  0.00000E+00  9.000E+00
</event>
<event>
      5  10001  3.52971E+09  5.48718E+00 -1.00000E+00  2.31665E-01
      21    -1     0     0   512   511  0.000000000E+00  0.000000000E+00  3.513190706E+00  3.513190706E+00  0.000000000E+00  0.00000E+00  9.000E+00
      21    -1     0     0   513   512  0.000000000E+00  0.000000000E+00 -5.385216915E+02  5.385216915E+02  0.000000000E+00  0.00000E+00  9.000E+00
      21     1     1     2   513   514 -5.644777197E-03 -1.167544830E+01 -5.166793279E+02  5.168112267E+02  1.321449896E-05  0.00000E+00  9.000E+00
      21     1     1     2   514   515 -4.591238708E+00  8.679144440E+00 -5.462807980E+00  1.123607103E+01  9.443151663E-07  0.00000E+00  9.000E+00
      21     1     1     2   515   511  4.596883485E+00  2.996303864E+00 -1.286636494E+01  1.398758454E+01  0.000000000E+00  0.00000E+00  9.000E+00
</event>
<event>
      5  10001  3.52971E+09  5.47885E+00 -1.00000E+00  2.31774E-01
      21    -1     0     0   516   514  0.000000000E+00  0.000000000E+00  1.357153103E+02  1.357153103E+02  0.000000000E+00  0.00000E+00  9.000E+00
      21    -1     0     0   511   516  0.000000000E+00  0.000000000E+00 -2.206173420E+02  2.206173420E+02  0.000000000E+00  0.00000E+00  9.000E+00
      21     1     1     2   511   513  3.989498575E+00  1.810131360E+01 -2.191502272E+02  2.199327073E+02  0.000000000E+00  0.00000E+00  9.000E+00
      21     1     1     2   513   512  1.277493787E+00 -1.629078795E+01  1.199054700E+02  1.210138153E+02  3.015782986E-06  0.00000E+00  9.000E+00
      21     1     1     2   512   514 -5.266992362E+00 -1.810525648E+00  1.434272553E+01  1.538612971E+01  4.460403188E-07  0.00000E+00  9.000E+00
</event>
<event>
      5  10001  3.52971E+09  2.08806E+01 -1.00000E+00  1.64837E-01
      21    -1     0     0   515   513  0.000000000E+00  0.000000000E+00  1.422891254E+02  1.422891254E+02  0.000000000E+00  0.00000E+00  9.000E+00
      21    -1     0     0   511   514  0.000000000E+00  0.000000000E+00 -3.804810461E+00  3.804810461E+00  0.000000000E+00  0.00000E+00  9.000E+00
      21     1     1     2   515   514  7.106843466E+00 -7.134531270E+00  3.988241756E+00  1.083119720E+01  3.885747436E-07  0.00000E+00  9.000E+00
      21     1     1     2   511   516 -1.423488717E+00  4.396076419E+00  1.759756989E+01  1.819412746E+01  2.384185791E-07  0.00000E+00  9.000E+00
      21     1     1     2   516   513 -5.683354750E+00  2.738454851E+00  1.168985033E+02  1.170686112E+02  1.348699152E-06  0.00000E+00  9.000E+00
</event>
<event>
      5  10001  3.52971E+09  8.23378E+00 -1.00000E+00  2.06043E-01
      21    -1     0     0   512   516  0.000000000E+00  0.000000000E+00  2.984175035E+00  2.984175035E+00  0.000000000E+00  0.00000E+00  9.000E+00
      21    -1     0     0   513   512  0.000000000E+00  0.000000000E+00 -1.836496641E+02  1.836496641E+02  0.000000000E+00  0.00000E+00  9.000E+00
      21     1     1     2   511   516  1.109790495E+01 -1.974716729E+00 -9.015940890E+00  1.443434067E+01  6.637292341E-07  0.00000E+00  9.000E+00
      21     1     1     2   514   511 -7.669354508E+00  3.609149489E+00 -7.538041053E+01  7.585546289E+01  0.000000000E+00  0.00000E+00  9.000E+00
      21     1     1     2   513   514 -3.428550438E+00 -1.634432759E+00 -9.626913769E+01  9.634403562E+01  1.348699152E-06  0.00000E+00  9.000E+00
</event>
<event>
      5  10001  3.52971E+09  6.15893E+00 -1.00000E+00  2.23717E-01
      21    -1     0     0   515   514  0.000000000E+00  0.000000000E+00  2.027594263E+01  2.027594263E+01  0.000000000E+00  0.00000E+00  9.000E+00
      21    -1     0     0   513   517  0.000000000E+00  0.000000000E+00 -2.116693218E+01  2.116693218E+01  0.000000000E+00  0.00000E+00  9.000E+00
      21     1     1     2   515   517 -1.652021158E+01 -4.171574555E+00  7.323077233E+00  1.854580505E+01  5.057621821E-07  0.00000E+00  9.000E+00
       5     1     1     2   513     0  1.308728636E+01  2.601376139E+00 -2.243699285E+00  1.435682452E+01  4.800000191E+00  0.00000E+00  9.000E+00
      -5     1     1     2     0   514  3.432925224E+00  1.570198416E+00 -5.970367504E+00  8.540245232E+00  4.800000191E+00  0.00000E+00  9.000E+00
</event>
<event>
      5  10001  3.52971E+09  2.23849E+01 -1.00000E+00  1.62428E-01
      21    -1     0     0   511   513  0.000000000E+00  0.000000000E+00  6.769201378E+00  6.769201378E+00  0.000000000E+00  0.00000E+00  9.000E+00
      21    -1     0     0   514   512  0.000000000E+00  0.000000000E+00 -1.018621380E+02  1.018621380E+02  0.000000000E+00  0.00000E+00  9.000E+00
      21     1     1     2   511   512  2.667205937E+00 -8.664603535E+00 -8.015887811E+01  8.066991435E+01  9.536743164E-07  0.00000E+00  9.000E+00
      21     1     1     2   515   513  9.419433017E+00  6.249837646E+00 -6.748263828E+00  1.316530492E+01  4.214684851E-07  0.00000E+00  9.000E+00
      21     1     1     2   514   515 -1.208663895E+01  2.414765889E+00 -8.185794683E+00  1.479612010E+01  4.616955931E-07  0.00000E+00  9.000E+00
</event>
<event>
      5  10001  3.52971E+09  4.43033E+00 -1.00000E+00  2.53426E-01
      21    -1     0     0   514   513  0.000000000E+00  0.000000000E+00  2.126946562E+02  2.126946562E+02  0.000000000E+00  0.00000E+00  9.000E+00
       1    -1     0     0   515     0  0.000000000E+00  0.000000000E+00 -9.084358902E-01  9.084358902E-01  0.000000000E+00  0.00000E+00  9.000E+00
      21     1     1     2   511   513 -7.547359077E+00  2.447195216E+00  1.048308818E+02  1.051307051E+02  1.348699152E-06  0.00000E+00  9.000E+00
       1     1     1     2   514     0  9.671057391E+00 -5.739600733E-01  3.136017767E+01  3.282420486E+01  3.300000131E-01  0.00000E+00  9.000E+00
      21     1     1     2   515   511 -2.123698314E+00 -1.873235143E+00  7.559516093E+01  7.564818214E+01  9.536743164E-07  0.00000E+00  9.000E+00
</event>
<event>
      5  10001  3.52971E+09  4.39056E+00 -1.00000E+00  2.54280E-01
      21    -1     0     0   513   511  0.000000000E+00  0.000000000E+00  1.654972225E+02  1.654972225E+02  0.000000000E+00  0.00000E+00  9.000E+00
      21    -1     0     0   515   512  0.000000000E+00  0.000000000E+00 -8.220345259E+00  8.220345259E+00  0.000000000E+00  0.00000E+00  9.000E+00
      21     1     1     2   516   511  5.302093340E+00 -7.398655094E+00  7.038264410E+00  1.150606175E+01  2.528810911E-07  0.00000E+00  9.000E+00
      21     1     1     2   515   516 -9.586291977E+00  6.438109648E+00 -3.558572172E-01  1.155304653E+01  2.978369011E-07  0.00000E+00  9.000E+00
      21     1     1     2   513   512  4.284198637E+00  9.605454465E-01  1.505944700E+02  1.506584595E+02  2.697398305E-06  0.00000E+00  9.000E+00
</event>
<event>
      5  10001  3.52971E+09  1.10426E+01 -1.00000E+00  1.90902E-01
      21    -1     0     0   514   512  0.000000000E+00  0.000000000E+00  2.015237872E+02  2.015237872E+02  0.000000000E+00  0.00000E+00  9.000E+00
      21    -1     0     0   511   517  0.000000000E+00  0.000000000E+00 -5.746432720E-01  5.746432720E-01  0.000000000E+00  0.00000E+00  9.000E+00
      21     1     1     2   514   517 -4.484627544E+00  7.354016420E+00  6.440721039E+01  6.498062936E+01  1.907348633E-06  0.00000E+00  9.000E+00
      21     1     1     2   511   515  3.490951638E+00 -1.190309706E-01  8.378881818E+01  8.386159409E+01  9.536743164E-07  0.00000E+00  9.000E+00
      21     1     1     2   515   512  9.936759052E-01 -7.234985449E+00  5.275311540E+01  5.325620707E+01  6.743495762E-07  0.00000E+00  9.000E+00
</event>
<event>
      5  10001  3.52971E+09  2.99659E+01 -1.00000E+00  1.53071E-01
       2    -1     0     0   514     0  0.000000000E+00  0.000000000E+00  2.469692939E+01  2.469692939E+01  0.000000000E+00  0.00000E+00  9.000E+00
       2    -1     0     0   513     0  0.000000000E+00  0.000000000E+00 -5.615621352E+02  5.615621352E+02  0.000000000E+00  0.00000E+00  9.000E+00
       2     1     1     2   513     0 -9.257136714E+00  1.308802396E+01  2.137617613E+01  2.672154107E+01  3.300000131E-01  0.00000E+00  9.000E+00
       2     1     1     2   511     0  1.909831228E+01 -1.739942305E+01 -3.145498137E+02  3.156092198E+02  3.300000131E-01  0.00000E+00  9.000E+00
      21     1     1     2   514   511 -9.841175562E+00  4.311399093E+00 -2.436915682E+02  2.439283036E+02  5.394796609E-06  0.00000E+00  9.000E+00
</event>
<event>
      5  10001  3.52971E+09  4.16973E+00 -1.00000E+00  2.59281E-01
      21    -1     0     0   513   511  0.000000000E+00  0.000000000E+00  3.295420732E+01  3.295420732E+01  0.000000000E+00  0.00000E+00  9.000E+00
       2    -1     0     0   514     0  0.000000000E+00  0.000000000E+00 -1.150680192E+02  1.150680192E+02  0.000000000E+00  0.00000E+00  9.000E+00
      21     1     1     2   514   511  1.051615885E+01 -5.723185146E+00  3.915885693E+00  1.259676966E+01  4.597678369E-07  0.00000E+00  9.000E+00
       2     1     1     2   512     0 -1.221657366E+01  1.915957129E+00 -1.102030300E+02  1.108951409E+02  3.300000131E-01  0.00000E+00  9.000E+00
      21     1     1     2   513   512  1.700414806E+00  3.807228017E+00  2.417333245E+01  2.453031589E+01  4.768371582E-07  0.00000E+00  9.000E+00
</event>
<event>
      5  10001  3.52971E+09  3.00119E+01 -1.00000E+00  1.53025E-01
      21    -1     0     0   515   514  0.000000000E+00  0.000000000E+00  7.404224430E+00  7.404224430E+00  0.000000000E+00  0.00000E+00  9.000E+00
      21    -1     0     0   516   515  0.000000000E+00  0.000000000E+00 -9.955356741E+01  9.955356741E+01  0.000000000E+00  0.00000E+00  9.000E+00
      21     1     1     2   512   514 -1.632065182E+01  9.405822662E+00 -2.775256190E+01  3.354158415E+01  1.011524364E-06  0.00000E+00  9.000E+00
      21     1     1     2   511   512  9.638066057E+00 -5.226963745E+00 -2.798446027E+00  1.131568679E+01  3.358551165E-07  0.00000E+00  9.000E+00
      21     1     1     2   516   511  6.682585761E+00 -4.178858917E+00 -6.159833506E+01  6.210052090E+01  6.743495762E-07  0.00000E+00  9.000E+00
</event>
<event>
      5  10001  3.52971E+09  7.99212E+00 -1.00000E+00  2.07721E-01
      21    -1     0     0   513   512  0.000000000E+00  0.000000000E+00  3.531930570E+01  3.531930570E+01  0.000000000E+00  0.00000E+00  9.000E+00
      -1    -1     0     0     0   513  0.000000000E+00  0.000000000E+00 -2.841220663E+02  2.841220663E+02  0.000000000E+00  0.00000E+00  9.000E+00
      21     1     1     2   511   512 -5.388500959E+00  1.226677591E+01  3.373268671E+01  3.629605882E+01  6.743495762E-07  0.00000E+00  9.000E+00
      21     1     1     2   516   511  6.602489718E+00 -4.367424283E+00 -6.774153488E+01  6.820251325E+01  1.348699152E-06  0.00000E+00  9.000E+00
      -1     1     1     2     0   516 -1.213988759E+00 -7.899351627E+00 -2.147939124E+02  2.149427999E+02  3.300000131E-01  0.00000E+00  9.000E+00
</event>
<event>
      5  10001  3.52971E+09  1.41009E+01 -1.00000E+00  1.79946E-01
      21    -1     0     0   514   516  0.000000000E+00  0.000000000E+00  1.006638562E+03  1.006638562E+03  0.000000000E+00  0.00000E+00  9.000E+00
      21    -1     0     0   512   515  0.000000000E+00  0.000000000E+00 -1.245443163E-01  1.245443163E-01  0.000000000E+00  0.00000E+00  9.000E+00
      21     1     1     2   514   515 -3.614333357E+00 -7.292247779E+00  4.721242780E+02  4.721944241E+02  5.394796609E-06  0.00000E+00  9.000E+00
      21     1     1     2   511   516  5.174389540E-01  2.843301379E+00  4.478567873E+02  4.478661118E+02  5.394796609E-06  0.00000E+00  9.000E+00
      21     1     1     2   512   511  3.096894403E+00  4.448946399E+00  8.653295253E+01  8.670257062E+01  1.907348633E-06  0.00000E+00  9.000E+00
</event>
<event>
      5  10001  3.52971E+09  1.88557E+00 -1.00000E+00  3.75431E-01
      21    -1     0     0   513   514  0.000000000E+00  0.000000000E+00  3.308905327E+02  3.308905327E+02  0.000000000E+00  0.00000E+00  9.000E+00
      21    -1     0     0   512   513  0.000000000E+00  0.000000000E+00 -2.719132454E+01  2.719132454E+01  0.000000000E+00  0.00000E+00  9.000E+00
      21     1     1     2   512   517  1.053042338E+01  5.670014259E+00 -1.692412388E+00  1.207903712E+01  1.429269172E-07  0.00000E+00  9.000E+00
      21     1     1     2   517   511 -1.007631781E+01 -3.839940996E+00 -1.887107352E+01  2.173464385E+01  3.371747881E-07  0.00000E+00  9.000E+00
      21     1     1     2   511   514 -4.541055623E-01 -1.830073263E+00  3.242626940E+02  3.242681762E+02  6.607249480E-06  0.00000E+00  9.000E+00
</event>
<event>
      5  10001  3.52971E+09  5.76716E+00 -1.00000E+00  2.28168E-01
       3    -1     0     0   515     0  0.000000000E+00  0.000000000E+00  1.675164243E+01  1.675164243E+01  0.000000000E+00  0.00000E+00  9.000E+00
      21    -1     0     0   511   512  0.000000000E+00  0.000000000E+00 -4.753741883E+02  4.753741883E+02  0.000000000E+00  0.00000E+00  9.000E+00
      21     1     1     2   515   513  3.545516206E+00 -1.556475529E+01  3.114986586E+00  1.626454530E+01  3.674277069E-07  0.00000E+00  9.000E+00
       3     1     1     2   511     0 -2.100914793E+00  9.981557813E+00  3.342432044E+00  1.074556612E+01  5.000000000E-01  0.00000E+00  9.000E+00
      21     1     1     2   513   512 -1.444601412E+00  5.583197477E+00 -4.650799645E+02  4.651157193E+02  5.394796609E-06  0.00000E+00  9.000E+00
</event>
<event>
      5  10001  3.52971E+09  2.15663E+00 -1.00000E+00  3.48437E-01
       2    -1     0     0   511     0  0.000000000E+00  0.000000000E+00  1.358305637E+03  1.358305637E+03  0.000000000E+00  0.00000E+00  9.000E+00
      21    -1     0     0   515   512  0.000000000E+00  0.000000000E+00 -4.176103877E+00  4.176103877E+00  0.000000000E+00  0.00000E+00  9.000E+00
      21     1     1     2   511   512 -8.420808090E+00  1.253772876E+01  2.482625800E+02  2.487215577E+02  7.136645101E-06  0.00000E+00  9.000E+00
       2     1     1     2   514     0  6.539253161E+00 -1.359164880E+01  1.109463786E+03  1.109566355E+03  3.300000131E-01  0.00000E+00  9.000E+00
      21     1     1     2   515   514  1.881554929E+00  1.053920032E+00 -3.596832338E+00  4.193828710E+00  4.500051996E-07  0.00000E+00  9.000E+00
</event>
<event>
      5  10001  3.52971E+09  1.32013E+01 -1.00000E+00  1.82770E-01
      21    -1     0     0   513   512  0.000000000E+00  0.000000000E+00  2.927113576E+01  2.927113576E+01  0.000000000E+00  0.00000E+00  9.000E+00
      21    -1     0     0   515   513  0.000000000E+00  0.000000000E+00 -1.467789476E+01  1.467789476E+01  0.000000000E+00  0.00000E+00  9.000E+00
      21     1     1     2   515   516  1.037531205E+01 -7.516849318E+00 -8.856482815E+00  1.557521787E+01  2.064765462E-07  0.00000E+00  9.000E+00
      -4     1     1     2     0   512 -6.318452585E+00  3.005565351E-01  5.368787322E+00  8.431313931E+00  1.500000000E+00  0.00000E+00  9.000E+00
       4     1     1     2   516     0 -4.056859468E+00  7.216292783E+00  1.808093649E+01  1.994249871E+01  1.500000000E+00  0.00000E+00  9.000E+00
</event>
<event>
      5  10001  3.52971E+09  7.27234E+00 -1.00000E+00  2.13232E-01
      21    -1     0     0   511   516  0.000000000E+00  0.000000000E+00  6.662770139E+00  6.662770139E+00  0.000000000E+00  0.00000E+00  9.000E+00
      21    -1     0     0   515   514  0.000000000E+00  0.000000000E+00 -6.694973624E+02  6.694973624E+02  0.000000000E+00  0.00000E+00  9.000E+00
      21     1     1     2   511   514 -8.321679174E-01  1.996374949E+01 -6.401876674E+02  6.404994093E+02  0.000000000E+00  0.00000E+00  9.000E+00
      21     1     1     2   512   516 -2.041851018E-01 -1.238797845E+01 -6.881547498E-01  1.240875734E+01  1.107483131E-06  0.00000E+00  9.000E+00
      21     1     1     2   515   512  1.036353019E+00 -7.575771038E+00 -2.195877009E+01  2.325196590E+01  4.129530925E-07  0.00000E+00  9.000E+00
</event>
<event>
      5  10001  3.52971E+09  7.22013E+00 -1.00000E+00  2.13665E-01
       5    -1     0     0   513     0  0.000000000E+00  0.000000000E+00  4.831654234E+00  4.831654234E+00  0.000000000E+00  0.00000E+00  9.000E+00
       2    -1     0     0   514     0  0.000000000E+00  0.000000000E+00 -1.986720337E+02  1.986720337E+02  0.000000000E+00  0.00000E+00  9.000E+00
       2     1     1     2   513     0 -1.028061221E+00 -9.681137380E+00 -3.296795398E+01  3.437697224E+01  3.300000131E-01  0.00000E+00  9.000E+00
       5     1     1     2   511     0 -1.480713765E-01  1.675664902E+01 -1.476712680E+01  2.284546448E+01  4.800000191E+00  0.00000E+00  9.000E+00
      21     1     1     2   514   511  1.176132597E+00 -7.075511638E+00 -1.461052986E+02  1.462812512E+02  2.697398305E-06  0.00000E+00  9.000E+00
</event>
<event>
      5  10001  3.52971E+09  7.64596E+00 -1.00000E+00  2.10269E-01
      21    -1     0     0   513   511  0.000000000E+00  0.000000000E+00  1.332602006E+03  1.332602006E+03  0.000000000E+00  0.00000E+00  9.000E+00
      21    -1     0     0   514   515  0.000000000E+00  0.000000000E+00 -7.143699908E-01  7.143699908E-01  0.000000000E+00  0.00000E+00  9.000E+00
      21     1     1     2   512   515 -1.096273747E+01 -2.577214835E+00  8.293133163E+01  8.369246929E+01  1.651812370E-06  0.00000E+00  9.000E+00
      21     1     1     2   514   511  1.770414385E+01 -1.030305251E+00  2.459754579E+02  2.466139171E+02  5.394796609E-06  0.00000E+00  9.000E+00
      21     1     1     2   513   512 -6.741406379E+00  3.607520087E+00  1.002980847E+03  1.003009990E+03  0.000000000E+00  0.00000E+00  9.000E+00
</event>
<event>
      5  10001  3.52971E+09  8.27172E+00 -1.00000E+00  2.05787E-01
      21    -1     0     0   516   514  0.000000000E+00  0.000000000E+00  5.368764133E+01  5.368764133E+01  0.000000000E+00  0.00000E+00  9.000E+00
      21    -1     0     0   517   512  0.000000000E+00  0.000000000E+00 -2.617194716E+00  2.617194716E+00  0.000000000E+00  0.00000E+00  9.000E+00
      21     1     1     2   516   512 -2.270643537E+00  8.862111597E+00  2.875973609E+01  3.017971611E+01  3.371747881E-07  0.00000E+00  9.000E+00
      21     1     1     2   511   514 -2.102981644E+00 -8.067496462E+00  1.841527944E+01  2.021458750E+01  0.000000000E+00  0.00000E+00  9.000E+00
      21     1     1     2   517   511  4.373625182E+00 -7.946151356E-01  3.895431085E+00  5.910532445E+00  5.960464478E-08  0.00000E+00  9.000E+00
</event>
<event>
      5  10001  3.52971E+09  1.29583E+01 -1.00000E+00  1.83583E-01
       2    -1     0     0   512     0  0.000000000E+00  0.000000000E+00  2.305768688E+02  2.305768688E+02  0.000000000E+00  0.00000E+00  9.000E+00
       2    -1     0     0   513     0  0.000000000E+00  0.000000000E+00 -2.369763573E+02  2.369763573E+02  0.000000000E+00  0.00000E+00  9.000E+00
      21     1     1     2   512   511 -2.067878498E+01  9.214894976E+00  2.188505596E+00  2.274458165E+01  6.556510925E-07  0.00000E+00  9.000E+00
       2     1     1     2   513     0  8.757069143E+00 -4.136433559E+00  2.178172125E+02  2.180326657E+02  3.300000131E-01  0.00000E+00  9.000E+00
       2     1     1     2   511     0  1.192171584E+01 -5.078461417E+00 -2.264052066E+02  2.267759787E+02  3.300000131E-01  0.00000E+00  9.000E+00
</event>
<event>
      5  10001  3.52971E+09  5.17126E+00 -1.00000E+00  2.35982E-01
       1    -1     0     0   512     0  0.000000000E+00  0.000000000E+00  3.333373961E+02  3.333373961E+02  0.000000000E+00  0.00000E+00  9.000E+00
      21    -1     0     0   511   512  0.000000000E+00  0.000000000E+00 -4.629690597E-01  4.629690597E-01  0.000000000E+00  0.00000E+00  9.000E+00
      21     1     1     2   513   514 -3.946352510E+00 -8.937821227E-01  1.692238933E+01  1.739941968E+01  6.743495762E-07  0.00000E+00  9.000E+00
       1     1     1     2   514     0  9.303183466E+00  3.565975039E+00  2.427262829E+02  2.429309011E+02  3.300000131E-01  0.00000E+00  9.000E+00
      21     1     1     2   511   513 -5.356830957E+00 -2.672192916E+00  7.322575482E+01  7.347004438E+01  0.000000000E+00  0.00000E+00  9.000E+00
</event>
<event>
      5  10001  3.52971E+09  6.17220E+00 -1.00000E+00  2.23574E-01
      21    -1     0     0   515   514  0.000000000E+00  0.000000000E+00  9.893800805E+00  9.893800805E+00  0.000000000E+00  0.00000E+00  9.000E+00
      21    -1     0     0   511   513  0.000000000E+00  0.000000000E+00 -1.443683104E+01  1.443683104E+01  0.000000000E+00  0.00000E+00  9.000E+00
      21     1     1     2   515   513  2.192415268E+00  8.752289226E+00  1.537268443E+00  9.152728864E+00  1.349357536E-07  0.00000E+00  9.000E+00
      21     1     1     2   512   514 -4.800642093E+00 -9.482584284E+00 -2.933398950E+00  1.102589673E+01  3.576278687E-07  0.00000E+00  9.000E+00
      21     1     1     2   511   512  2.608226825E+00  7.302950582E-01 -3.146899731E+00  4.152006257E+00  1.032382731E-07  0.00000E+00  9.000E+00
</event>
<event>
      5  10001  3.52971E+09  1.01892E+01 -1.00000E+00  1.94816E-01
      21    -1     0     0   516   512  0.000000000E+00  0.000000000E+00  7.644944539E+01  7.644944539E+01  0.000000000E+00  0.00000E+00  9.000E+00
       3    -1     0     0   511     0  0.000000000E+00  0.000000000E+00 -3.270571756E+01  3.270571756E+01  0.000000000E+00  0.00000E+00  9.000E+00
      21     1     1     2   516   517  1.802195564E+01 -1.208719444E+01  3.985231711E+01  4.537728875E+01  8.259061849E-07  0.00000E+00  9.000E+00
      21     1     1     2   511   512 -2.063204174E+01  2.193609206E+01  2.577162733E+01  3.963647382E+01  3.371747881E-07  0.00000E+00  9.000E+00
       3     1     1     2   517     0  2.610086098E+00 -9.848897623E+00 -2.188021661E+01  2.414140039E+01  5.000000000E-01  0.00000E+00  9.000E+00
</event>
<event>
      5  10001  3.52971E+09  3.95582E+00 -1.00000E+00  2.64603E-01
      -2    -1     0     0     0   512  0.000000000E+00  0.000000000E+00  3.399514361E+01  3.399514361E+01  0.000000000E+00  0.00000E+00  9.000E+00
       3    -1     0     0   512     0  0.000000000E+00  0.000000000E+00 -5.347659899E+00  5.347659899E+00  0.000000000E+00  0.00000E+00  9.000E+00
      21     1     1     2   511   513 -1.300860526E+00  1.787243078E+00  4.141727939E+00  4.694718974E+00  0.000000000E+00  0.00000E+00  9.000E+00
       3     1     1     2   513     0  7.525834955E+00 -7.050726756E+00  1.747498296E+00  1.047161353E+01  5.000000000E-01  0.00000E+00  9.000E+00
      -2     1     1     2     0   511 -6.224974429E+00  5.263483678E+00  2.275825748E+01  2.417647101E+01  3.300000131E-01  0.00000E+00  9.000E+00
</event>
<event>
      5  10001  3.52971E+09  2.66703E+00 -1.00000E+00  3.13274E-01
      21    -1     0     0   514   513  0.000000000E+00  0.000000000E+00  1.804528141E+00  1.804528141E+00  0.000000000E+00  0.00000E+00  9.000E+00
       2    -1     0     0   512     0  0.000000000E+00  0.000000000E+00 -1.122063968E+03  1.122063968E+03  0.000000000E+00  0.00000E+00  9.000E+00
      21     1     1     2   514   511  9.490249391E+00  3.587078477E+00 -2.450147848E+01  2.651894442E+01  7.539457465E-07  0.00000E+00  9.000E+00
      21     1     1     2   512   513 -1.179506820E+01 -4.928963114E+00 -5.065567683E+01  5.224381213E+01  6.743495762E-07  0.00000E+00  9.000E+00
       2     1     1     2   511     0  2.304818806E+00  1.341884637E+00 -1.045102284E+03  1.045105739E+03  3.300000131E-01  0.00000E+00  9.000E+00
</event>
<event>
      5  10001  3.52971E+09  4.37404E+00 -1.00000E+00  2.54638E-01
      21    -1     0     0   515   512  0.000000000E+00  0.000000000E+00  6.121316792E-01  6.121316792E-01  0.000000000E+00  0.00000E+00  9.000E+00
      21    -1     0     0   511   513  0.000000000E+00  0.000000000E+00 -7.001882936E+02  7.001882936E+02  0.000000000E+00  0.00000E+00  9.000E+00
      21     1     1     2   515   516 -4.936405590E+00 -1.239650361E+01 -1.829721850E+02  1.834580657E+02  0.000000000E+00  0.00000E+00  9.000E+00
      21     1     1     2   511   512  3.054480334E+00  8.448010899E+00 -5.586780904E+01  5.658542944E+01  1.168007728E-06  0.00000E+00  9.000E+00
      21     1     1     2   516   513  1.881925256E+00  3.948492711E+00 -4.607361679E+02  4.607569301E+02  7.629394531E-06  0.00000E+00  9.000E+00
</event>
<event>
      5  10001  3.52971E+09  9.60907E+00 -1.00000E+00  1.97776E-01
       4    -1     0     0   511     0  0.000000000E+00  0.000000000E+00  5.924823358E+00  5.924823358E+00  0.000000000E+00  0.00000E+00  9.000E+00
      21    -1     0     0   514   513  0.000000000E+00  0.000000000E+00 -5.141216299E+02  5.141216299E+02  0.000000000E+00  0.00000E+00  9.000E+00
      21     1     1     2   512   513  4.483851223E+00 -4.145147658E+00 -4.582678925E+02  4.583085734E+02  5.394796609E-06  0.00000E+00  9.000E+00
       4     1     1     2   514     0 -1.190361925E+01  1.263484035E+00 -9.335519472E-01  1.210016787E+01  1.500000000E+00  0.00000E+00  9.000E+00
      21     1     1     2   511   512  7.419768031E+00  2.881663623E+00 -4.899536206E+01  4.963771194E+01  0.000000000E+00  0.00000E+00  9.000E+00
</event>
<event>
      5  10001  3.52971E+09  6.36216E+00 -1.00000E+00  2.21584E-01
      21    -1     0     0   515   513  0.000000000E+00  0.000000000E+00  8.159434903E+01  8.159434903E+01  0.000000000E+00  0.00000E+00  9.000E+00
      21    -1     0     0   516   515  0.000000000E+00  0.000000000E+00 -2.357507237E+01  2.357507237E+01  0.000000000E+00  0.00000E+00  9.000E+00
      21     1     1     2   516   512  7.051222755E+00 -7.919655530E+00 -2.045062334E+01  2.303624712E+01  5.840038640E-07  0.00000E+00  9.000E+00
      21     1     1     2   514   513 -8.577825537E+00  1.113864260E+01  7.701044780E+01  7.828318798E+01  0.000000000E+00  0.00000E+00  9.000E+00
      21     1     1     2   512   514  1.526602782E+00 -3.218987074E+00  1.459452202E+00  3.849986307E+00  3.650024150E-08  0.00000E+00  9.000E+00
</event>
<event>
      5  10001  3.52971E+09  7.24141E+01 -1.00000E+00  1.30477E-01
      21    -1     0     0   511   514  0.000000000E+00  0.000000000E+00  8.594791848E+02  8.594791848E+02  0.000000000E+00  0.00000E+00  9.000E+00
      21    -1     0     0   512   517  0.000000000E+00  0.000000000E+00 -4.523076811E+00  4.523076811E+00  0.000000000E+00  0.00000E+00  9.000E+00
      21     1     1     2   511   517 -2.290859144E+01  3.014219616E+01  6.837994900E+02  6.848467698E+02  7.629394531E-06  0.00000E+00  9.000E+00
      21     1     1     2   513   514  2.047804547E+00  8.318293439E+00  1.918472842E+01  2.101050485E+01  5.331201500E-07  0.00000E+00  9.000E+00
      21     1     1     2   512   513  2.086078690E+01 -3.846048960E+01  1.519718895E+02  1.581449869E+02  3.814697266E-06  0.00000E+00  9.000E+00
</event>
<event>
      5  10001  3.52971E+09  1.55918E+01 -1.00000E+00  1.75811E-01
      21    -1     0     0   515   513  0.000000000E+00  0.000000000E+00  6.498488252E+01  6.498488252E+01  0.000000000E+00  0.00000E+00  9.000E+00
      21    -1     0     0   512   516  0.000000000E+00  0.000000000E+00 -4.499277101E+00  4.499277101E+00  0.000000000E+00  0.00000E+00  9.000E+00
      21     1     1     2   515   516  1.171248013E+01 -1.826703387E+00  2.167795848E+01  2.470734547E+01  0.000000000E+00  0.00000E+00  9.000E+00
      21     1     1     2   511   513 -1.055733058E+01 -1.501558210E+00  3.972907968E+01  4.113528507E+01  4.768371582E-07  0.00000E+00  9.000E+00
      21     1     1     2   512   511 -1.155149554E+00  3.328261597E+00 -9.214327402E-01  3.641529081E+00  8.093402156E-08  0.00000E+00  9.000E+00
</event>
<event>
      5  10001  3.52971E+09  5.88145E+00 -1.00000E+00  2.26820E-01
      -2    -1     0     0     0   514  0.000000000E+00  0.000000000E+00  1.086664425E+01  1.086664425E+01  0.000000000E+00  0.00000E+00  9.000E+00
      21    -1     0     0   514   515  0.000000000E+00  0.000000000E+00 -1.483823409E+02  1.483823409E+02  0.000000000E+00  0.00000E+00  9.000E+00
      -2     1     1     2     0   512  1.129555952E+01  2.862404800E+00  7.003329677E+00  1.359921148E+01  3.300000131E-01  0.00000E+00  9.000E+00
      21     1     1     2   512   513 -7.795915152E+00  1.414403383E+00 -1.277122563E+02  1.279577947E+02  2.336015456E-06  0.00000E+00  9.000E+00
      21     1     1     2   513   515 -3.499644373E+00 -4.276808183E+00 -1.680677007E+01  1.769197895E+01  2.384185791E-07  0.00000E+00  9.000E+00
</event>
<event>
      5  10001  3.52971E+09  7.48872E+00 -1.00000E+00  2.11487E-01
      21    -1     0     0   511   512  0.000000000E+00  0.000000000E+00  9.200422687E+00  9.200422687E+00  0.000000000E+00  0.00000E+00  9.000E+00
      21    -1     0     0   514   516  0.000000000E+00  0.000000000E+00 -3.282665155E+02  3.282665155E+02  0.000000000E+00  0.00000E+00  9.000E+00
      21     1     1     2   511   516 -1.281091931E+01  2.755122122E+00 -3.228371954E+02  3.231030254E+02  5.394796609E-06  0.00000E+00  9.000E+00
      21     1     1     2   517   512  2.578185860E+00 -2.547108881E+00  1.062024205E+00  3.776599184E+00  1.228781231E-07  0.00000E+00  9.000E+00
      21     1     1     2   514   517  1.023273345E+01 -2.080132413E-01  2.709078314E+00  1.058731357E+01  8.760057960E-07  0.00000E+00  9.000E+00
</event>
<event>
      5  10001  3.52971E+09  6.06851E+00 -1.00000E+00  2.24703E-01
      21    -1     0     0   515   513  0.000000000E+00  0.000000000E+00  6.219527986E+01  6.219527986E+01  0.000000000E+00  0.00000E+00  9.000E+00
      21    -1     0     0   511   512  0.000000000E+00  0.000000000E+00 -7.007905223E+01  7.007905223E+01  0.000000000E+00  0.00000E+00  9.000E+00
      -5     1     1     2     0   512 -7.383923207E+00  2.967115351E+00  1.161635769E+01  1.487635248E+01  4.800000191E+00  0.00000E+00  9.000E+00
      21     1     1     2   511   513  1.284588132E+01 -5.506500073E+00 -6.742491362E+01  6.885823979E+01  1.348699152E-06  0.00000E+00  9.000E+00
       5     1     1     2   515     0 -5.461958110E+00  2.539384723E+00  4.792478356E+01  4.853973982E+01  4.800000191E+00  0.00000E+00  9.000E+00
</event>
<event>
      5  10001  3.52971E+09  7.41289E+00 -1.00000E+00  2.12089E-01
      -1    -1     0     0     0   514  0.000000000E+00  0.000000000E+00  5.266719245E+02  5.266719245E+02  0.000000000E+00  0.00000E+00  9.000E+00
      21    -1     0     0   513   515  0.000000000E+00  0.000000000E+00 -3.867452302E+00  3.867452302E+00  0.000000000E+00  0.00000E+00  9.000E+00
      -1     1     1     2     0   511 -5.468154762E+00  3.634833337E+00  3.529929926E+02  3.530542090E+02  3.300000131E-01  0.00000E+00  9.000E+00
      21     1     1     2   513   514  5.158895265E+00 -1.187454637E+01  7.495717930E+00  1.496010826E+01  5.717076687E-07  0.00000E+00  9.000E+00
      21     1     1     2   511   515  3.092594971E-01  8.239713030E+00  1.623157617E+02  1.625250596E+02  1.907348633E-06  0.00000E+00  9.000E+00
</event>
<event>
      5  10001  3.52971E+09  2.26739E+01 -1.00000E+00  1.61992E-01
      21    -1     0     0   512   511  0.000000000E+00  0.000000000E+00  2.266054874E+01  2.266054874E+01  0.000000000E+00  0.00000E+00  9.000E+00
      21    -1     0     0   516   512  0.000000000E+00  0.000000000E+00 -6.858141635E+01  6.858141635E+01  0.000000000E+00  0.00000E+00  9.000E+00
      21     1     1     2   516   515  1.624688268E+01 -5.468111898E-01 -5.194362676E+01  5.442793915E+01  6.743495762E-07  0.00000E+00  9.000E+00
      21     1     1     2   515   513 -4.151868737E+00 -8.439964821E+00  1.612846907E+01  1.867079363E+01  4.129530925E-07  0.00000E+00  9.000E+00
      21     1     1     2   513   511 -1.209501394E+01  8.986776011E+00 -1.010570993E+01  1.814323231E+01  2.665600750E-07  0.00000E+00  9.000E+00
</event>
<event>
      5  10001  3.52971E+09  5.13410E+00 -1.00000E+00  2.36518E-01
      21    -1     0     0   513   511  0.000000000E+00  0.000000000E+00  8.356799570E+01  8.356799570E+01  0.000000000E+00  0.00000E+00  9.000E+00
      -1    -1     0     0     0   514  0.000000000E+00  0.000000000E+00 -1.199558415E+01  1.199558415E+01  0.000000000E+00  0.00000E+00  9.000E+00
      -1     1     1     2     0   511  1.453254050E+01  1.583384296E+01  1.078623736E+00  2.152156234E+01  3.300000131E-01  0.00000E+00  9.000E+00
      21     1     1     2   513   512 -8.464527009E+00 -1.345641039E+01  4.488909332E+01  4.762093970E+01  6.743495762E-07  0.00000E+00  9.000E+00
      21     1     1     2   512   514 -6.068013492E+00 -2.377432572E+00  2.560469448E+01  2.642107782E+01  3.371747881E-07  0.00000E+00  9.000E+00
</event>
<event>
      5  10001  3.52971E+09  9.19593E+00 -1.00000E+00  2.00057E-01
      21    -1     0     0   515   511  0.000000000E+00  0.000000000E+00  5.832916849E-01  5.832916849E-01  0.000000000E+00  0.00000E+00  9.000E+00
       2    -1     0     0   511     0  0.000000000E+00  0.000000000E+00 -5.347041344E+02  5.347041344E+02  0.000000000E+00  0.00000E+00  9.000E+00
      21     1     1     2   515   512  2.151272510E-02 -8.525425733E+00 -4.066169430E+01  4.154583890E+01  1.651812370E-06  0.00000E+00  9.000E+00
       2     1     1     2   513     0  2.967146898E-01  2.985399833E+00 -4.369934009E+02  4.370038237E+02  3.300000131E-01  0.00000E+00  9.000E+00
      21     1     1     2   512   513 -3.182274149E-01  5.540025900E+00 -5.646574750E+01  5.673776341E+01  6.743495762E-07  0.00000E+00  9.000E+00
</event>
<event>
      5  10001  3.52971E+09  1.67721E+01 -1.00000E+00  1.72930E-01
      21    -1     0     0   514   512  0.000000000E+00  0.000000000E+00  4.336195037E+01  4.336195037E+01  0.000000000E+00  0.00000E+00  9.000E+00
      21    -1     0     0   511   516  0.000000000E+00  0.000000000E+00 -1.159288007E+01  1.159288007E+01  0.000000000E+00  0.00000E+00  9.000E+00
      21     1     1     2   514   516  3.472949590E+00  9.248770962E+00  3.250582017E+01  3.397395308E+01  4.768371582E-07  0.00000E+00  9.000E+00
      21     1     1     2   515   512 -8.864822516E+00 -1.005023523E+01  3.755243465E+00  1.391740493E+01  1.737759082E-07  0.00000E+00  9.000E+00
      21     1     1     2   511   515  5.391872926E+00  8.014642700E-01 -4.491993332E+00  7.063472427E+00  3.153981341E-07  0.00000E+00  9.000E+00
</event>
<event>
      5  10001  3.52971E+09  7.53274E+00 -1.00000E+00  2.11142E-01
      21    -1     0     0   514   512  0.000000000E+00  0.000000000E+00  2.856782980E+01  2.856782980E+01  0.000000000E+00  0.00000E+00  9.000E+00
       2    -1     0     0   513     0  0.000000000E+00  0.000000000E+00 -1.031104302E+03  1.031104302E+03  0.000000000E+00  0.00000E+00  9.000E+00
      21     1     1     2   513   512 -3.584491320E+00  1.280179340E+01 -8.095023502E+01  8.203459662E+01  4.672030912E-06  0.00000E+00  9.000E+00
       2     1     1     2   511     0 -3.736710407E+00 -1.102921250E+01 -9.490693301E+02  9.491408266E+02  3.300000131E-01  0.00000E+00  9.000E+00
      21     1     1     2   514   511  7.321201727E+00 -1.772580896E+00  2.748309260E+01  2.849670888E+01  2.384185791E-06  0.00000E+00  9.000E+00
</event>
<event>
      5  10001  3.52971E+09  3.78585E+00 -1.00000E+00  2.69222E-01
      21    -1     0     0   513   511  0.000000000E+00  0.000000000E+00  5.363469224E+01  5.363469224E+01  0.000000000E+00  0.00000E+00  9.000E+00
      21    -1     0     0   512   516  0.000000000E+00  0.000000000E+00 -1.233825875E+02  1.233825875E+02  0.000000000E+00  0.00000E+00  9.000E+00
      21     1     1     2   515   516 -1.541259508E+00  1.249961174E+01 -1.214932049E+02  1.221442369E+02  2.697398305E-06  0.00000E+00  9.000E+00
      21     1     1     2   512   511  1.165013697E+00 -8.732509079E+00  1.168363649E+01  1.463288534E+01  2.920019320E-07  0.00000E+00  9.000E+00
      21     1     1     2   513   515  3.762458108E-01 -3.767102663E+00  4.006167312E+01  4.024015752E+01  0.000000000E+00  0.00000E+00  9.000E+00
</event>
<event>
      5  10001  3.52971E+09  3.99417E+00 -1.00000E+00  2.63611E-01
      21    -1     0     0   514   511  0.000000000E+00  0.000000000E+00  1.153876083E+00  1.153876083E+00  0.000000000E+00  0.00000E+00  9.000E+00
       2    -1     0     0   512     0  0.000000000E+00  0.000000000E+00 -1.250064127E+02  1.250064127E+02  0.000000000E+00  0.00000E+00  9.000E+00
      21     1     1     2   512   516  4.531793548E-01  2.353447467E+00 -1.390389871E+01  1.410895055E+01  1.685873940E-07  0.00000E+00  9.000E+00
       2     1     1     2   514     0 -5.946366151E+00 -1.029117056E+01 -5.642295918E+01  5.766217724E+01  3.300000131E-01  0.00000E+00  9.000E+00
      21     1     1     2   516   511  5.493186796E+00  7.937723089E+00 -5.352567871E+01  5.438916096E+01  9.536743164E-07  0.00000E+00  9.000E+00
</event>
<event>
      5  10001  3.52971E+09  1.06113E+01 -1.00000E+00  1.92820E-01
      21    -1     0     0   512   514  0.000000000E+00  0.000000000E+00  1.630407574E+02  1.630407574E+02  0.000000000E+00  0.00000E+00  9.000E+00
      -2    -1     0     0     0   513  0.000000000E+00  0.000000000E+00 -8.361550050E+00  8.361550050E+00  0.000000000E+00  0.00000E+00  9.000E+00
      -2     1     1     2     0   511 -4.753438487E+00 -1.903038032E+01  6.756056426E+00  2.074858431E+01  3.300000131E-01  0.00000E+00  9.000E+00
      21     1     1     2   512   513  1.191930147E+01  1.120448522E+01  6.379514364E+01  6.585917240E+01  6.743495762E-07  0.00000E+00  9.000E+00
      21     1     1     2   511   514 -7.165862981E+00  7.825895093E+00  8.412800729E+01  8.479455075E+01  9.536743164E-07  0.00000E+00  9.000E+00
</event>
<event>
      5  10001  3.52971E+09  6.02187E+00 -1.00000E+00  2.25220E-01
      21    -1     0     0   515   511  0.000000000E+00  0.000000000E+00  4.466183226E+02  4.466183226E+02  0.000000000E+00  0.00000E+00  9.000E+00
      21    -1     0     0   514   515  0.000000000E+00  0.000000000E+00 -1.707728462E+01  1.707728462E+01  0.000000000E+00  0.00000E+00  9.000E+00
      21     1     1     2   514   516 -1.004255408E+01 -2.825641218E+00 -1.539685176E+01  1.859839200E+01  1.479348379E-06  0.00000E+00  9.000E+00
      21     1     1     2   516   512  2.881792582E+00 -7.834060314E-01  2.126265913E+02  2.126475624E+02  2.697398305E-06  0.00000E+00  9.000E+00
      21     1     1     2   512   511  7.160761500E+00  3.609047250E+00  2.323112984E+02  2.324496528E+02  3.814697266E-06  0.00000E+00  9.000E+00
</event>
<event>
      5  10001  3.52971E+09  9.78500E+00 -1.00000E+00  1.96850E-01
      21    -1     0     0   512   511  0.000000000E+00  0.000000000E+00  4.691895178E-01  4.691895178E-01  0.000000000E+00  0.00000E+00  9.000E+00
      -1    -1     0     0     0   513  0.000000000E+00  0.000000000E+00 -3.771197873E+02  3.771197873E+02  0.000000000E+00  0.00000E+00  9.000E+00
      21     1     1     2   514   511  6.837858186E+00  1.349586888E+00 -4.765025946E+01  4.815729349E+01  9.536743164E-07  0.00000E+00  9.000E+00
      21     1     1     2   512   513 -1.089134004E+01  8.907330337E-01 -1.627139920E+02  1.630805257E+02  1.907348633E-06  0.00000E+00  9.000E+00
      -1     1     1     2     0   514  4.053481849E+00 -2.240319921E+00 -1.662863464E+02  1.663511576E+02  3.300000131E-01  0.00000E+00  9.000E+00
</event>
<event>
      5  10001  3.52971E+09  1.15550E+01 -1.00000E+00  1.88766E-01
      21    -1     0     0   515   516  0.000000000E+00  0.000000000E+00  3.151648066E+01  3.151648066E+01  0.000000000E+00  0.00000E+00  9.000E+00
      21    -1     0     0   511   512  0.000000000E+00  0.000000000E+00 -7.343423797E+01  7.343423797E+01  0.000000000E+00  0.00000E+00  9.000E+00
      21     1     1     2   515   514  7.834887595E+00  6.127237774E+00  1.570797426E+01  1.859217474E+01  0.000000000E+00  0.00000E+00  9.000E+00
      21     1     1     2   511   516 -1.331143205E+01 -1.630194491E+01  5.846357368E+00  2.184324897E+01  1.884864366E-07  0.00000E+00  9.000E+00
      21     1     1     2   514   512  5.476544453E+00  1.017470713E+01 -6.347208894E+01  6.451529492E+01  9.536743164E-07  0.00000E+00  9.000E+00
</event>
<event>
      5  10001  3.52971E+09  6.18246E+00 -1.00000E+00  2.23464E-01
       2    -1     0     0   513     0  0.000000000E+00  0.000000000E+00  1.718240054E+01  1.718240054E+01  0.000000000E+00  0.00000E+00  9.000E+00
       1    -1     0     0   514     0  0.000000000E+00  0.000000000E+00 -1.524365390E+03  1.524365390E+03  0.000000000E+00  0.00000E+00  9.000E+00
      21     1     1     2   514   511  1.121265031E+01 -4.310524090E+00 -1.209967243E+01  1.705010902E+01  2.105655877E-06  0.00000E+00  9.000E+00
       1     1     1     2   513     0 -1.633408275E+01  8.473489656E-01 -1.509092615E+03  1.509181285E+03  3.300000131E-01  0.00000E+00  9.000E+00
       2     1     1     2   511     0  5.121432444E+00  3.463175125E+00  1.400929852E+01  1.531639636E+01  3.300000131E-01  0.00000E+00  9.000E+00
</event>
<event>
      5  10001  3.52971E+09  3.41494E+00 -1.00000E+00  2.80768E-01
      21    -1     0     0   512   515  0.000000000E+00  0.000000000E+00  1.484788450E+00  1.484788450E+00  0.000000000E+00  0.00000E+00  9.000E+00
       2    -1     0     0   511     0  0.000000000E+00  0.000000000E+00 -4.570674614E+02  4.570674614E+02  0.000000000E+00  0.00000E+00  9.000E+00
      21     1     1     2   513   515  8.763087237E+00  1.275124496E+00 -2.049402439E+01  2.232538188E+01  3.371747881E-07  0.00000E+00  9.000E+00
       2     1     1     2   512     0 -1.075921951E+01  1.273327315E-01 -4.326278503E+02  4.327617621E+02  3.300000131E-01  0.00000E+00  9.000E+00
      21     1     1     2   511   513  1.996132272E+00 -1.402457227E+00 -2.460798266E+00  3.465105832E+00  2.289159819E-07  0.00000E+00  9.000E+00
</event>
<event>
      5  10001  3.52971E+09  2.42424E+01 -1.00000E+00  1.59755E-01
      21    -1     0     0   514   513  0.000000000E+00  0.000000000E+00  1.873383709E+02  1.873383709E+02  0.000000000E+00  0.00000E+00  9.000E+00
      21    -1     0     0   511   514  0.000000000E+00  0.000000000E+00 -4.410958014E+01  4.410958014E+01  0.000000000E+00  0.00000E+00  9.000E+00
      21     1     1     2   516   513 -2.692920821E+01  5.633557835E+01  1.448802646E+02  1.577630207E+02  2.697398305E-06  0.00000E+00  9.000E+00
      21     1     1     2   511   512  5.443690590E+00 -5.093451933E+01 -4.140000750E+00  5.139162026E+01  8.429369702E-08  0.00000E+00  9.000E+00
      21     1     1     2   512   516  2.148551762E+01 -5.401059016E+00  2.488526908E+00  2.229331003E+01  5.786564302E-07  0.00000E+00  9.000E+00
</event>
<event>
      5  10001  3.52971E+09  7.39956E+00 -1.00000E+00  2.12196E-01
      21    -1     0     0   515   511  0.000000000E+00  0.000000000E+00  3.172796161E+01  3.172796161E+01  0.000000000E+00  0.00000E+00  9.000E+00
      21    -1     0     0   517   515  0.000000000E+00  0.000000000E+00 -1.893151368E+01  1.893151368E+01  0.000000000E+00  0.00000E+00  9.000E+00
      21     1     1     2   517   516 -5.930995672E+00 -1.444393090E+01 -1.249156038E+01  1.999607287E+01  1.685873940E-07  0.00000E+00  9.000E+00
       3     1     1     2   516     0  5.886328227E+00  8.622127535E+00  1.074251762E+01  1.498804951E+01  5.000000000E-01  0.00000E+00  9.000E+00
      -3     1     1     2     0   511  4.466744493E-02  5.821803363E+00  1.454549068E+01  1.567535291E+01  5.000000000E-01  0.00000E+00  9.000E+00
</event>
<event>
      5  10001  3.52971E+09  5.36948E+00 -1.00000E+00  2.33224E-01
       4    -1     0     0   514     0  0.000000000E+00  0.000000000E+00  3.122912015E+00  3.122912015E+00  0.000000000E+00  0.00000E+00  9.000E+00
      21    -1     0     0   512   513  0.000000000E+00  0.000000000E+00 -1.983413531E+02  1.983413531E+02  0.000000000E+00  0.00000E+00  9.000E+00
      21     1     1     2   514   515 -5.412647294E-01 -4.322784678E+00 -7.546249015E+01  7.558813964E+01  9.536743164E-07  0.00000E+00  9.000E+00
       4     1     1     2   512     0 -1.083259927E+00  1.473753563E+01 -1.697425823E+01  2.255535083E+01  1.500000000E+00  0.00000E+00  9.000E+00
      21     1     1     2   515   513  1.624524656E+00 -1.041475096E+01 -1.027816927E+02  1.033207747E+02  0.000000000E+00  0.00000E+00  9.000E+00
</event>
<event>
      5  10001  3.52971E+09  5.08318E+00 -1.00000E+00  2.37264E-01
      -3    -1     0     0     0   511  0.000000000E+00  0.000000000E+00  1.445312623E+02  1.445312623E+02  0.000000000E+00  0.00000E+00  9.000E+00
      21    -1     0     0   511   513  0.000000000E+00  0.000000000E+00 -1.603756451E+00  1.603756451E+00  0.000000000E+00  0.00000E+00  9.000E+00
      21     1     1     2   512   514  2.207200319E+00 -3.386821978E+00  7.762110445E+01  7.772630283E+01  1.651812370E-06  0.00000E+00  9.000E+00
      21     1     1     2   514   513 -5.097338578E+00  9.338307070E+00  2.032949934E+01  2.294505138E+01  3.371747881E-07  0.00000E+00  9.000E+00
      -3     1     1     2     0   512  2.890138260E+00 -5.951485092E+00  4.497690204E+01  4.546366451E+01  5.000000000E-01  0.00000E+00  9.000E+00
</event>
<event>
      5  10001  3.52971E+09  1.04388E+01 -1.00000E+00  1.93621E-01
      21    -1     0     0   515   512  0.000000000E+00  0.000000000E+00  3.621186551E+02  3.621186551E+02  0.000000000E+00  0.00000E+00  9.000E+00
      21    -1     0     0   511   515  0.000000000E+00  0.000000000E+00 -1.008297818E+02  1.008297818E+02  0.000000000E+00  0.00000E+00  9.000E+00
      21     1     1     2   516   512 -1.127923448E+01 -7.853257188E+00  3.582312528E+02  3.584948051E+02  3.814697266E-06  0.00000E+00  9.000E+00
      21     1     1     2   513   516  1.793233949E+00  4.865284237E+00 -9.391440312E+01  9.405743879E+01  3.303624740E-06  0.00000E+00  9.000E+00
      21     1     1     2   511   513  9.486000528E+00  2.987972951E+00 -3.027976468E+00  1.039619305E+01  7.300048300E-08  0.00000E+00  9.000E+00
</event>
<event>
      5  10001  3.52971E+09  2.61742E+00 -1.00000E+00  3.16075E-01
       2    -1     0     0   514     0  0.000000000E+00  0.000000000E+00  8.965880310E+02  8.965880310E+02  0.000000000E+00  0.00000E+00  9.000E+00
      -1    -1     0     0     0   512  0.000000000E+00  0.000000000E+00 -1.006732670E+00  1.006732670E+00  0.000000000E+00  0.00000E+00  9.000E+00
      -1     1     1     2     0   511  1.257357931E+00  1.481126645E+01  1.157274278E+02  1.166786227E+02  3.300000131E-01  0.00000E+00  9.000E+00
       2     1     1     2   511     0  1.247233256E+00 -1.405182348E+01  7.766543950E+02  7.767825741E+02  3.300000131E-01  0.00000E+00  9.000E+00
      21     1     1     2   514   512 -2.504591187E+00 -7.594429697E-01  3.199475602E+00  4.133566833E+00  1.632340424E-07  0.00000E+00  9.000E+00
</event>
<event>
      5  10001  3.52971E+09  1.16983E+01 -1.00000E+00  1.88194E-01
      21    -1     0     0   513   515  0.000000000E+00  0.000000000E+00  9.294812953E+01  9.294812953E+01  0.000000000E+00  0.00000E+00  9.000E+00
      21    -1     0     0   515   512  0.000000000E+00  0.000000000E+00 -2.999379468E+01  2.999379468E+01  0.000000000E+00  0.00000E+00  9.000E+00
      -5     1     1     2     0   512 -7.199182066E+00 -6.717376901E+00 -2.584258623E+01  2.806832092E+01  4.800000191E+00  0.00000E+00  9.000E+00
       5     1     1     2   511     0  3.863601052E+00  1.244256325E+01  8.687068537E+01  8.797329579E+01  4.800000191E+00  0.00000E+00  9.000E+00
      21     1     1     2   513   511  3.335581014E+00 -5.725186351E+00  1.926235708E+00  6.900307490E+00  8.940696716E-08  0.00000E+00  9.000E+00
</event>
<event>
      5  10001  3.52971E+09  7.71677E+00 -1.00000E+00  2.09733E-01
      21    -1     0     0   514   516  0.000000000E+00  0.000000000E+00  1.848201040E+01  1.848201040E+01  0.000000000E+00  0.00000E+00  9.000E+00
      21    -1     0     0   515   512  0.000000000E+00  0.000000000E+00 -3.981744243E+01  3.981744243E+01  0.000000000E+00  0.00000E+00  9.000E+00
      21     1     1     2   511   516  1.047327258E+01  1.445769259E+00  1.251872689E+01  1.638591500E+01  1.685873940E-07  0.00000E+00  9.000E+00
      21     1     1     2   515   511 -1.377110326E+01 -8.422364039E+00 -1.737140086E+01  2.371381599E+01  3.371747881E-07  0.00000E+00  9.000E+00
      21     1     1     2   514   512  3.297830673E+00  6.976594780E+00 -1.648275806E+01  1.819972184E+01  3.371747881E-07  0.00000E+00  9.000E+00
</event>
<event>
      5  10001  3.52971E+09  2.07368E+01 -1.00000E+00  1.65080E-01
      21    -1     0     0   512   513  0.000000000E+00  0.000000000E+00  9.391081475E+01  9.391081475E+01  0.000000000E+00  0.00000E+00  9.000E+00
      21    -1     0     0   511   515  0.000000000E+00  0.000000000E+00 -4.245128442E+01  4.245128442E+01  0.000000000E+00  0.00000E+00  9.000E+00
      -2     1     1     2     0   513  6.381054201E+00  8.923408401E+00  8.098130266E+01  8.172163331E+01  3.300000131E-01  0.00000E+00  9.000E+00
       2     1     1     2   511     0  1.206501497E+01 -1.839657973E+01 -2.520878005E+01  3.346027829E+01  3.300000131E-01  0.00000E+00  9.000E+00
      21     1     1     2   512   515 -1.844606917E+01  9.473171325E+00 -4.312992278E+00  2.118018757E+01  4.578319638E-07  0.00000E+00  9.000E+00
</event>
<event>
      5  10001  3.52971E+09  4.68178E+00 -1.00000E+00  2.48332E-01
       1    -1     0     0   514     0  0.000000000E+00  0.000000000E+00  4.476163649E+01  4.476163649E+01  0.000000000E+00  0.00000E+00  9.000E+00
      21    -1     0     0   513   516  0.000000000E+00  0.000000000E+00 -1.331995743E+02  1.331995743E+02  0.000000000E+00  0.00000E+00  9.000E+00
      21     1     1     2   514   516 -1.281802311E+01  1.137832925E+01  3.102753701E+01  3.544680727E+01  5.840038640E-07  0.00000E+00  9.000E+00
      21     1     1     2   513   511  8.226196718E+00 -1.229122452E+01 -1.300750034E+02  1.309131430E+02  2.697398305E-06  0.00000E+00  9.000E+00
       1     1     1     2   511     0  4.591826396E+00  9.128952709E-01  1.060952859E+01  1.160126046E+01  3.300000131E-01  0.00000E+00  9.000E+00
</event>
<event>
      5  10001  3.52971E+09  5.49295E+00 -1.00000E+00  2.31590E-01
      -3    -1     0     0     0   512  0.000000000E+00  0.000000000E+00  9.323806738E+00  9.323806738E+00  0.000000000E+00  0.00000E+00  9.000E+00
      21    -1     0     0   511   514  0.000000000E+00  0.000000000E+00 -1.326392864E+01  1.326392864E+01  0.000000000E+00  0.00000E+00  9.000E+00
      -3     1     1     2     0   513  3.135852745E+00 -2.570902817E-01 -3.004964685E-01  3.199994684E+00  5.000000000E-01  0.00000E+00  9.000E+00
      21     1     1     2   511   512 -9.879666423E+00 -4.374635194E+00 -2.812005494E+00  1.116479362E+01  2.308477966E-07  0.00000E+00  9.000E+00
      21     1     1     2   513   514  6.743813678E+00  4.631725475E+00 -8.276199394E-01  8.222947073E+00  6.409231772E-08  0.00000E+00  9.000E+00
</event>
<event>
      5  10001  3.52971E+09  7.55028E+00 -1.00000E+00  2.11006E-01
      21    -1     0     0   515   512  0.000000000E+00  0.000000000E+00  7.017481868E+01  7.017481868E+01  0.000000000E+00  0.00000E+00  9.000E+00
      21    -1     0     0   516   515  0.000000000E+00  0.000000000E+00 -1.839640189E+01  1.839640189E+01  0.000000000E+00  0.00000E+00  9.000E+00
      21     1     1     2   511   512  3.382410580E+00  1.556320609E+01  6.483706641E+01  6.676450604E+01  9.536743164E-07  0.00000E+00  9.000E+00
      21     1     1     2   517   511 -5.141876323E+00 -7.542841250E+00 -5.571735635E+00  1.069474564E+01  3.264680848E-07  0.00000E+00  9.000E+00
      21     1     1     2   516   517  1.759465743E+00 -8.020364838E+00 -7.486913984E+00  1.111196890E+01  1.685873940E-07  0.00000E+00  9.000E+00
</event>
<event>
      5  10001  3.52971E+09  2.20364E+00 -1.00000E+00  3.44485E-01
      -1    -1     0     0     0   511  0.000000000E+00  0.000000000E+00  9.355243147E+00  9.355243147E+00  0.000000000E+00  0.00000E+00  9.000E+00
       3    -1     0     0   511     0  0.000000000E+00  0.000000000E+00 -3.899565225E+01  3.899565225E+01  0.000000000E+00  0.00000E+00  9.000E+00
      -1     1     1     2     0   512 -8.701453185E+00  4.408380311E+00  4.027383456E+00  1.055830583E+01  3.300000131E-01  0.00000E+00  9.000E+00
       3     1     1     2   513     0  1.018329030E+01 -3.011901986E+00 -3.409334640E+01  3.571242394E+01  5.000000000E-01  0.00000E+00  9.000E+00
      21     1     1     2   512   513 -1.481837111E+00 -1.396478325E+00  4.255538474E-01  2.080165621E+00  3.977521603E-08  0.00000E+00  9.000E+00
</event>
<event>
      5  10001  3.52971E+09  6.17169E+00 -1.00000E+00  2.23579E-01
      21    -1     0     0   514   511  0.000000000E+00  0.000000000E+00  6.708363081E+02  6.708363081E+02  0.000000000E+00  0.00000E+00  9.000E+00
       2    -1     0     0   512     0  0.000000000E+00  0.000000000E+00 -1.211571654E+02  1.211571654E+02  0.000000000E+00  0.00000E+00  9.000E+00
      21     1     1     2   515   511 -4.394053692E+00  9.048977558E+00  6.693427831E+02  6.694183692E+02  7.629394531E-06  0.00000E+00  9.000E+00
       2     1     1     2   514     0  2.194879569E+00 -1.010026292E+01 -1.196915037E+02  1.201374120E+02  3.300000131E-01  0.00000E+00  9.000E+00
      21     1     1     2   512   515  2.199174123E+00  1.051285363E+00  2.786329739E-02  2.437692372E+00  4.630813619E-08  0.00000E+00  9.000E+00
</event>
<event>
      5  10001  3.52971E+09  9.48164E+00 -1.00000E+00  1.98463E-01
      21    -1     0     0   513   511  0.000000000E+00  0.000000000E+00  4.497465067E+02  4.497465067E+02  0.000000000E+00  0.00000E+00  9.000E+00
      -1    -1     0     0     0   513  0.000000000E+00  0.000000000E+00 -5.241716844E+01  5.241716844E+01  0.000000000E+00  0.00000E+00  9.000E+00
      -1     1     1     2     0   515 -6.389687158E+00 -3.549321959E+00 -3.293715417E+01  3.374004761E+01  3.300000131E-01  0.00000E+00  9.000E+00
      21     1     1     2   515   512  6.799048714E+00  1.302210062E+01 -1.619294282E+01  2.186352134E+01  3.371747881E-07  0.00000E+00  9.000E+00
      21     1     1     2   512   511 -4.093615557E-01 -9.472778666E+00  4.464594352E+02  4.465601062E+02  7.629394531E-06  0.00000E+00  9.000E+00
</event>
<event>
      5  10001  3.52971E+09  7.41876E+00 -1.00000E+00  2.12043E-01
      21    -1     0     0   514   515  0.000000000E+00  0.000000000E+00  1.151516440E+01  1.151516440E+01  0.000000000E+00  0.00000E+00  9.000E+00
      21    -1     0     0   513   514  0.000000000E+00  0.000000000E+00 -1.091901106E+02  1.091901106E+02  0.000000000E+00  0.00000E+00  9.000E+00
      21     1     1     2   511   516 -9.287180368E+00 -9.214213499E+00 -6.349396463E+01  6.482774864E+01  9.536743164E-07  0.00000E+00  9.000E+00
      21     1     1     2   516   515  1.416680708E+01  3.626083090E+00  5.413995608E+00  1.559353231E+01  4.500051996E-07  0.00000E+00  9.000E+00
      21     1     1     2   513   511 -4.879626716E+00  5.588130409E+00 -3.959497719E+01  4.028399405E+01  6.743495762E-07  0.00000E+00  9.000E+00
</event>
<event>
      5  10001  3.52971E+09  4.14882E+00 -1.00000E+00  2.59779E-01
      21    -1     0     0   512   516  0.000000000E+00  0.000000000E+00  1.026789937E+03  1.026789937E+03  0.000000000E+00  0.00000E+00  9.000E+00
      21    -1     0     0   513   511  0.000000000E+00  0.000000000E+00 -1.649720799E-01  1.649720799E-01  0.000000000E+00  0.00000E+00  9.000E+00
      21     1     1     2   512   511 -3.390339058E+00 -1.041938776E+01  7.374731056E+02  7.375544994E+02  1.078959322E-05  0.00000E+00  9.000E+00
       1     1     1     2   513     0  1.081644672E+00  5.220118716E+00  8.413239573E+01  8.430177048E+01  3.300000131E-01  0.00000E+00  9.000E+00
      -1     1     1     2     0   516  2.308694387E+00  5.199269044E+00  2.050194632E+02  2.050986389E+02  3.300000131E-01  0.00000E+00  9.000E+00
</event>
<event>
      5  10001  3.52971E+09  1.47571E+01 -1.00000E+00  1.78050E-01
      21    -1     0     0   514   511  0.000000000E+00  0.000000000E+00  1.021799364E+03  1.021799364E+03  0.000000000E+00  0.00000E+00  9.000E+00
      21    -1     0     0   516   515  0.000000000E+00  0.000000000E+00 -4.023872871E-01  4.023872871E-01  0.000000000E+00  0.00000E+00  9.000E+00
      21     1     1     2   514   515  1.260108749E+01 -2.625808273E+00  1.288381718E+02  1.294795613E+02  2.697398305E-06  0.00000E+00  9.000E+00
      21     1     1     2   512   511 -4.467830665E+00  5.960579711E+00  2.751715478E+02  2.752723574E+02  0.000000000E+00  0.00000E+00  9.000E+00
      21     1     1     2   516   512 -8.133256828E+00 -3.334771439E+00  6.173872575E+02  6.174498330E+02  7.629394531E-06  0.00000E+00  9.000E+00
</event>
<event>
      5  10001  3.52971E+09  9.41912E+00 -1.00000E+00  1.98805E-01
      21    -1     0     0   513   512  0.000000000E+00  0.000000000E+00  3.524182233E+02  3.524182233E+02  0.000000000E+00  0.00000E+00  9.000E+00
      21    -1     0     0   516   517  0.000000000E+00  0.000000000E+00 -1.210461876E+00  1.210461876E+00  0.000000000E+00  0.00000E+00  9.000E+00
      21     1     1     2   513   517  1.732479055E+01 -1.762365031E+00  2.412358979E+02  2.418636243E+02  2.697398305E-06  0.00000E+00  9.000E+00
      21     1     1     2   516   511 -7.495972953E+00  5.009989635E+00  3.814094962E+01  3.919211202E+01  0.000000000E+00  0.00000E+00  9.000E+00
      21     1     1     2   511   512 -9.828817598E+00 -3.247624604E+00  7.183091385E+01  7.257294885E+01  1.651812370E-06  0.00000E+00  9.000E+00
</event>
<event>
      5  10001  3.52971E+09  5.11579E+00 -1.00000E+00  2.36785E-01
      21    -1     0     0   514   513  0.000000000E+00  0.000000000E+00  8.837647926E+01  8.837647926E+01  0.000000000E+00  0.00000E+00  9.000E+00
      -2    -1     0     0     0   514  0.000000000E+00  0.000000000E+00 -1.250059942E+01  1.250059942E+01  0.000000000E+00  0.00000E+00  9.000E+00
      -2     1     1     2     0   511  1.310200769E+01  1.480549491E+01  5.113703794E-01  1.977967858E+01  3.300000131E-01  0.00000E+00  9.000E+00
      21     1     1     2   511   512 -1.572281411E+01 -1.919880838E+01  6.137589867E+01  6.620273457E+01  0.000000000E+00  0.00000E+00  9.000E+00
      21     1     1     2   512   513  2.620806418E+00  4.393313468E+00  1.398861079E+01  1.489466553E+01  2.384185791E-07  0.00000E+00  9.000E+00
</event>
<event>
      5  10001  3.52971E+09  7.78203E+00 -1.00000E+00  2.09246E-01
      21    -1     0     0   515   511  0.000000000E+00  0.000000000E+00  3.354270457E+01  3.354270457E+01  0.000000000E+00  0.00000E+00  9.000E+00
      21    -1     0     0   516   513  0.000000000E+00  0.000000000E+00 -6.918160680E+00  6.918160680E+00  0.000000000E+00  0.00000E+00  9.000E+00
      21     1     1     2   515   513 -1.088021660E+01  5.266789055E-01  1.180459678E+00  1.095673258E+01  1.299053116E-07  0.00000E+00  9.000E+00
      21     1     1     2   514   511  5.156404264E+00  1.550980460E+00  2.169516031E+01  2.235338959E+01  5.331201500E-07  0.00000E+00  9.000E+00
      21     1     1     2   516   514  5.723812333E+00 -2.077659366E+00  3.748923896E+00  7.150743069E+00  4.214684851E-08  0.00000E+00  9.000E+00
</event>
<event>
      5  10001  3.52971E+09  9.09334E+00 -1.00000E+00  2.00648E-01
      21    -1     0     0   511   513  0.000000000E+00  0.000000000E+00  5.762726410E+02  5.762726410E+02  0.000000000E+00  0.00000E+00  9.000E+00
      21    -1     0     0   516   517  0.000000000E+00  0.000000000E+00 -1.068176913E+01  1.068176913E+01  0.000000000E+00  0.00000E+00  9.000E+00
      21     1     1     2   512   517 -3.953782895E+00  1.224513093E+01  1.413834362E+01  1.911722760E+01  2.920019320E-07  0.00000E+00  9.000E+00
      21     1     1     2   516   513  8.425494808E+00 -4.327259261E+00 -5.404996225E+00  1.090541699E+01  2.064765462E-07  0.00000E+00  9.000E+00
      21     1     1     2   511   512 -4.471711913E+00 -7.917871669E+00  5.568575245E+02  5.569317656E+02  0.000000000E+00  0.00000E+00  9.000E+00
</event>
<event>
      5  10001  3.52971E+09  5.57237E+00 -1.00000E+00  2.30571E-01
       4    -1     0     0   513     0  0.000000000E+00  0.000000000E+00  2.813792071E+02  2.813792071E+02  0.000000000E+00  0.00000E+00  9.000E+00
      21    -1     0     0   511   514  0.000000000E+00  0.000000000E+00 -8.124925503E+00  8.124925503E+00  0.000000000E+00  0.00000E+00  9.000E+00
      21     1     1     2   515   514 -7.079676790E+00 -9.465368825E+00 -1.864904316E+00  1.196632352E+01  2.502330486E-07  0.00000E+00  9.000E+00
       4     1     1     2   511     0  8.479888171E+00  4.078453670E+00  1.806975945E+01  2.042812998E+01  1.500000000E+00  0.00000E+00  9.000E+00
      21     1     1     2   513   515 -1.400211381E+00  5.386915155E+00  2.570494265E+02  2.571096791E+02  5.394796609E-06  0.00000E+00  9.000E+00
</event>
<event>
      5  10001  3.52971E+09  7.74098E+00 -1.00000E+00  2.09552E-01
       5    -1     0     0   511     0  0.000000000E+00  0.000000000E+00  1.138789915E+01  1.138789915E+01  0.000000000E+00  0.00000E+00  9.000E+00
      21    -1     0     0   512   514  0.000000000E+00  0.000000000E+00 -4.632833079E+01  4.632833079E+01  0.000000000E+00  0.00000E+00  9.000E+00
      21     1     1     2   511   513  7.855460158E+00 -1.048039193E+00  9.733251198E-01  7.984610337E+00  2.286733576E-07  0.00000E+00  9.000E+00
       5     1     1     2   512     0 -1.467278161E+01  4.477028787E+00 -3.524971125E+00  1.645599375E+01  4.800000191E+00  0.00000E+00  9.000E+00
      21     1     1     2   513   514  6.817321453E+00 -3.428989593E+00 -3.238878564E+01  3.327562586E+01  0.000000000E+00  0.00000E+00  9.000E+00
</event>
<event>
      5  10001  3.52971E+09  1.50315E+01 -1.00000E+00  1.77294E-01
      21    -1     0     0   515   512  0.000000000E+00  0.000000000E+00  2.184711745E+01  2.184711745E+01  0.000000000E+00  0.00000E+00  9.000E+00
      21    -1     0     0   513   516  0.000000000E+00  0.000000000E+00 -3.808314377E+02  3.808314377E+02  0.000000000E+00  0.00000E+00  9.000E+00
      21     1     1     2   515   516  1.377333967E+01  9.728840177E-01 -3.731483273E+02  3.734037032E+02  0.000000000E+00  0.00000E+00  9.000E+00
      21     1     1     2   513   511 -1.934430460E+01  1.325142278E-01  8.116563271E+00  2.097851949E+01  1.420542632E-06  0.00000E+00  9.000E+00
      21     1     1     2   511   512  5.570964930E+00 -1.105398245E+00  6.047443808E+00  8.296332452E+00  5.331201500E-07  0.00000E+00  9.000E+00
</event>
<event>
      5  10001  3.52971E+09  1.85080E+01 -1.00000E+00  1.69192E-01
      -3    -1     0     0     0   512  0.000000000E+00  0.000000000E+00  5.268097212E+01  5.268097212E+01  0.000000000E+00  0.00000E+00  9.000E+00
      21    -1     0     0   511   514  0.000000000E+00  0.000000000E+00 -2.159019809E+01  2.159019809E+01  0.000000000E+00  0.00000E+00  9.000E+00
      -3     1     1     2     0   513  4.529093701E+00  1.205948753E+01  1.990274458E+01  2.371314342E+01  5.000000000E-01  0.00000E+00  9.000E+00
      21     1     1     2   511   512 -4.454033771E+00 -9.072501821E+00 -1.830723648E+01  2.091180561E+01  2.384185791E-07  0.00000E+00  9.000E+00
      21     1     1     2   513   514 -7.505992995E-02 -2.986985707E+00  2.949526593E+01  2.964622117E+01  0.000000000E+00  0.00000E+00  9.000E+00
</event>
<event>
      5  10001  3.52971E+09  6.72920E+00 -1.00000E+00  2.17998E-01
       2    -1     0     0   511     0  0.000000000E+00  0.000000000E+00  1.087056401E+02  1.087056401E+02  0.000000000E+00  0.00000E+00  9.000E+00
      21    -1     0     0   515   514  0.000000000E+00  0.000000000E+00 -8.469220665E+00  8.469220665E+00  0.000000000E+00  0.00000E+00  9.000E+00
      21     1     1     2   512   514  3.741589823E+00  1.256220611E+01  5.421099074E+01  5.577311210E+01  0.000000000E+00  0.00000E+00  9.000E+00
       2     1     1     2   515     0 -4.738256213E+00 -1.583179980E+01  1.337150424E+00  1.658293786E+01  3.300000131E-01  0.00000E+00  9.000E+00
      21     1     1     2   511   512  9.966663898E-01  3.269593692E+00  4.468827825E+01  4.481881078E+01  4.768371582E-07  0.00000E+00  9.000E+00
</event>
<event>
      5  10001  3.52971E+09  1.35020E+01 -1.00000E+00  1.81795E-01
       1    -1     0     0   512     0  0.000000000E+00  0.000000000E+00  7.466703192E+01  7.466703192E+01  0.000000000E+00  0.00000E+00  9.000E+00
      21    -1     0     0   513   512  0.000000000E+00  0.000000000E+00 -1.453555410E+01  1.453555410E+01  0.000000000E+00  0.00000E+00  9.000E+00
      21     1     1     2   513   514  2.326351589E+00  8.855045284E+00 -3.421349105E+00  9.773912645E+00  2.980232239E-07  0.00000E+00  9.000E+00
       1     1     1     2   511     0 -1.246649962E+01 -7.364831580E+00  6.705229463E+01  6.859864045E+01  3.300000131E-01  0.00000E+00  9.000E+00
      21     1     1     2   514   511  1.014014803E+01 -1.490213704E+00 -3.499467693E+00  1.083003292E+01  4.020553101E-07  0.00000E+00  9.000E+00
</event>
<event>
      5  10001  3.52971E+09  2.74272E+01 -1.00000E+00  1.55792E-01
      21    -1     0     0   515   511  0.000000000E+00  0.000000000E+00  8.404321927E+01  8.404321927E+01  0.000000000E+00  0.00000E+00  9.000E+00
      21    -1     0     0   513   516  0.000000000E+00  0.000000000E+00 -3.227160098E+01  3.227160098E+01  0.000000000E+00  0.00000E+00  9.000E+00
      21     1     1     2   515   516  1.534010742E+01  2.602314981E+01 -1.365377945E+01  3.315039841E+01  4.129530925E-07  0.00000E+00  9.000E+00
      21     1     1     2   512   511  2.257357309E+00 -3.037046445E+01  5.320139557E+01  6.130129904E+01  6.743495762E-07  0.00000E+00  9.000E+00
      21     1     1     2   513   512 -1.759746473E+01  4.347314639E+00  1.222400217E+01  2.186312280E+01  4.129530925E-07  0.00000E+00  9.000E+00
</event>
<event>
      5  10001  3.52971E+09  5.30942E+00 -1.00000E+00  2.34042E-01
      21    -1     0     0   514   512  0.000000000E+00  0.000000000E+00  8.562830981E+01  8.562830981E+01  0.000000000E+00  0.00000E+00  9.000E+00
      21    -1     0     0   513   511  0.000000000E+00  0.000000000E+00 -2.709633963E+01  2.709633963E+01  0.000000000E+00  0.00000E+00  9.000E+00
      21     1     1     2   513   517 -1.525925407E+01  8.795665059E+00  1.056459181E+01  2.053823650E+01  5.462855929E-07  0.00000E+00  9.000E+00
      21     1     1     2   517   512  1.646297558E+01 -3.624498070E+00  6.872412370E+01  7.076137174E+01  9.536743164E-07  0.00000E+00  9.000E+00
      21     1     1     2   514   511 -1.203721507E+00 -5.171166989E+00 -2.075674534E+01  2.142504120E+01  2.384185791E-07  0.00000E+00  9.000E+00
</event>
<event>
      5  10001  3.52971E+09  6.64223E+00 -1.00000E+00  2.18819E-01
      -3    -1     0     0     0   515  0.000000000E+00  0.000000000E+00  9.676448880E+01  9.676448880E+01  0.000000000E+00  0.00000E+00  9.000E+00
      21    -1     0     0   512   511  0.000000000E+00  0.000000000E+00 -4.911296573E+00  4.911296573E+00  0.000000000E+00  0.00000E+00  9.000E+00
      -3     1     1     2     0   513 -7.053197693E+00 -1.253845421E+00  6.945203567E+01  6.982231008E+01  5.000000000E-01  0.00000E+00  9.000E+00
      21     1     1     2   512   515  9.856778326E+00 -4.045275805E+00  2.330368271E+00  1.090646375E+01  1.861154437E-07  0.00000E+00  9.000E+00
      21     1     1     2   513   511 -2.803580633E+00  5.299121227E+00  2.007078829E+01  2.094701155E+01  4.129530925E-07  0.00000E+00  9.000E+00
</event>
<event>
      5  10001  3.52971E+09  2.99775E+01 -1.00000E+00  1.53060E-01
      21    -1     0     0   514   512  0.000000000E+00  0.000000000E+00  1.881643683E+02  1.881643683E+02  0.000000000E+00  0.00000E+00  9.000E+00
      21    -1     0     0   516   514  0.000000000E+00  0.000000000E+00 -1.016161716E+02  1.016161716E+02  0.000000000E+00  0.00000E+00  9.000E+00
      21     1     1     2   511   512 -5.427273657E-01 -1.235845931E+01  1.836965790E+02  1.841126264E+02  0.000000000E+00  0.00000E+00  9.000E+00
      21     1     1     2   516   515 -1.702525818E+01  1.572037307E+01 -6.284544773E+01  6.698163812E+01  2.336015456E-06  0.00000E+00  9.000E+00
      21     1     1     2   515   511  1.756798554E+01 -3.361913752E+00 -3.430293462E+01  3.868627539E+01  1.430511475E-06  0.00000E+00  9.000E+00
</event>
<event>
      5  10001  3.52971E+09  3.88608E+00 -1.00000E+00  2.66454E-01
      21    -1     0     0   513   516  0.000000000E+00  0.000000000E+00  4.771102974E+00  4.771102974E+00  0.000000000E+00  0.00000E+00  9.000E+00
      21    -1     0     0   512   511  0.000000000E+00  0.000000000E+00 -1.504256022E+02  1.504256022E+02  0.000000000E+00  0.00000E+00  9.000E+00
      21     1     1     2   513   511  1.376458244E+01 -1.038829610E+01 -1.346968909E+01  2.188179494E+01  4.460403188E-07  0.00000E+00  9.000E+00
      21     1     1     2   514   516 -2.427701105E+00  1.107821976E+00 -1.961620123E+01  1.979687735E+01  3.371747881E-07  0.00000E+00  9.000E+00
      21     1     1     2   512   514 -1.133688133E+01  9.280474125E+00 -1.125686089E+02  1.135180329E+02  1.348699152E-06  0.00000E+00  9.000E+00
</event>
<event>
      5  10001  3.52971E+09  2.79650E+00 -1.00000E+00  3.06432E-01
       2    -1     0     0   515     0  0.000000000E+00  0.000000000E+00  9.595067214E+02  9.595067214E+02  0.000000000E+00  0.00000E+00  9.000E+00
      21    -1     0     0   512   517  0.000000000E+00  0.000000000E+00 -1.967577803E+00  1.967577803E+00  0.000000000E+00  0.00000E+00  9.000E+00
      21     1     1     2   515   517 -8.935198871E+00  3.830495871E+00  1.730676406E+01  1.985030377E+01  4.129530925E-07  0.00000E+00  9.000E+00
      21     1     1     2   512   511  1.106335209E+01 -2.016348364E+00  4.488906088E+01  4.627624884E+01  4.768371582E-07  0.00000E+00  9.000E+00
       2     1     1     2   511     0 -2.128153216E+00 -1.814147507E+00  8.953433186E+02  8.953477466E+02  3.300000131E-01  0.00000E+00  9.000E+00
</event>
<event>
      5  10001  3.52971E+09  5.67736E+00 -1.00000E+00  2.29259E-01
      21    -1     0     0   513   512  0.000000000E+00  0.000000000E+00  5.469162445E+01  5.469162445E+01  0.000000000E+00  0.00000E+00  9.000E+00
      -3    -1     0     0     0   514  0.000000000E+00  0.000000000E+00 -5.735800778E+01  5.735800778E+01  0.000000000E+00  0.00000E+00  9.000E+00
      21     1     1     2   513   514 -1.328138598E+01 -4.930689868E+00  4.451194561E+01  4.671209927E+01  4.768371582E-07  0.00000E+00  9.000E+00
      21     1     1     2   516   512  1.005970465E+01  9.605273854E+00  3.497731026E+00  1.434200355E+01  1.837138534E-07  0.00000E+00  9.000E+00
      -3     1     1     2     0   516  3.221681328E+00 -4.674583986E+00 -5.067605997E+01  5.099552941E+01  5.000000000E-01  0.00000E+00  9.000E+00
</event>
<event>
      5  10001  3.52971E+09  2.87481E+01 -1.00000E+00  1.54334E-01
      21    -1     0     0   515   512  0.000000000E+00  0.000000000E+00  7.347311959E+01  7.347311959E+01  0.000000000E+00  0.00000E+00  9.000E+00
      21    -1     0     0   511   515  0.000000000E+00  0.000000000E+00 -1.376277699E+01  1.376277699E+01  0.000000000E+00  0.00000E+00  9.000E+00
      21     1     1     2   513   512  2.644647790E+00 -5.765751914E+00  6.847548045E+01  6.876866641E+01  9.536743164E-07  0.00000E+00  9.000E+00
       5     1     1     2   511     0  3.069800864E+00  6.623458125E+00 -4.954630770E+00  1.004401527E+01  4.800000191E+00  0.00000E+00  9.000E+00
      -5     1     1     2     0   513 -5.714448653E+00 -8.577062110E-01 -3.810507071E+00  8.423214904E+00  4.800000191E+00  0.00000E+00  9.000E+00
</event>
<event>
      5  10001  3.52971E+09  7.25166E+00 -1.00000E+00  2.13403E-01
       2    -1     0     0   511     0  0.000000000E+00  0.000000000E+00  1.759482600E+02  1.759482600E+02  0.000000000E+00  0.00000E+00  9.000E+00
      21    -1     0     0   514   512  0.000000000E+00  0.000000000E+00 -6.006307475E+01  6.006307475E+01  0.000000000E+00  0.00000E+00  9.000E+00
      21     1     1     2   511   515 -7.103755123E+00  1.875178312E+01  2.923409243E+01  3.545031547E+01  9.536743164E-07  0.00000E+00  9.000E+00
       2     1     1     2   514     0  5.781112550E-01 -2.191441810E+01  1.425336055E+02  1.442099633E+02  3.300000131E-01  0.00000E+00  9.000E+00
      21     1     1     2   515   512  6.525643868E+00  3.162634977E+00 -5.588251265E+01  5.635105596E+01  9.536743164E-07  0.00000E+00  9.000E+00
</event>
<event>
      5  10001  3.52971E+09  4.59800E+01 -1.00000E+00  1.41182E-01
      21    -1     0     0   514   515  0.000000000E+00  0.000000000E+00  1.846693609E+01  1.846693609E+01  0.000000000E+00  0.00000E+00  9.000E+00
       1    -1     0     0   511     0  0.000000000E+00  0.000000000E+00 -3.262472494E+02  3.262472494E+02  0.000000000E+00  0.00000E+00  9.000E+00
      21     1     1     2   514   513 -7.144424639E+00 -1.222393845E+01  7.974735006E+00  1.625004225E+01  1.685873940E-07  0.00000E+00  9.000E+00
       1     1     1     2   513     0  1.309943044E+01 -3.336854814E+01 -2.115474669E+02  2.145634982E+02  3.300000131E-01  0.00000E+00  9.000E+00
      21     1     1     2   511   515 -5.955005804E+00  4.559248659E+01 -1.042075814E+02  1.139006451E+02  0.000000000E+00  0.00000E+00  9.000E+00
</event>
<event>
      5  10001  3.52971E+09  6.49150E+00 -1.00000E+00  2.20283E-01
      21    -1     0     0   512   513  0.000000000E+00  0.000000000E+00  4.624073409E+01  4.624073409E+01  0.000000000E+00  0.00000E+00  9.000E+00
      21    -1     0     0   511   512  0.000000000E+00  0.000000000E+00 -2.821086829E+01  2.821086829E+01  0.000000000E+00  0.00000E+00  9.000E+00
      21     1     1     2   511   515 -9.739882649E+00 -1.570047407E+01 -2.174909080E+01  2.853757437E+01  3.371747881E-07  0.00000E+00  9.000E+00
      21     1     1     2   514   513  4.347515525E+00  1.648482639E+01  3.358474097E+01  3.766411048E+01  4.768371582E-07  0.00000E+00  9.000E+00
      21     1     1     2   515   514  5.392367124E+00 -7.843523174E-01  6.194215641E+00  8.249917525E+00  1.460009660E-07  0.00000E+00  9.000E+00
</event>
<event>
      5  10001  3.52971E+09  6.90573E+00 -1.00000E+00  2.16384E-01
      -2    -1     0     0     0   516  0.000000000E+00  0.000000000E+00  6.323313045E+00  6.323313045E+00  0.000000000E+00  0.00000E+00  9.000E+00
      21    -1     0     0   513   512  0.000000000E+00  0.000000000E+00 -8.642118213E+01  8.642118213E+01  0.000000000E+00  0.00000E+00  9.000E+00
      -2     1     1     2     0   512 -1.289145169E+01 -1.069749616E+01 -9.389030779E+00  1.920647677E+01  3.300000131E-01  0.00000E+00  9.000E+00
      21     1     1     2   513   511  7.231414107E+00  1.228729393E+01 -5.265389434E+01  5.455000945E+01  0.000000000E+00  0.00000E+00  9.000E+00
      21     1     1     2   511   516  5.660037587E+00 -1.589797768E+00 -1.805494397E+01  1.898800896E+01  4.768371582E-07  0.00000E+00  9.000E+00
</event>
<event>
      5  10001  3.52971E+09  8.25047E+00 -1.00000E+00  2.05930E-01
      21    -1     0     0   514   513  0.000000000E+00  0.000000000E+00  4.397334038E+00  4.397334038E+00  0.000000000E+00  0.00000E+00  9.000E+00
      21    -1     0     0   511   514  0.000000000E+00  0.000000000E+00 -3.934719878E+01  3.934719878E+01  0.000000000E+00  0.00000E+00  9.000E+00
      -2     1     1     2     0   513 -7.885763499E+00 -5.726823898E+00 -5.171695239E+00  1.103798485E+01  3.300000131E-01  0.00000E+00  9.000E+00
       2     1     1     2   512     0  7.452748260E+00 -2.984318598E-01 -1.734292666E+01  1.888169810E+01  3.300000131E-01  0.00000E+00  9.000E+00
      21     1     1     2   511   512  4.330152386E-01  6.025255758E+00 -1.243524284E+01  1.382484986E+01  1.685873940E-07  0.00000E+00  9.000E+00
</event>
<event>
      5  10001  3.52971E+09  5.44804E+00 -1.00000E+00  2.32177E-01
      21    -1     0     0   511   513  0.000000000E+00  0.000000000E+00  2.341566040E+01  2.341566040E+01  0.000000000E+00  0.00000E+00  9.000E+00
      -2    -1     0     0     0   515  0.000000000E+00  0.000000000E+00 -1.835282277E+02  1.835282277E+02  0.000000000E+00  0.00000E+00  9.000E+00
      -2     1     1     2     0   512 -9.407732357E+00 -1.022627450E+01 -1.746600484E+02  1.752122243E+02  3.300000131E-01  0.00000E+00  9.000E+00
      21     1     1     2   511   515  4.094555787E+00  9.021727264E+00 -5.240071816E+00  1.120782327E+01  2.731427965E-07  0.00000E+00  9.000E+00
      21     1     1     2   512   513  5.313176570E+00  1.204547237E+00  1.978755294E+01  2.052384055E+01  5.331201500E-07  0.00000E+00  9.000E+00
</event>
<event>
      5  10001  3.52971E+09  9.19409E+00 -1.00000E+00  2.00067E-01
      21    -1     0     0   514   512  0.000000000E+00  0.000000000E+00  3.769109003E+02  3.769109003E+02  0.000000000E+00  0.00000E+00  9.000E+00
      21    -1     0     0   513   514  0.000000000E+00  0.000000000E+00 -4.324411446E+01  4.324411446E+01  0.000000000E+00  0.00000E+00  9.000E+00
      21     1     1     2   513   516 -2.582044022E+00  1.118351088E+01 -4.233623102E+01  4.386449958E+01  9.536743164E-07  0.00000E+00  9.000E+00
      21     1     1     2   516   511  4.746791870E+00 -8.605863779E+00  1.874648117E+02  1.877222643E+02  0.000000000E+00  0.00000E+00  9.000E+00
      21     1     1     2   511   512 -2.164747847E+00 -2.577647101E+00  1.885382052E+02  1.885682509E+02  3.814697266E-06  0.00000E+00  9.000E+00
</event>
<event>
      5  10001  3.52971E+09  1.23715E+01 -1.00000E+00  1.85642E-01
      21    -1     0     0   515   514  0.000000000E+00  0.000000000E+00  1.131576085E+02  1.131576085E+02  0.000000000E+00  0.00000E+00  9.000E+00
      21    -1     0     0   513   512  0.000000000E+00  0.000000000E+00 -2.441806536E+01  2.441806536E+01  0.000000000E+00  0.00000E+00  9.000E+00
      21     1     1     2   515   512 -2.669599086E+00  1.440175132E+01 -1.829875186E+01  2.343888905E+01  4.129530925E-07  0.00000E+00  9.000E+00
      21     1     1     2   513   516  8.963551402E+00 -2.505260429E+01  8.199829548E+01  8.620730072E+01  9.536743164E-07  0.00000E+00  9.000E+00
      21     1     1     2   516   514 -6.293952316E+00  1.065085297E+01  2.503999951E+01  2.792948406E+01  0.000000000E+00  0.00000E+00  9.000E+00
</event>
<event>
      5  10001  3.52971E+09  2.72569E+00 -1.00000E+00  3.10093E-01
      21    -1     0     0   511   513  0.000000000E+00  0.000000000E+00  4.565249056E+00  4.565249056E+00  0.000000000E+00  0.00000E+00  9.000E+00
      21    -1     0     0   517   514  0.000000000E+00  0.000000000E+00 -1.135642816E+02  1.135642816E+02  0.000000000E+00  0.00000E+00  9.000E+00
      21     1     1     2   511   514  4.792237596E+00  1.035979897E+01 -1.523231857E+01  1.903456081E+01  2.384185791E-07  0.00000E+00  9.000E+00
      21     1     1     2   517   512 -3.136490395E+00 -8.194642502E+00 -9.547555621E+01  9.587789928E+01  1.348699152E-06  0.00000E+00  9.000E+00
      21     1     1     2   512   513 -1.655747201E+00 -2.165156473E+00  1.708842226E+00  3.217070577E+00  5.960464478E-08  0.00000E+00  9.000E+00
</event>
<event>
      5  10001  3.52971E+09  5.19030E+00 -1.00000E+00  2.35709E-01
      21    -1     0     0   515   514  0.000000000E+00  0.000000000E+00  1.895053943E+02  1.895053943E+02  0.000000000E+00  0.00000E+00  9.000E+00
      21    -1     0     0   516   511  0.000000000E+00  0.000000000E+00 -3.278713595E+00  3.278713595E+00  0.000000000E+00  0.00000E+00  9.000E+00
      21     1     1     2   515   513  1.328102468E+00 -1.127057941E+01  1.096288604E+02  1.102146853E+02  1.348699152E-06  0.00000E+00  9.000E+00
      21     1     1     2   516   514  3.729661586E+00  1.243601933E+01  7.627175138E+01  7.736888917E+01  1.907348633E-06  0.00000E+00  9.000E+00
      21     1     1     2   513   511 -5.057764055E+00 -1.165439924E+00  3.260689399E-01  5.200533473E+00  2.979533665E-07  0.00000E+00  9.000E+00
</event>
<event>
      5  10001  3.52971E+09  4.35536E+00 -1.00000E+00  2.55046E-01
      21    -1     0     0   513   515  0.000000000E+00  0.000000000E+00  1.586494619E+00  1.586494619E+00  0.000000000E+00  0.00000E+00  9.000E+00
       1    -1     0     0   514     0  0.000000000E+00  0.000000000E+00 -1.503784177E+03  1.503784177E+03  0.000000000E+00  0.00000E+00  9.000E+00
      21     1     1     2   513   512 -4.128504940E+00  7.910763418E+00 -3.007541393E+02  3.008864853E+02  7.629394531E-06  0.00000E+00  9.000E+00
       1     1     1     2   512     0  8.290899851E+00 -9.192589634E+00 -1.199745767E+03  1.199809676E+03  3.300000131E-01  0.00000E+00  9.000E+00
      21     1     1     2   514   515 -4.162394910E+00  1.281826217E+00 -1.697776192E+00  4.674511080E+00  5.575503985E-07  0.00000E+00  9.000E+00
</event>
<event>
      5  10001  3.52971E+09  5.72116E+00 -1.00000E+00  2.28724E-01
       1    -1     0     0   513     0  0.000000000E+00  0.000000000E+00  2.390098433E+02  2.390098433E+02  0.000000000E+00  0.00000E+00  9.000E+00
      21    -1     0     0   512   516  0.000000000E+00  0.000000000E+00 -9.173220049E+00  9.173220049E+00  0.000000000E+00  0.00000E+00  9.000E+00
      21     1     1     2   512   511 -1.869693336E+00 -1.433389865E+01  5.499671555E+01  5.686470896E+01  1.651812370E-06  0.00000E+00  9.000E+00
       1     1     1     2   511     0  3.878978631E+00  8.977281871E+00  1.819384242E+02  1.822013643E+02  3.300000131E-01  0.00000E+00  9.000E+00
      21     1     1     2   513   516 -2.009285295E+00  5.356616778E+00 -7.098516514E+00  9.116990041E+00  4.915124924E-07  0.00000E+00  9.000E+00
</event>
<event>
      5  10001  3.52971E+09  1.14752E+01 -1.00000E+00  1.89089E-01
      21    -1     0     0   514   515  0.000000000E+00  0.000000000E+00  1.280335724E+02  1.280335724E+02  0.000000000E+00  0.00000E+00  9.000E+00
       2    -1     0     0   511     0  0.000000000E+00  0.000000000E+00 -3.283449574E+01  3.283449574E+01  0.000000000E+00  0.00000E+00  9.000E+00
      21     1     1     2   511   515  1.891880651E+00  1.004171580E+01  1.220472350E+02  1.224742538E+02  0.000000000E+00  0.00000E+00  9.000E+00
       2     1     1     2   512     0 -8.708089142E+00 -3.496358796E+00 -2.736361592E+01  2.892977217E+01  3.300000131E-01  0.00000E+00  9.000E+00
      21     1     1     2   514   512  6.816208491E+00 -6.545357007E+00  5.154574953E-01  9.464042106E+00  1.798971961E-07  0.00000E+00  9.000E+00
</event>
<event>
      5  10001  3.52971E+09  7.69701E+00 -1.00000E+00  2.09882E-01
      21    -1     0     0   511   512  0.000000000E+00  0.000000000E+00  9.244172172E+00  9.244172172E+00  0.000000000E+00  0.00000E+00  9.000E+00
      -2    -1     0     0     0   513  0.000000000E+00  0.000000000E+00 -1.032048700E+02  1.032048700E+02  0.000000000E+00  0.00000E+00  9.000E+00
      -2     1     1     2     0   512 -8.129706362E+00 -5.300572845E+00 -8.888738911E+01  8.941624595E+01  3.300000131E-01  0.00000E+00  9.000E+00
      21     1     1     2   515   513  1.215201397E+01  4.282231869E+00  3.634261350E+00  1.338718824E+01  5.638864019E-07  0.00000E+00  9.000E+00
      21     1     1     2   511   515 -4.022307611E+00  1.018340976E+00 -8.707570116E+00  9.645608025E+00  1.685873940E-07  0.00000E+00  9.000E+00
</event>
<event>
      5  10001  3.52971E+09  4.86230E+00 -1.00000E+00  2.44964E-01
      21    -1     0     0   515   513  0.000000000E+00  0.000000000E+00  1.683615141E+00  1.683615141E+00  0.000000000E+00  0.00000E+00  9.000E+00
       2    -1     0     0   512     0  0.000000000E+00  0.000000000E+00 -4.791350096E+02  4.791350096E+02  0.000000000E+00  0.00000E+00  9.000E+00
      21     1     1     2   515   514 -1.412870626E+01  8.437556207E+00 -1.219707929E+02  1.230759400E+02  2.697398305E-06  0.00000E+00  9.000E+00
       2     1     1     2   514     0  1.809818139E+01 -5.629812310E+00 -3.495947753E+02  3.501083472E+02  3.300000131E-01  0.00000E+00  9.000E+00
      21     1     1     2   512   513 -3.969475133E+00 -2.807743897E+00 -5.885826299E+00  7.634337551E+00  2.795705652E-07  0.00000E+00  9.000E+00
</event>
<event>
      5  10001  3.52971E+09  5.29709E+00 -1.00000E+00  2.34211E-01
      21    -1     0     0   511   514  0.000000000E+00  0.000000000E+00  1.039430969E+01  1.039430969E+01  0.000000000E+00  0.00000E+00  9.000E+00
      21    -1     0     0   512   513  0.000000000E+00  0.000000000E+00 -9.011921226E+01  9.011921226E+01  0.000000000E+00  0.00000E+00  9.000E+00
      21     1     1     2   511   513  4.846952011E-01 -1.116217856E+01  6.335631891E+00  1.284404107E+01  3.153981341E-07  0.00000E+00  9.000E+00
      21     1     1     2   512   515  9.198000911E-01  6.579925906E+00 -7.806750271E+01  7.834970604E+01  9.536743164E-07  0.00000E+00  9.000E+00
      21     1     1     2   515   514 -1.404495292E+00  4.582252654E+00 -7.993031745E+00  9.319774830E+00  8.429369702E-08  0.00000E+00  9.000E+00
</event>
<event>
      5  10001  3.52971E+09  5.12427E+00 -1.00000E+00  2.36661E-01
      21    -1     0     0   516   512  0.000000000E+00  0.000000000E+00  3.163257101E+02  3.163257101E+02  0.000000000E+00  0.00000E+00  9.000E+00
      21    -1     0     0   517   511  0.000000000E+00  0.000000000E+00 -1.246776032E+01  1.246776032E+01  0.000000000E+00  0.00000E+00  9.000E+00
      21     1     1     2   516   514 -1.301051158E+01 -3.327101215E+00  1.135237992E+01  1.758463943E+01  5.057621821E-07  0.00000E+00  9.000E+00
      21     1     1     2   517   512  8.104289260E+00  1.848215902E+00  3.010935424E+02  3.012082614E+02  5.394796609E-06  0.00000E+00  9.000E+00
      21     1     1     2   514   511  4.906222321E+00  1.478885312E+00 -8.587972601E+00  1.000056962E+01  6.529361695E-07  0.00000E+00  9.000E+00
</event>
<event>
      5  10001  3.52971E+09  3.43653E+00 -1.00000E+00  2.80032E-01
      21    -1     0     0   511   512  0.000000000E+00  0.000000000E+00  1.259334231E+02  1.259334231E+02  0.000000000E+00  0.00000E+00  9.000E+00
      21    -1     0     0   513   511  0.000000000E+00  0.000000000E+00 -3.420901099E+00  3.420901099E+00  0.000000000E+00  0.00000E+00  9.000E+00
      21     1     1     2   515   512 -1.239004243E+01  3.588709420E+00  8.695979089E+01  8.791130313E+01  0.000000000E+00  0.00000E+00  9.000E+00
       1     1     1     2   513     0  1.622380388E+01 -2.276425693E+00  2.294005312E+01  2.819129056E+01  3.300000131E-01  0.00000E+00  9.000E+00
      -1     1     1     2     0   515 -3.833761446E+00 -1.312283727E+00  1.261267803E+01  1.325173055E+01  3.300000131E-01  0.00000E+00  9.000E+00
</event>
<event>
      5  10001  3.52971E+09  2.68174E+01 -1.00000E+00  1.56499E-01
      21    -1     0     0   514   515  0.000000000E+00  0.000000000E+00  3.160647240E+01  3.160647240E+01  0.000000000E+00  0.00000E+00  9.000E+00
      21    -1     0     0   516   514  0.000000000E+00  0.000000000E+00 -8.852242329E+00  8.852242329E+00  0.000000000E+00  0.00000E+00  9.000E+00
      21     1     1     2   513   515 -6.652271996E+00 -6.223893442E+00  1.483115463E+01  1.740553705E+01  1.685873940E-07  0.00000E+00  9.000E+00
      21     1     1     2   511   513  1.523197087E+00  2.792691072E+00  1.402117324E+01  1.437750158E+01  1.685873940E-07  0.00000E+00  9.000E+00
      21     1     1     2   516   511  5.129074909E+00  3.431202370E+00 -6.098097793E+00  8.675676102E+00  1.460009660E-07  0.00000E+00  9.000E+00
</event>
<event>
      5  10001  3.52971E+09  3.46004E+00 -1.00000E+00  2.79241E-01
      21    -1     0     0   512   513  0.000000000E+00  0.000000000E+00  3.193528501E+01  3.193528501E+01  0.000000000E+00  0.00000E+00  9.000E+00
       2    -1     0     0   516     0  0.000000000E+00  0.000000000E+00 -8.345575560E+02  8.345575560E+02  0.000000000E+00  0.00000E+00  9.000E+00
      21     1     1     2   511   513  9.415621230E+00  5.236065182E+00  2.963395241E+01  3.153159427E+01  3.371747881E-07  0.00000E+00  9.000E+00
      21     1     1     2   516   511 -6.999731148E+00 -7.713022068E+00 -1.875926341E+01  2.145686159E+01  0.000000000E+00  0.00000E+00  9.000E+00
       2     1     1     2   512     0 -2.415890083E+00  2.476956886E+00 -8.134969600E+02  8.135043851E+02  3.300000131E-01  0.00000E+00  9.000E+00
</event>
<event>
      5  10001  3.52971E+09  7.85928E+00 -1.00000E+00  2.08678E-01
      21    -1     0     0   514   516  0.000000000E+00  0.000000000E+00  1.861279318E+01  1.861279318E+01  0.000000000E+00  0.00000E+00  9.000E+00
      21    -1     0     0   511   515  0.000000000E+00  0.000000000E+00 -2.387122014E+02  2.387122014E+02  0.000000000E+00  0.00000E+00  9.000E+00
      21     1     1     2   514   515  1.976966180E+00 -1.583965667E+01 -2.103827384E+02  2.109874397E+02  2.697398305E-06  0.00000E+00  9.000E+00
      21     1     1     2   513   516 -1.002901458E+00  8.040974213E+00  1.681534355E+01  1.866598126E+01  1.039242493E-06  0.00000E+00  9.000E+00
      21     1     1     2   511   513 -9.740647223E-01  7.798682459E+00 -2.653201338E+01  2.767157357E+01  0.000000000E+00  0.00000E+00  9.000E+00
</event>
<event>
      5  10001  3.52971E+09  4.11031E+00 -1.00000E+00  2.60709E-01
      21    -1     0     0   512   513  0.000000000E+00  0.000000000E+00  1.003433112E+02  1.003433112E+02  0.000000000E+00  0.00000E+00  9.000E+00
      21    -1     0     0   511   517  0.000000000E+00  0.000000000E+00 -1.102996084E+01  1.102996084E+01  0.000000000E+00  0.00000E+00  9.000E+00
      21     1     1     2   512   517 -6.730160817E+00 -1.125240331E+01  9.533529450E+01  9.623268687E+01  0.000000000E+00  0.00000E+00  9.000E+00
      21     1     1     2   511   514  3.926998760E+00  4.111053168E+00 -4.655192013E+00  7.347985444E+00  2.230201594E-07  0.00000E+00  9.000E+00
      21     1     1     2   514   513  2.803162057E+00  7.141350139E+00 -1.366752116E+00  7.792599738E+00  3.111453804E-07  0.00000E+00  9.000E+00
</event>
<event>
      5  10001  3.52971E+09  1.02299E+01 -1.00000E+00  1.94618E-01
      21    -1     0     0   515   511  0.000000000E+00  0.000000000E+00  5.816644329E-01  5.816644329E-01  0.000000000E+00  0.00000E+00  9.000E+00
      21    -1     0     0   514   515  0.000000000E+00  0.000000000E+00 -2.523252697E+02  2.523252697E+02  0.000000000E+00  0.00000E+00  9.000E+00
      -4     1     1     2     0   511 -3.627266033E+00 -9.066958650E+00 -9.722946152E+01  9.773016415E+01  1.500000000E+00  0.00000E+00  9.000E+00
       4     1     1     2   512     0  4.303894249E-01  5.537082085E+00 -2.861278287E+01  2.918537059E+01  1.500000000E+00  0.00000E+00  9.000E+00
      21     1     1     2   514   512  3.196876608E+00  3.529876565E+00 -1.259013609E+02  1.259913994E+02  1.907348633E-06  0.00000E+00  9.000E+00
</event>
<event>
      5  10001  3.52971E+09  8.89066E+01 -1.00000E+00  1.26167E-01
      21    -1     0     0   513   512  0.000000000E+00  0.000000000E+00  4.407465910E+02  4.407465910E+02  0.000000000E+00  0.00000E+00  9.000E+00
       4    -1     0     0   511     0  0.000000000E+00  0.000000000E+00 -1.051683785E+01  1.051683785E+01  0.000000000E+00  0.00000E+00  9.000E+00
      21     1     1     2   511   512  2.414413107E+01  3.198948323E+00  1.447708339E+01  2.833298923E+01  6.951036328E-07  0.00000E+00  9.000E+00
       4     1     1     2   515     0 -2.244447522E+01 -2.751210400E+01  9.800174373E+01  1.042461611E+02  1.500000000E+00  0.00000E+00  9.000E+00
      21     1     1     2   513   515 -1.699655849E+00  2.431315568E+01  3.177509261E+02  3.186842785E+02  6.607249480E-06  0.00000E+00  9.000E+00
</event>
<event>
      5  10001 -3.52971E+09  5.32311E+00 -1.00000E+00  2.33854E-01
      21    -1     0     0   511   515  0.000000000E+00  0.000000000E+00  7.877470194E-01  7.877470194E-01  0.000000000E+00  0.00000E+00  9.000E+00
      -5    -1     0     0     0   514  0.000000000E+00  0.000000000E+00 -2.512665392E+02  2.512665392E+02  0.000000000E+00  0.00000E+00  9.000E+00
      -5     1     1     2     0   512 -4.930315965E+00 -4.700536829E+00 -1.621081795E+02  1.623222256E+02  4.800000191E+00  0.00000E+00  9.000E+00
      21     1     1     2   511   514  8.586820322E+00  2.305872515E+00 -3.260789106E+01  3.379830011E+01  4.768371582E-07  0.00000E+00  9.000E+00
      21     1     1     2   512   515 -3.656504357E+00  2.394664314E+00 -5.576272161E+01  5.593376049E+01  9.536743164E-07  0.00000E+00  9.000E+00
</event>
<event>
      5  10001  3.52971E+09  4.37041E+00 -1.00000E+00  2.54717E-01
      21    -1     0     0   512   511  0.000000000E+00  0.000000000E+00  6.727639549E+00  6.727639549E+00  0.000000000E+00  0.00000E+00  9.000E+00
       3    -1     0     0   515     0  0.000000000E+00  0.000000000E+00 -8.033127077E+01  8.033127077E+01  0.000000000E+00  0.00000E+00  9.000E+00
      21     1     1     2   512   513  9.645590560E+00 -2.108237414E+00 -4.473542145E+00  1.083949545E+01  2.980232239E-07  0.00000E+00  9.000E+00
       3     1     1     2   513     0 -8.505511941E+00  6.326776215E+00 -7.076305193E+01  7.155439434E+01  5.000000000E-01  0.00000E+00  9.000E+00
      21     1     1     2   515   511 -1.140078619E+00 -4.218538801E+00  1.632962855E+00  4.665020531E+00  1.332800375E-07  0.00000E+00  9.000E+00
</event>
<event>
      5  10001  3.52971E+09  1.28538E+01 -1.00000E+00  1.83939E-01
      21    -1     0     0   514   513  0.000000000E+00  0.000000000E+00  3.232552972E+02  3.232552972E+02  0.000000000E+00  0.00000E+00  9.000E+00
      21    -1     0     0   515   511  0.000000000E+00  0.000000000E+00 -2.518788665E+01  2.518788665E+01  0.000000000E+00  0.00000E+00  9.000E+00
      21     1     1     2   514   511  9.874695220E+00 -3.454367149E+00  3.169528242E+02  3.171254248E+02  3.814697266E-06  0.00000E+00  9.000E+00
      21     1     1     2   515   512 -1.493900639E+01 -3.561571551E+00 -1.604578407E+01  2.221094077E+01  1.348699152E-06  0.00000E+00  9.000E+00
      21     1     1     2   512   513  5.064311167E+00  7.015938700E+00 -2.839629594E+00  9.106818307E+00  4.298152060E-07  0.00000E+00  9.000E+00
</event>
<event>
      5  10001  3.52971E+09  7.76102E+00 -1.00000E+00  2.09402E-01
       2    -1     0     0   511     0  0.000000000E+00  0.000000000E+00  2.150816173E+02  2.150816173E+02  0.000000000E+00  0.00000E+00  9.000E+00
      21    -1     0     0   512   514  0.000000000E+00  0.000000000E+00 -8.808651805E+00  8.808651805E+00  0.000000000E+00  0.00000E+00  9.000E+00
      21     1     1     2   511   516  1.446284154E+01  9.559055589E-01  2.953817444E+01  3.290275505E+01  6.743495762E-07  0.00000E+00  9.000E+00
       2     1     1     2   512     0 -6.713723292E+00 -1.383110488E+00  1.816640010E+02  1.817935786E+02  3.300000131E-01  0.00000E+00  9.000E+00
      21     1     1     2   516   514 -7.749118250E+00  4.272049296E-01 -4.929209943E+00  9.193935413E+00  1.976862425E-07  0.00000E+00  9.000E+00
</event>
<event>
      5  10001  3.52971E+09  4.98861E+00 -1.00000E+00  2.42735E-01
      21    -1     0     0   511   512  0.000000000E+00  0.000000000E+00  3.412694141E+02  3.412694141E+02  0.000000000E+00  0.00000E+00  9.000E+00
      21    -1     0     0   516   515  0.000000000E+00  0.000000000E+00 -2.041781530E+01  2.041781530E+01  0.000000000E+00  0.00000E+00  9.000E+00
      21     1     1     2   513   515  1.150426588E+01  6.702467682E+00  1.075338077E+01  1.711450860E+01  3.576278687E-07  0.00000E+00  9.000E+00
      21     1     1     2   516   512 -8.503575520E+00 -1.068769949E+01 -1.450963012E+01  1.992654218E+01  4.768371582E-07  0.00000E+00  9.000E+00
      21     1     1     2   511   513 -3.000690357E+00  3.985231812E+00  3.246078481E+02  3.246461786E+02  3.814697266E-06  0.00000E+00  9.000E+00
</event>
<event>
      5  10001  3.52971E+09  6.79335E+00 -1.00000E+00  2.17404E-01
      21    -1     0     0   514   515  0.000000000E+00  0.000000000E+00  2.541697120E+00  2.541697120E+00  0.000000000E+00  0.00000E+00  9.000E+00
      21    -1     0     0   517   513  0.000000000E+00  0.000000000E+00 -6.048825965E+01  6.048825965E+01  0.000000000E+00  0.00000E+00  9.000E+00
      21     1     1     2   514   513 -1.035255162E+01 -1.161596410E+00 -3.975955380E+01  4.110166359E+01  0.000000000E+00  0.00000E+00  9.000E+00
      21     1     1     2   517   512  5.502737835E+00  2.988217736E+00 -1.373950884E+01  1.509912819E+01  2.384185791E-07  0.00000E+00  9.000E+00
      21     1     1     2   512   515  4.849813784E+00 -1.826621325E+00 -4.447499881E+00  6.829164985E+00  1.032382731E-07  0.00000E+00  9.000E+00
</event>
<event>
      5  10001  3.52971E+09  7.96624E+00 -1.00000E+00  2.07906E-01
      21    -1     0     0   511   513  0.000000000E+00  0.000000000E+00  1.453969627E+01  1.453969627E+01  0.000000000E+00  0.00000E+00  9.000E+00
      21    -1     0     0   516   515  0.000000000E+00  0.000000000E+00 -2.440490766E+01  2.440490766E+01  0.000000000E+00  0.00000E+00  9.000E+00
      21     1     1     2   511   515 -5.883595802E+00 -9.687908991E+00  8.924586547E+00  1.442638296E+01  2.384185791E-07  0.00000E+00  9.000E+00
      21     1     1     2   516   514 -4.858439740E-01  8.761606202E+00 -1.388714121E+01  1.642724805E+01  1.685873940E-07  0.00000E+00  9.000E+00
      21     1     1     2   514   513  6.369439776E+00  9.263027890E-01 -4.902656726E+00  8.090972926E+00  0.000000000E+00  0.00000E+00  9.000E+00
</event>
<event>
      5  10001  3.52971E+09  7.76376E+00 -1.00000E+00  2.09382E-01
      21    -1     0     0   512   513  0.000000000E+00  0.000000000E+00  5.120417623E+01  5.120417623E+01  0.000000000E+00  0.00000E+00  9.000E+00
      21    -1     0     0   515   511  0.000000000E+00  0.000000000E+00 -4.101944491E+01  4.101944491E+01  0.000000000E+00  0.00000E+00  9.000E+00
      -1     1     1     2     0   511 -3.239700557E+00 -1.085939948E+01  3.181721953E+01  3.377671647E+01  3.300000131E-01  0.00000E+00  9.000E+00
       1     1     1     2   512     0 -4.522408604E+00  1.072024456E+01  1.613190995E+01  1.989279371E+01  3.300000131E-01  0.00000E+00  9.000E+00
      21     1     1     2   515   513  7.762109161E+00  1.391549172E-01 -3.776439816E+01  3.855411095E+01  4.768371582E-07  0.00000E+00  9.000E+00
</event>
<event>
      5  10001  3.52971E+09  6.23560E+00 -1.00000E+00  2.22899E-01
       1    -1     0     0   514     0  0.000000000E+00  0.000000000E+00  1.186526215E+01  1.186526215E+01  0.000000000E+00  0.00000E+00  9.000E+00
      21    -1     0     0   513   514  0.000000000E+00  0.000000000E+00 -4.021009712E+01  4.021009712E+01  0.000000000E+00  0.00000E+00  9.000E+00
      21     1     1     2   515   516 -8.188632521E+00  2.343231681E+00 -3.934054317E+00  9.381962515E+00  3.371747881E-07  0.00000E+00  9.000E+00
      21     1     1     2   513   515  1.003367691E+01 -8.299079129E+00 -3.099523133E+01  3.361924675E+01  7.539457465E-07  0.00000E+00  9.000E+00
       1     1     1     2   516     0 -1.845044391E+00  5.955847448E+00  6.584450676E+00  9.074150007E+00  3.300000131E-01  0.00000E+00  9.000E+00
</event>
<event>
      5  10001  3.52971E+09  6.52174E+00 -1.00000E+00  2.19985E-01
       3    -1     0     0   513     0  0.000000000E+00  0.000000000E+00  2.096978331E+00  2.096978331E+00  0.000000000E+00  0.00000E+00  9.000E+00
      -2    -1     0     0     0   511  0.000000000E+00  0.000000000E+00 -3.098114353E+02  3.098114353E+02  0.000000000E+00  0.00000E+00  9.000E+00
      -2     1     1     2     0   512  1.041608597E+01 -6.563013509E+00 -2.583070631E+02  2.586004945E+02  3.300000131E-01  0.00000E+00  9.000E+00
       3     1     1     2   512     0 -1.288584968E+01  5.281810012E-01 -2.626957584E+01  2.926883516E+01  5.000000000E-01  0.00000E+00  9.000E+00
      21     1     1     2   513   511  2.469763702E+00  6.034832508E+00 -2.313781800E+01  2.403908396E+01  0.000000000E+00  0.00000E+00  9.000E+00
</event>
<event>
      5  10001  3.52971E+09  2.17737E+01 -1.00000E+00  1.63378E-01
       1    -1     0     0   514     0  0.000000000E+00  0.000000000E+00  2.948426957E+02  2.948426957E+02  0.000000000E+00  0.00000E+00  9.000E+00
      21    -1     0     0   516   515  0.000000000E+00  0.000000000E+00 -1.732212465E+02  1.732212465E+02  0.000000000E+00  0.00000E+00  9.000E+00
      21     1     1     2   514   515  8.810005936E+00  1.112100593E+01 -1.084325540E+02  1.093568093E+02  1.348699152E-06  0.00000E+00  9.000E+00
      21     1     1     2   516   511 -2.671649688E+01  1.266506356E+00 -6.112205659E+01  6.671792147E+01  1.168007728E-06  0.00000E+00  9.000E+00
       1     1     1     2   511     0  1.790649094E+01 -1.238751228E+01  2.911760598E+02  2.919892114E+02  3.300000131E-01  0.00000E+00  9.000E+00
</event>
<event>
      5  10001  3.52971E+09  4.17378E+00 -1.00000E+00  2.59185E-01
      21    -1     0     0   511   512  0.000000000E+00  0.000000000E+00  7.047376329E+00  7.047376329E+00  0.000000000E+00  0.00000E+00  9.000E+00
       2    -1     0     0   514     0  0.000000000E+00  0.000000000E+00 -4.650850076E+02  4.650850076E+02  0.000000000E+00  0.00000E+00  9.000E+00
      21     1     1     2   513   512 -7.845015333E+00 -4.538960144E+00  3.620347876E+00  9.759781940E+00  3.182017282E-07  0.00000E+00  9.000E+00
       2     1     1     2   511     0  1.195752305E+01  5.250869227E+00 -1.235280530E+02  1.242169181E+02  3.300000131E-01  0.00000E+00  9.000E+00
      21     1     1     2   514   513 -4.112507721E+00 -7.119090826E-01 -3.381299262E+02  3.381556838E+02  6.607249480E-06  0.00000E+00  9.000E+00
</event>
<event>
      5  10001  3.52971E+09  2.84893E+01 -1.00000E+00  1.54612E-01
      21    -1     0     0   514   515  0.000000000E+00  0.000000000E+00  2.139873261E+01  2.139873261E+01  0.000000000E+00  0.00000E+00  9.000E+00
       2    -1     0     0   511     0  0.000000000E+00  0.000000000E+00 -1.439731312E+03  1.439731312E+03  0.000000000E+00  0.00000E+00  9.000E+00
      21     1     1     2   511   515 -4.719066967E+00  3.502040197E+01  5.923324079E+00  3.582993044E+01  4.616955931E-07  0.00000E+00  9.000E+00
       2     1     1     2   512     0  1.791702863E+01 -1.182216094E+01 -9.851099152E+02  9.853438168E+02  3.300000131E-01  0.00000E+00  9.000E+00
      21     1     1     2   514   512 -1.319796166E+01 -2.319824103E+01 -4.391459880E+02  4.399562971E+02  7.629394531E-06  0.00000E+00  9.000E+00
</event>
<event>
      5  10001  3.52971E+09  3.33067E+00 -1.00000E+00  2.83726E-01
       2    -1     0     0   514     0  0.000000000E+00  0.000000000E+00  5.966270867E+02  5.966270867E+02  0.000000000E+00  0.00000E+00  9.000E+00
      21    -1     0     0   513   512  0.000000000E+00  0.000000000E+00 -2.093904303E+00  2.093904303E+00  0.000000000E+00  0.00000E+00  9.000E+00
      21     1     1     2   514   512  9.600923658E+00 -5.114246107E+00  1.249551957E+01  1.656717410E+01  1.011524364E-06  0.00000E+00  9.000E+00
       2     1     1     2   511     0 -7.678965347E+00  2.651364471E+00  3.461782758E+02  3.462737411E+02  3.300000131E-01  0.00000E+00  9.000E+00
      21     1     1     2   513   511 -1.921958311E+00  2.462881636E+00  2.358593871E+02  2.358800759E+02  2.697398305E-06  0.00000E+00  9.000E+00
</event>
<event>
      5  10001  3.52971E+09  5.96991E+00 -1.00000E+00  2.25805E-01
      21    -1     0     0   515   511  0.000000000E+00  0.000000000E+00  7.628553995E+00  7.628553995E+00  0.000000000E+00  0.00000E+00  9.000E+00
      21    -1     0     0   513   512  0.000000000E+00  0.000000000E+00 -2.647821286E+02  2.647821286E+02  0.000000000E+00  0.00000E+00  9.000E+00
      21     1     1     2   515   516 -5.152449718E+00  1.375286975E+01 -8.739380186E-01  1.471233945E+01  9.424321831E-08  0.00000E+00  9.000E+00
      21     1     1     2   513   511  1.015491598E+01 -1.701095582E+01 -1.579449376E+02  1.591825941E+02  0.000000000E+00  0.00000E+00  9.000E+00
      21     1     1     2   516   512 -5.002466262E+00  3.258086071E+00 -9.833469892E+01  9.851574902E+01  0.000000000E+00  0.00000E+00  9.000E+00
</event>
<event>
      5  10001  3.52971E+09  5.97529E+00 -1.00000E+00  2.25744E-01
      21    -1     0     0   511   512  0.000000000E+00  0.000000000E+00  3.596808414E+01  3.596808414E+01  0.000000000E+00  0.00000E+00  9.000E+00
      21    -1     0     0   516   517  0.000000000E+00  0.000000000E+00 -1.116304419E+01  1.116304419E+01  0.000000000E+00  0.00000E+00  9.000E+00
      21     1     1     2   514   517 -1.047354003E+01 -8.120391632E+00 -5.685960615E-01  1.326495769E+01  2.517811246E-07  0.00000E+00  9.000E+00
      21     1     1     2   516   512  7.710842188E+00  2.822128714E+00  4.359670283E-01  8.222625188E+00  1.645043654E-07  0.00000E+00  9.000E+00
      21     1     1     2   511   514  2.762697845E+00  5.298262917E+00  2.493766898E+01  2.564354546E+01  0.000000000E+00  0.00000E+00  9.000E+00
</event>
<event>
      5  10001  3.52971E+09  4.79857E+00 -1.00000E+00  2.46128E-01
      21    -1     0     0   513   516  0.000000000E+00  0.000000000E+00  2.636008244E+01  2.636008244E+01  0.000000000E+00  0.00000E+00  9.000E+00
       1    -1     0     0   515     0  0.000000000E+00  0.000000000E+00 -1.896355917E+02  1.896355917E+02  0.000000000E+00  0.00000E+00  9.000E+00
      21     1     1     2   513   514 -1.301074655E+01  7.875810781E+00 -4.627998065E+01  4.871493129E+01  6.743495762E-07  0.00000E+00  9.000E+00
      21     1     1     2   515   516  1.666396293E+01 -1.098706590E+01  2.113270594E+01  2.906878976E+01  5.331201500E-07  0.00000E+00  9.000E+00
       1     1     1     2   514     0 -3.653216385E+00  3.111255114E+00 -1.381282346E+02  1.382119531E+02  3.300000131E-01  0.00000E+00  9.000E+00
</event>
<event>
      5  10001  3.52971E+09  9.70104E+00 -1.00000E+00  1.97289E-01
      21    -1     0     0   511   515  0.000000000E+00  0.000000000E+00  6.269931924E+01  6.269931924E+01  0.000000000E+00  0.00000E+00  9.000E+00
      21    -1     0     0   514   512  0.000000000E+00  0.000000000E+00 -5.030929399E+00  5.030929399E+00  0.000000000E+00  0.00000E+00  9.000E+00
      21     1     1     2   511   512  1.642620767E+01  5.631821751E-01  2.563234828E+01  3.044921593E+01  0.000000000E+00  0.00000E+00  9.000E+00
      21     1     1     2   513   515 -8.404140081E+00  2.649489763E+00  8.643514704E+00  1.234340767E+01  2.920019320E-07  0.00000E+00  9.000E+00
      21     1     1     2   514   513 -8.022067593E+00 -3.212671938E+00  2.339252685E+01  2.493762503E+01  4.768371582E-07  0.00000E+00  9.000E+00
</event>
<event>
      5  10001  3.52971E+09  1.10135E+01 -1.00000E+00  1.91028E-01
      21    -1     0     0   516   512  0.000000000E+00  0.000000000E+00  1.537641969E+00  1.537641969E+00  0.000000000E+00  0.00000E+00  9.000E+00
      21    -1     0     0   514   517  0.000000000E+00  0.000000000E+00 -1.508142175E+02  1.508142175E+02  0.000000000E+00  0.00000E+00  9.000E+00
      21     1     1     2   516   517  8.322853177E+00 -4.690609831E+00 -2.536237682E+01  2.710206382E+01  3.371747881E-07  0.00000E+00  9.000E+00
      21     1     1     2   511   512 -9.853006396E+00  8.098860955E+00 -6.636655402E+01  6.758100899E+01  1.348699152E-06  0.00000E+00  9.000E+00
      21     1     1     2   514   511  1.530153220E+00 -3.408251124E+00 -5.754764469E+01  5.766878665E+01  9.536743164E-07  0.00000E+00  9.000E+00
</event>
<event>
      5  10001  3.52971E+09  5.40153E+00 -1.00000E+00  2.32794E-01
      21    -1     0     0   515   511  0.000000000E+00  0.000000000E+00  5.280778082E+01  5.280778082E+01  0.000000000E+00  0.00000E+00  9.000E+00
       2    -1     0     0   512     0  0.000000000E+00  0.000000000E+00 -7.373177831E+01  7.373177831E+01  0.000000000E+00  0.00000E+00  9.000E+00
      21     1     1     2   512   511  6.323015722E+00  1.129809531E+01  1.378402562E+00  1.302027185E+01  2.313282296E-07  0.00000E+00  9.000E+00
       2     1     1     2   513     0 -4.785638403E+00 -6.120014054E+00 -6.752700998E+01  6.797325124E+01  3.300000131E-01  0.00000E+00  9.000E+00
      21     1     1     2   515   513 -1.537377318E+00 -5.178081259E+00  4.522460994E+01  4.554603604E+01  8.259061849E-07  0.00000E+00  9.000E+00
</event>
<event>
      5  10001  3.52971E+09  6.08094E+00 -1.00000E+00  2.24566E-01
      21    -1     0     0   515   511  0.000000000E+00  0.000000000E+00  7.220602349E+01  7.220602349E+01  0.000000000E+00  0.00000E+00  9.000E+00
      21    -1     0     0   514   513  0.000000000E+00  0.000000000E+00 -6.048519837E+01  6.048519837E+01  0.000000000E+00  0.00000E+00  9.000E+00
      21     1     1     2   515   513  1.239702585E+01  1.302559705E+01 -5.730243150E+01  6.005764801E+01  0.000000000E+00  0.00000E+00  9.000E+00
       4     1     1     2   514     0 -6.319316286E+00 -1.298539157E+01  3.275047224E+01  3.582453886E+01  1.500000000E+00  0.00000E+00  9.000E+00
      -4     1     1     2     0   511 -6.077709564E+00 -4.020548327E-02  3.627278438E+01  3.680903498E+01  1.500000000E+00  0.00000E+00  9.000E+00
</event>
<event>
      5  10001  3.52971E+09  2.34488E+01 -1.00000E+00  1.60860E-01
      21    -1     0     0   512   513  0.000000000E+00  0.000000000E+00  6.934964803E+00  6.934964803E+00  0.000000000E+00  0.00000E+00  9.000E+00
      21    -1     0     0   516   511  0.000000000E+00  0.000000000E+00 -4.082424478E+01  4.082424478E+01  0.000000000E+00  0.00000E+00  9.000E+00
      21     1     1     2   512   511  8.474020740E+00  6.154396817E+00 -1.751882893E+01  2.041065885E+01  2.384185791E-07  0.00000E+00  9.000E+00
      21     1     1     2   516   514  3.798464898E+00 -8.124362779E+00 -9.817913084E+00  1.329755705E+01  1.192092896E-07  0.00000E+00  9.000E+00
      21     1     1     2   514   513 -1.227248564E+01  1.969965962E+00 -6.552537957E+00  1.405099368E+01  4.129530925E-07  0.00000E+00  9.000E+00
</event>
<event>
      5  10001  3.52971E+09  7.47406E+00 -1.00000E+00  2.11603E-01
       2    -1     0     0   511     0  0.000000000E+00  0.000000000E+00  1.385237431E+02  1.385237431E+02  0.000000000E+00  0.00000E+00  9.000E+00
      21    -1     0     0   514   515  0.000000000E+00  0.000000000E+00 -2.277763704E+02  2.277763704E+02  0.000000000E+00  0.00000E+00  9.000E+00
      21     1     1     2   511   512 -1.264670979E+01  1.045629364E+01 -2.238421961E+02  2.244428704E+02  0.000000000E+00  0.00000E+00  9.000E+00
       2     1     1     2   514     0  8.096300206E+00 -1.282647198E+01  1.357514760E+02  1.365966347E+02  3.300000131E-01  0.00000E+00  9.000E+00
      21     1     1     2   512   515  4.550409579E+00  2.370178341E+00 -1.161907237E+00  5.260608438E+00  7.598131170E-08  0.00000E+00  9.000E+00
</event>
<event>
      5  10001  3.52971E+09  7.37121E+00 -1.00000E+00  2.12425E-01
      21    -1     0     0   513   514  0.000000000E+00  0.000000000E+00  4.370856306E+01  4.370856306E+01  0.000000000E+00  0.00000E+00  9.000E+00
       2    -1     0     0   512     0  0.000000000E+00  0.000000000E+00 -1.763933169E+02  1.763933169E+02  0.000000000E+00  0.00000E+00  9.000E+00
      21     1     1     2   513   516 -6.397051341E+00 -7.647308840E+00 -2.301481432E+01  2.508157245E+01  4.768371582E-07  0.00000E+00  9.000E+00
      21     1     1     2   512   514  4.713323956E-01  1.203138441E+01  4.173424710E+01  4.343643340E+01  4.768371582E-07  0.00000E+00  9.000E+00
       2     1     1     2   516     0  5.925718945E+00 -4.384075573E+00 -1.514041866E+02  1.515838741E+02  3.300000131E-01  0.00000E+00  9.000E+00
</event>
<event>
      5  10001  3.52971E+09  6.55638E+00 -1.00000E+00  2.19646E-01
      21    -1     0     0   511   512  0.000000000E+00  0.000000000E+00  3.139458252E+00  3.139458252E+00  0.000000000E+00  0.00000E+00  9.000E+00
      21    -1     0     0   516   515  0.000000000E+00  0.000000000E+00 -4.866865069E+01  4.866865069E+01  0.000000000E+00  0.00000E+00  9.000E+00
      21     1     1     2   511   515  5.019852729E+00 -8.067118682E+00 -7.718291492E+00  1.224129686E+01  2.230201594E-07  0.00000E+00  9.000E+00
      21     1     1     2   516   513  4.223638193E-01  5.362199063E+00 -2.143523011E+01  2.209978869E+01  0.000000000E+00  0.00000E+00  9.000E+00
      21     1     1     2   513   512 -5.442216548E+00  2.704919619E+00 -1.637567083E+01  1.746702339E+01  2.384185791E-07  0.00000E+00  9.000E+00
</event>
<event>
      5  10001  3.52971E+09  4.19579E+00 -1.00000E+00  2.58666E-01
      21    -1     0     0   514   511  0.000000000E+00  0.000000000E+00  1.074317284E+02  1.074317284E+02  0.000000000E+00  0.00000E+00  9.000E+00
      21    -1     0     0   512   514  0.000000000E+00  0.000000000E+00 -1.352805819E+02  1.352805819E+02  0.000000000E+00  0.00000E+00  9.000E+00
      21     1     1     2   512   517  4.523238823E+00 -1.738913770E+01 -8.838025225E+01  9.018819650E+01  2.132480600E-06  0.00000E+00  9.000E+00
      21     1     1     2   517   515 -2.478254682E+00  1.372543306E+01 -4.489636013E+01  4.701289623E+01  0.000000000E+00  0.00000E+00  9.000E+00
      21     1     1     2   515   511 -2.044984140E+00  3.663704633E+00  1.054277589E+02  1.055112176E+02  0.000000000E+00  0.00000E+00  9.000E+00
</event>
<event>
      5  10001  3.52971E+09  1.41949E+01 -1.00000E+00  1.79667E-01
      21    -1     0     0   515   511  0.000000000E+00  0.000000000E+00  1.056373591E+01  1.056373591E+01  0.000000000E+00  0.00000E+00  9.000E+00
      21    -1     0     0   513   515  0.000000000E+00  0.000000000E+00 -5.499647532E+01  5.499647532E+01  0.000000000E+00  0.00000E+00  9.000E+00
      21     1     1     2   512   511 -2.812015661E+00 -6.654245352E+00  6.009939182E+00  9.397115635E+00  6.529361695E-07  0.00000E+00  9.000E+00
       3     1     1     2   513     0  1.462840144E+00  1.542660672E+01 -3.610755718E+01  3.929536591E+01  5.000000000E-01  0.00000E+00  9.000E+00
      -3     1     1     2     0   512  1.349175516E+00 -8.772361373E+00 -1.433512141E+01  1.686772968E+01  5.000000000E-01  0.00000E+00  9.000E+00
</event>
<event>
      5  10001  3.52971E+09  8.75773E+00 -1.00000E+00  2.02656E-01
      21    -1     0     0   514   512  0.000000000E+00  0.000000000E+00  5.225844087E+01  5.225844087E+01  0.000000000E+00  0.00000E+00  9.000E+00
      21    -1     0     0   511   514  0.000000000E+00  0.000000000E+00 -2.010933909E+01  2.010933909E+01  0.000000000E+00  0.00000E+00  9.000E+00
      21     1     1     2   513   512 -1.008277765E+01  6.681236254E+00  1.510688246E+01  1.935249908E+01  5.057621821E-07  0.00000E+00  9.000E+00
      21     1     1     2   516   513  3.463413412E+00 -1.241550711E+01  3.265896751E+01  3.511051421E+01  9.536743164E-07  0.00000E+00  9.000E+00
      21     1     1     2   511   516  6.619364235E+00  5.734270853E+00 -1.561674820E+01  1.790476667E+01  2.384185791E-07  0.00000E+00  9.000E+00
</event>
<event>
      5  10001  3.52971E+09  5.06397E+00 -1.00000E+00  2.37549E-01
      21    -1     0     0   515   512  0.000000000E+00  0.000000000E+00  1.572149102E+01  1.572149102E+01  0.000000000E+00  0.00000E+00  9.000E+00
      21    -1     0     0   513   517  0.000000000E+00  0.000000000E+00 -3.111626213E+01  3.111626213E+01  0.000000000E+00  0.00000E+00  9.000E+00
      21     1     1     2   515   517  1.222815350E+01 -8.029905866E-01 -1.480103092E+01  1.921569796E+01  2.384185791E-07  0.00000E+00  9.000E+00
      21     1     1     2   511   512 -7.823305544E+00  3.301208678E+00  1.162476149E+01  1.439573437E+01  1.685873940E-07  0.00000E+00  9.000E+00
      21     1     1     2   513   511 -4.404847955E+00 -2.498218092E+00 -1.221850169E+01  1.322632083E+01  1.685873940E-07  0.00000E+00  9.000E+00
</event>
<event>
      5  10001  3.52971E+09  1.42441E+01 -1.00000E+00  1.79522E-01
      21    -1     0     0   514   511  0.000000000E+00  0.000000000E+00  1.573012698E+01  1.573012698E+01  0.000000000E+00  0.00000E+00  9.000E+00
      21    -1     0     0   513   514  0.000000000E+00  0.000000000E+00 -9.897987952E+01  9.897987952E+01  0.000000000E+00  0.00000E+00  9.000E+00
      21     1     1     2   513   516 -2.448109789E+00 -1.106266701E+01 -9.396380265E+01  9.464445071E+01  1.348699152E-06  0.00000E+00  9.000E+00
       2     1     1     2   516     0 -4.918288693E+00  6.618607050E+00  4.137457593E+00  9.231629233E+00  3.300000131E-01  0.00000E+00  9.000E+00
      -2     1     1     2     0   511  7.366398482E+00  4.444059963E+00  6.576592517E+00  1.083392656E+01  3.300000131E-01  0.00000E+00  9.000E+00
</event>
<event>
      5  10001  3.52971E+09  2.35862E+01 -1.00000E+00  1.60665E-01
      21    -1     0     0   512   515  0.000000000E+00  0.000000000E+00  2.907947543E+02  2.907947543E+02  0.000000000E+00  0.00000E+00  9.000E+00
      21    -1     0     0   511   512  0.000000000E+00  0.000000000E+00 -1.158166832E+00  1.158166832E+00  0.000000000E+00  0.00000E+00  9.000E+00
      21     1     1     2   511   513  6.459135430E+00  1.169988858E+01  5.947880362E+01  6.096175772E+01  6.743495762E-07  0.00000E+00  9.000E+00
      21     1     1     2   513   514 -4.622089842E+00  2.520500119E+00  6.265816469E+01  6.287894908E+01  9.536743164E-07  0.00000E+00  9.000E+00
      21     1     1     2   514   515 -1.837045588E+00 -1.422038870E+01  1.674996191E+02  1.681122143E+02  1.907348633E-06  0.00000E+00  9.000E+00
</event>
<event>
      5  10001  3.52971E+09  9.60921E+00 -1.00000E+00  1.97775E-01
      21    -1     0     0   516   511  0.000000000E+00  0.000000000E+00  8.991471248E+01  8.991471248E+01  0.000000000E+00  0.00000E+00  9.000E+00
      21    -1     0     0   515   516  0.000000000E+00  0.000000000E+00 -4.311445873E+00  4.311445873E+00  0.000000000E+00  0.00000E+00  9.000E+00
      21     1     1     2   517   511 -9.351324749E+00 -8.215406661E-01  6.754215066E+01  6.819138010E+01  1.651812370E-06  0.00000E+00  9.000E+00
      21     1     1     2   515   512  4.289798848E+00  1.771806949E+00 -2.195053992E+00  5.134192833E+00  2.269677253E-07  0.00000E+00  9.000E+00
      21     1     1     2   512   517  5.061525901E+00 -9.502662831E-01  2.025616994E+01  2.090058542E+01  2.384185791E-07  0.00000E+00  9.000E+00
</event>
<event>
      5  10001  3.52971E+09  7.07521E+00 -1.00000E+00  2.14894E-01
      21    -1     0     0   512   514  0.000000000E+00  0.000000000E+00  1.780441251E+01  1.780441251E+01  0.000000000E+00  0.00000E+00  9.000E+00
       1    -1     0     0   511     0  0.000000000E+00  0.000000000E+00 -4.188876939E+02  4.188876939E+02  0.000000000E+00  0.00000E+00  9.000E+00
      21     1     1     2   511   513 -1.275508106E+00  8.217893043E+00 -1.071340753E+02  1.074563669E+02  3.814697266E-06  0.00000E+00  9.000E+00
       1     1     1     2   512     0  7.163787641E+00 -1.214043376E+01 -3.107167909E+02  3.110365622E+02  3.300000131E-01  0.00000E+00  9.000E+00
      21     1     1     2   513   514 -5.888279535E+00  3.922540714E+00  1.676758473E+01  1.819917743E+01  8.596304120E-07  0.00000E+00  9.000E+00
</event>
<event>
      5  10001  3.52971E+09  3.03748E+00 -1.00000E+00  2.95231E-01
      21    -1     0     0   515   514  0.000000000E+00  0.000000000E+00  3.279479115E+00  3.279479115E+00  0.000000000E+00  0.00000E+00  9.000E+00
      21    -1     0     0   512   511  0.000000000E+00  0.000000000E+00 -1.294802061E+02  1.294802061E+02  0.000000000E+00  0.00000E+00  9.000E+00
      21     1     1     2   512   514 -1.587769559E+00 -9.986400445E+00 -6.636786115E+00  1.209529396E+01  3.039252468E-07  0.00000E+00  9.000E+00
       1     1     1     2   515     0  1.014959065E+00  1.296799991E+01 -1.032920195E+02  1.041083539E+02  3.300000131E-01  0.00000E+00  9.000E+00
      -1     1     1     2     0   511  5.728104949E-01 -2.981599462E+00 -1.627192137E+01  1.655603734E+01  3.300000131E-01  0.00000E+00  9.000E+00
</event>
<event>
      5  10001  3.52971E+09  7.61574E+00 -1.00000E+00  2.10500E-01
      21    -1     0     0   513   512  0.000000000E+00  0.000000000E+00  1.260921963E+01  1.260921963E+01  0.000000000E+00  0.00000E+00  9.000E+00
      21    -1     0     0   516   514  0.000000000E+00  0.000000000E+00 -9.186508416E+01  9.186508416E+01  0.000000000E+00  0.00000E+00  9.000E+00
      21     1     1     2   511   512 -6.617803093E-01 -1.272067742E+01  8.167353270E+00  1.513139936E+01  5.196212463E-07  0.00000E+00  9.000E+00
      21     1     1     2   516   511 -5.454028758E+00  8.182354353E+00 -6.291028306E+01  6.367417896E+01  9.536743164E-07  0.00000E+00  9.000E+00
      21     1     1     2   513   514  6.115809068E+00  4.538323069E+00 -2.451293474E+01  2.566872546E+01  3.371747881E-07  0.00000E+00  9.000E+00
</event>
<event>
      5  10001  3.52971E+09  3.97016E+00 -1.00000E+00  2.64230E-01
      21    -1     0     0   515   514  0.000000000E+00  0.000000000E+00  1.612455931E+00  1.612455931E+00  0.000000000E+00  0.00000E+00  9.000E+00
      21    -1     0     0   512   517  0.000000000E+00  0.000000000E+00 -1.595784009E+02  1.595784009E+02  0.000000000E+00  0.00000E+00  9.000E+00
      21     1     1     2   515   517  1.248599018E+01 -7.104553601E+00 -6.540492313E+01  6.696400976E+01  0.000000000E+00  0.00000E+00  9.000E+00
      -5     1     1     2     0   514 -4.742942613E+00  1.768218626E+00 -4.198332512E+01  4.255892024E+01  4.800000191E+00  0.00000E+00  9.000E+00
       5     1     1     2   512     0 -7.743047572E+00  5.336334975E+00 -5.057769673E+01  5.166792685E+01  4.800000191E+00  0.00000E+00  9.000E+00
</event>
<event>
      5  10001  3.52971E+09  3.60982E+00 -1.00000E+00  2.74426E-01
      21    -1     0     0   511   514  0.000000000E+00  0.000000000E+00  1.354260803E+02  1.354260803E+02  0.000000000E+00  0.00000E+00  9.000E+00
      21    -1     0     0   515   511  0.000000000E+00  0.000000000E+00 -3.724275713E+00  3.724275713E+00  0.000000000E+00  0.00000E+00  9.000E+00
      21     1     1     2   513   514  1.290185472E+01 -4.720654150E+00  1.013618006E+02  1.022885969E+02  0.000000000E+00  0.00000E+00  9.000E+00
      21     1     1     2   512   513 -1.603819026E+01  6.507886534E+00  2.564803151E+01  3.094184310E+01  6.743495762E-07  0.00000E+00  9.000E+00
      21     1     1     2   515   512  3.136335540E+00 -1.787232384E+00  4.691972490E+00  5.919916052E+00  1.192092896E-07  0.00000E+00  9.000E+00
</event>
<event>
      5  10001  3.52971E+09  5.12655E+00 -1.00000E+00  2.36628E-01
      21    -1     0     0   516   512  0.000000000E+00  0.000000000E+00  3.639888748E+01  3.639888748E+01  0.000000000E+00  0.00000E+00  9.000E+00
      21    -1     0     0   515   516  0.000000000E+00  0.000000000E+00 -3.351833161E+00  3.351833161E+00  0.000000000E+00  0.00000E+00  9.000E+00
      21     1     1     2   515   517 -9.551613702E+00  6.244455163E-01  9.223897618E+00  1.329298852E+01  0.000000000E+00  0.00000E+00  9.000E+00
      21     1     1     2   511   512  6.866625699E+00  2.295730052E+00  1.232238831E+01  1.429203200E+01  1.685873940E-07  0.00000E+00  9.000E+00
      21     1     1     2   517   511  2.684988003E+00 -2.920175568E+00  1.150076839E+01  1.216570012E+01  2.920019320E-07  0.00000E+00  9.000E+00
</event>
<event>
      5  10001  3.52971E+09  4.62107E+00 -1.00000E+00  2.49517E-01
      21    -1     0     0   513   511  0.000000000E+00  0.000000000E+00  7.470113091E+01  7.470113091E+01  0.000000000E+00  0.00000E+00  9.000E+00
      21    -1     0     0   515   514  0.000000000E+00  0.000000000E+00 -1.212269176E+01  1.212269176E+01  0.000000000E+00  0.00000E+00  9.000E+00
      21     1     1     2   513   514 -6.362053006E+00  1.646518704E+01 -3.380972362E+00  1.797245328E+01  7.360630652E-07  0.00000E+00  9.000E+00
      21     1     1     2   515   512  8.453071783E+00 -1.386037891E+01  5.091644993E+01  5.344201904E+01  6.743495762E-07  0.00000E+00  9.000E+00
      21     1     1     2   512   511 -2.091018778E+00 -2.604808134E+00  1.504296158E+01  1.540935034E+01  1.685873940E-07  0.00000E+00  9.000E+00
</event>
<event>
      5  10001  3.52971E+09  5.02090E+00 -1.00000E+00  2.38193E-01
      21    -1     0     0   516   514  0.000000000E+00  0.000000000E+00  7.499004570E+00  7.499004570E+00  0.000000000E+00  0.00000E+00  9.000E+00
      21    -1     0     0   517   513  0.000000000E+00  0.000000000E+00 -5.384886625E+01  5.384886625E+01  0.000000000E+00  0.00000E+00  9.000E+00
      21     1     1     2   516   511 -3.249289345E+00  1.027559720E+01 -1.530900738E+00  1.088528530E+01  3.338658288E-07  0.00000E+00  9.000E+00
      21     1     1     2   517   514  2.213306138E+00 -1.518845308E+01 -2.038100343E+01  2.551417512E+01  3.371747881E-07  0.00000E+00  9.000E+00
      21     1     1     2   511   513  1.035983207E+00  4.912855886E+00 -2.443795751E+01  2.494841040E+01  3.371747881E-07  0.00000E+00  9.000E+00
</event>
<event>
      5  10001  3.52971E+09  3.38170E+00 -1.00000E+00  2.81918E-01
      21    -1     0     0   514   513  0.000000000E+00  0.000000000E+00  7.861615744E+02  7.861615744E+02  0.000000000E+00  0.00000E+00  9.000E+00
      21    -1     0     0   511   515  0.000000000E+00  0.000000000E+00 -5.161958836E-01  5.161958836E-01  0.000000000E+00  0.00000E+00  9.000E+00
      21     1     1     2   512   515 -8.454766164E+00  9.412357922E+00  5.166475742E+02  5.168024685E+02  1.078959322E-05  0.00000E+00  9.000E+00
      21     1     1     2   511   513  8.261867277E+00 -6.036164540E+00  6.116045214E+01  6.201043976E+01  0.000000000E+00  0.00000E+00  9.000E+00
      21     1     1     2   514   512  1.928988872E-01 -3.376193382E+00  2.078373522E+02  2.078648620E+02  3.814697266E-06  0.00000E+00  9.000E+00
</event>
<event>
      5  10001  3.52971E+09  9.28463E+00 -1.00000E+00  1.99554E-01
      21    -1     0     0   512   513  0.000000000E+00  0.000000000E+00  2.111406156E+00  2.111406156E+00  0.000000000E+00  0.00000E+00  9.000E+00
      21    -1     0     0   513   514  0.000000000E+00  0.000000000E+00 -5.734566945E+01  5.734566945E+01  0.000000000E+00  0.00000E+00  9.000E+00
      21     1     1     2   511   514 -5.552772386E+00 -2.685857933E+00 -1.212418337E+01  1.360304879E+01  2.384185791E-07  0.00000E+00  9.000E+00
       1     1     1     2   512     0  4.841844836E+00  6.774816247E+00 -1.289564312E+01  1.535409092E+01  3.300000131E-01  0.00000E+00  9.000E+00
      -1     1     1     2     0   511  7.109275494E-01 -4.088958313E+00 -3.021443681E+01  3.049993589E+01  3.300000131E-01  0.00000E+00  9.000E+00
</event>
<event>
      5  10001  3.52971E+09  2.94307E+00 -1.00000E+00  2.99405E-01
       2    -1     0     0   514     0  0.000000000E+00  0.000000000E+00  1.058768445E+03  1.058768445E+03  0.000000000E+00  0.00000E+00  9.000E+00
       3    -1     0     0   515     0  0.000000000E+00  0.000000000E+00 -5.125831536E+00  5.125831536E+00  0.000000000E+00  0.00000E+00  9.000E+00
      21     1     1     2   514   512 -1.200409615E+01  1.946195793E+00  2.978679529E+02  2.981160904E+02  5.394796609E-06  0.00000E+00  9.000E+00
       2     1     1     2   515     0  1.202155241E+01 -4.889157556E+00  7.602706098E+02  7.603814376E+02  3.300000131E-01  0.00000E+00  9.000E+00
       3     1     1     2   512     0 -1.745625901E-02  2.942961763E+00 -4.495949570E+00  5.396748206E+00  5.000000000E-01  0.00000E+00  9.000E+00
</event>
<event>
      5  10001  3.52971E+09  4.15002E+00 -1.00000E+00  2.59750E-01
      21    -1     0     0   511   515  0.000000000E+00  0.000000000E+00  8.951000241E+00  8.951000241E+00  0.000000000E+00  0.00000E+00  9.000E+00
      -3    -1     0     0     0   513  0.000000000E+00  0.000000000E+00 -3.689219286E+01  3.689219286E+01  0.000000000E+00  0.00000E+00  9.000E+00
      21     1     1     2   511   513  9.091049175E+00 -1.349290928E+00 -6.723424019E+00  1.138736983E+01  2.230201594E-07  0.00000E+00  9.000E+00
      21     1     1     2   512   515 -1.299431046E+01 -5.652551756E-02 -1.682378878E-01  1.299552244E+01  3.547348883E-07  0.00000E+00  9.000E+00
      -3     1     1     2     0   512  3.903261286E+00  1.405816446E+00 -2.104953071E+01  2.146030083E+01  5.000000000E-01  0.00000E+00  9.000E+00
</event>
<event>
      5  10001  3.52971E+09  8.38852E+00 -1.00000E+00  2.05009E-01
      21    -1     0     0   512   515  0.000000000E+00  0.000000000E+00  1.100267234E+00  1.100267234E+00  0.000000000E+00  0.00000E+00  9.000E+00
       1    -1     0     0   515     0  0.000000000E+00  0.000000000E+00 -1.412587395E+03  1.412587395E+03  0.000000000E+00  0.00000E+00  9.000E+00
      21     1     1     2   512   514  1.123960441E+00 -1.200425601E+01 -3.345573642E+01  3.556194242E+01  2.523185073E-06  0.00000E+00  9.000E+00
       1     1     1     2   511     0 -3.185256249E+00  3.194870249E+00 -8.834743090E+02  8.834858893E+02  3.300000131E-01  0.00000E+00  9.000E+00
      21     1     1     2   514   511  2.061295809E+00  8.809385756E+00 -4.945570823E+02  4.946398304E+02  5.394796609E-06  0.00000E+00  9.000E+00
</event>
<event>
      5  10001  3.52971E+09  4.63476E+00 -1.00000E+00  2.49248E-01
      21    -1     0     0   513   511  0.000000000E+00  0.000000000E+00  1.661680422E+01  1.661680422E+01  0.000000000E+00  0.00000E+00  9.000E+00
      21    -1     0     0   512   513  0.000000000E+00  0.000000000E+00 -4.997791359E+02  4.997791359E+02  0.000000000E+00  0.00000E+00  9.000E+00
      21     1     1     2   515   516  3.986511732E+00  8.144565784E+00 -4.820347426E+02  4.821200258E+02  5.394796609E-06  0.00000E+00  9.000E+00
      21     1     1     2   516   511 -8.576365986E+00 -7.500930082E+00  1.423276414E+01  1.823155454E+01  2.112393993E-06  0.00000E+00  9.000E+00
      21     1     1     2   512   515  4.589854254E+00 -6.436357016E-01 -1.536035326E+01  1.604435980E+01  2.384185791E-07  0.00000E+00  9.000E+00
</event>
<event>
      5  10001  3.52971E+09  5.30659E+00 -1.00000E+00  2.34081E-01
      21    -1     0     0   511   516  0.000000000E+00  0.000000000E+00  5.003084531E+02  5.003084531E+02  0.000000000E+00  0.00000E+00  9.000E+00
      21    -1     0     0   512   515  0.000000000E+00  0.000000000E+00 -2.152609963E+01  2.152609963E+01  0.000000000E+00  0.00000E+00  9.000E+00
      21     1     1     2   514   515  7.198879244E+00  7.017228137E+00 -1.342250327E+01  1.676988214E+01  2.920019320E-07  0.00000E+00  9.000E+00
      21     1     1     2   512   516 -1.234432949E+01 -5.719447371E+00  7.971148473E-01  1.362827725E+01  1.893679057E-07  0.00000E+00  9.000E+00
      21     1     1     2   511   514  5.145450247E+00 -1.297780766E+00  4.914077419E+02  4.914363933E+02  7.629394531E-06  0.00000E+00  9.000E+00
</event>
<event>
      5  10001  3.52971E+09  4.13110E+00 -1.00000E+00  2.60205E-01
      21    -1     0     0   513   512  0.000000000E+00  0.000000000E+00  1.538513683E+02  1.538513683E+02  0.000000000E+00  0.00000E+00  9.000E+00
       1    -1     0     0   511     0  0.000000000E+00  0.000000000E+00 -1.152571086E+01  1.152571086E+01  0.000000000E+00  0.00000E+00  9.000E+00
      21     1     1     2   511   512  8.429945613E+00 -7.862082596E+00  1.499060108E+02  1.503485564E+02  1.907348633E-06  0.00000E+00  9.000E+00
      21     1     1     2   513   515 -6.358392871E+00  7.943032306E+00 -4.111332154E+00  1.097378577E+01  3.371747881E-07  0.00000E+00  9.000E+00
       1     1     1     2   515     0 -2.071552742E+00 -8.094970992E-02 -3.469021244E+00  4.054736985E+00  3.300000131E-01  0.00000E+00  9.000E+00
</event>
<event>
      5  10001  3.52971E+09  2.27356E+01 -1.00000E+00  1.61899E-01
      21    -1     0     0   514   512  0.000000000E+00  0.000000000E+00  2.618937298E+02  2.618937298E+02  0.000000000E+00  0.00000E+00  9.000E+00
      21    -1     0     0   511   516  0.000000000E+00  0.000000000E+00 -7.179156614E-01  7.179156614E-01  0.000000000E+00  0.00000E+00  9.000E+00
      21     1     1     2   514   516  4.019834766E+00 -1.463040845E+00  3.627884798E+01  3.653018438E+01  0.000000000E+00  0.00000E+00  9.000E+00
      21     1     1     2   513   512 -3.928378582E+00 -9.851372914E-01  6.419753967E+00  7.590513472E+00  3.674277069E-07  0.00000E+00  9.000E+00
      21     1     1     2   511   513 -9.145618392E-02  2.448178136E+00  2.184772122E+02  2.184909476E+02  3.814697266E-06  0.00000E+00  9.000E+00
</event>
<event>
      5  10001  3.52971E+09  4.15657E+00 -1.00000E+00  2.59594E-01
      21    -1     0     0   515   513  0.000000000E+00  0.000000000E+00  3.514244775E+01  3.514244775E+01  0.000000000E+00  0.00000E+00  9.000E+00
      21    -1     0     0   511   517  0.000000000E+00  0.000000000E+00 -9.594558306E+01  9.594558306E+01  0.000000000E+00  0.00000E+00  9.000E+00
      21     1     1     2   515   517  3.550197646E+00  1.199706450E+01 -9.279930518E+01  9.363890485E+01  0.000000000E+00  0.00000E+00  9.000E+00
      21     1     1     2   512   513 -6.795284949E+00 -1.073549796E+01  3.145699388E+01  3.392593813E+01  4.768371582E-07  0.00000E+00  9.000E+00
      21     1     1     2   511   512  3.245087302E+00 -1.261566545E+00  5.391759973E-01  3.523187833E+00  7.450580597E-09  0.00000E+00  9.000E+00
</event>
<event>
      5  10001  3.52971E+09  8.41909E+00 -1.00000E+00  2.04808E-01
      21    -1     0     0   514   512  0.000000000E+00  0.000000000E+00  1.876802446E+01  1.876802446E+01  0.000000000E+00  0.00000E+00  9.000E+00
      21    -1     0     0   511   516  0.000000000E+00  0.000000000E+00 -1.201758791E+01  1.201758791E+01  0.000000000E+00  0.00000E+00  9.000E+00
      21     1     1     2   514   516  7.539413418E-01  1.228485390E+01 -4.718742049E-01  1.231700971E+01  1.967009721E-07  0.00000E+00  9.000E+00
      21     1     1     2   513   512 -2.709664413E+00 -8.410285872E+00  9.977606893E+00  1.332770907E+01  2.064765462E-07  0.00000E+00  9.000E+00
      21     1     1     2   511   513  1.955723071E+00 -3.874568026E+00 -2.755296138E+00  5.140893593E+00  1.228781231E-07  0.00000E+00  9.000E+00
</event>
<event>
      5  10001  3.52971E+09  6.20048E+00 -1.00000E+00  2.23272E-01
      21    -1     0     0   515   512  0.000000000E+00  0.000000000E+00  5.334135955E+01  5.334135955E+01  0.000000000E+00  0.00000E+00  9.000E+00
      21    -1     0     0   511   515  0.000000000E+00  0.000000000E+00 -1.422397730E+01  1.422397730E+01  0.000000000E+00  0.00000E+00  9.000E+00
      21     1     1     2   513   512  8.593653849E+00  1.285719449E+01  4.610452502E+01  4.862906090E+01  0.000000000E+00  0.00000E+00  9.000E+00
      21     1     1     2   511   514 -9.050028479E+00 -6.351212042E+00 -4.848088788E+00  1.207248420E+01  5.930587274E-07  0.00000E+00  9.000E+00
      21     1     1     2   514   513  4.563746300E-01 -6.505982445E+00 -2.139053970E+00  6.863791756E+00  1.365713982E-07  0.00000E+00  9.000E+00
</event>
<event>
      5  10001  3.52971E+09  6.18509E+00 -1.00000E+00  2.23436E-01
      -2    -1     0     0     0   513  0.000000000E+00  0.000000000E+00  2.467862029E+01  2.467862029E+01  0.000000000E+00  0.00000E+00  9.000E+00
      -3    -1     0     0     0   512  0.000000000E+00  0.000000000E+00 -5.036008978E+01  5.036008978E+01  0.000000000E+00  0.00000E+00  9.000E+00
      -3     1     1     2     0   511  1.044734454E+01 -2.636539825E+00 -4.075132834E+01  4.215470450E+01  5.000000000E-01  0.00000E+00  9.000E+00
      -2     1     1     2     0   512 -1.526239952E+01 -1.027866674E+00  1.992793472E+01  2.512426777E+01  3.300000131E-01  0.00000E+00  9.000E+00
      21     1     1     2   511   513  4.815054982E+00  3.664406499E+00 -4.858075869E+00  7.759737793E+00  1.032382731E-07  0.00000E+00  9.000E+00
</event>
<event>
      5  10001  3.52971E+09  4.24892E+01 -1.00000E+00  1.43230E-01
      -3    -1     0     0     0   513  0.000000000E+00  0.000000000E+00  8.192546782E+00  8.192546782E+00  0.000000000E+00  0.00000E+00  9.000E+00
      21    -1     0     0   514   512  0.000000000E+00  0.000000000E+00 -5.721367438E+01  5.721367438E+01  0.000000000E+00  0.00000E+00  9.000E+00
      21     1     1     2   515   512 -1.560548940E+00  7.340133700E-01 -4.708378197E+01  4.711535433E+01  1.168007728E-06  0.00000E+00  9.000E+00
      21     1     1     2   514   513  1.802315078E+00  1.621128452E+00 -9.783871397E+00  1.007970915E+01  4.129530925E-07  0.00000E+00  9.000E+00
      -3     1     1     2     0   515 -2.417661381E-01 -2.355141822E+00  7.846525769E+00  8.211157684E+00  5.000000000E-01  0.00000E+00  9.000E+00
</event>
<event>
      5  10001  3.52971E+09  1.38963E+01 -1.00000E+00  1.80565E-01
      21    -1     0     0   515   513  0.000000000E+00  0.000000000E+00  1.658998468E+00  1.658998468E+00  0.000000000E+00  0.00000E+00  9.000E+00
      21    -1     0     0   511   515  0.000000000E+00  0.000000000E+00 -1.926101665E+02  1.926101665E+02  0.000000000E+00  0.00000E+00  9.000E+00
      -4     1     1     2     0   512 -9.903203847E-01  1.860154644E+00 -2.408041714E-01  2.597863817E+00  1.500000000E+00  0.00000E+00  9.000E+00
       4     1     1     2   511     0 -7.824109170E+00 -1.348679351E+00 -1.371737869E+02  1.374115477E+02  1.500000000E+00  0.00000E+00  9.000E+00
      21     1     1     2   512   513  8.814429555E+00 -5.114752923E-01 -5.353657697E+01  5.425975349E+01  9.536743164E-07  0.00000E+00  9.000E+00
</event>
<event>
      5  10001  3.52971E+09  5.79238E+00 -1.00000E+00  2.27867E-01
      21    -1     0     0   514   515  0.000000000E+00  0.000000000E+00  4.928981740E+00  4.928981740E+00  0.000000000E+00  0.00000E+00  9.000E+00
      21    -1     0     0   513   514  0.000000000E+00  0.000000000E+00 -1.050015393E+02  1.050015393E+02  0.000000000E+00  0.00000E+00  9.000E+00
      21     1     1     2   513   516 -1.454997924E+01  2.084991541E+00 -5.928594154E+01  6.108086402E+01  0.000000000E+00  0.00000E+00  9.000E+00
      21     1     1     2   516   511  2.033755746E+01 -1.849283037E+00 -3.576036263E+01  4.118057342E+01  9.536743164E-07  0.00000E+00  9.000E+00
      21     1     1     2   511   515 -5.787578223E+00 -2.357085040E-01 -5.026253388E+00  7.669083602E+00  1.032382731E-07  0.00000E+00  9.000E+00
</event>
<event>
      5  10001  3.52971E+09  1.45032E+01 -1.00000E+00  1.78769E-01
      21    -1     0     0   513   511  0.000000000E+00  0.000000000E+00  2.447444298E+02  2.447444298E+02  0.000000000E+00  0.00000E+00  9.000E+00
      21    -1     0     0   515   512  0.000000000E+00  0.000000000E+00 -4.783521058E+01  4.783521058E+01  0.000000000E+00  0.00000E+00  9.000E+00
      21     1     1     2   517   511  7.757921876E-01 -1.469193931E+01  2.239325152E+02  2.244152987E+02  0.000000000E+00  0.00000E+00  9.000E+00
      21     1     1     2   515   517  1.355684852E+01  1.247423908E+01 -4.288321222E+01  4.667295440E+01  1.066240300E-06  0.00000E+00  9.000E+00
      21     1     1     2   513   512 -1.433264070E+01  2.217700222E+00  1.585991626E+01  2.149138729E+01  3.769728732E-07  0.00000E+00  9.000E+00
</event>
<event>
      5  10001  3.52971E+09  4.71684E+00 -1.00000E+00  2.47660E-01
      -4    -1     0     0     0   512  0.000000000E+00  0.000000000E+00  8.541875268E+01  8.541875268E+01  0.000000000E+00  0.00000E+00  9.000E+00
      -1    -1     0     0     0   513  0.000000000E+00  0.000000000E+00 -2.609216730E+01  2.609216730E+01  0.000000000E+00  0.00000E+00  9.000E+00
      -4     1     1     2     0   511  6.835697167E+00 -6.762652362E-01  7.582825919E+01  7.615352246E+01  1.500000000E+00  0.00000E+00  9.000E+00
      -1     1     1     2     0   512 -1.168930194E+01  1.164603100E+00 -2.382063222E+01  2.656176763E+01  3.300000131E-01  0.00000E+00  9.000E+00
      21     1     1     2   511   513  4.853604776E+00 -4.883378635E-01  7.318958402E+00  8.795629897E+00  1.192092896E-07  0.00000E+00  9.000E+00
</event>
<event>
      5  10001  3.52971E+09  1.43339E+01 -1.00000E+00  1.79259E-01
      21    -1     0     0   514   512  0.000000000E+00  0.000000000E+00  7.101260555E+00  7.101260555E+00  0.000000000E+00  0.00000E+00  9.000E+00
      -2    -1     0     0     0   513  0.000000000E+00  0.000000000E+00 -4.467029081E+01  4.467029081E+01  0.000000000E+00  0.00000E+00  9.000E+00
      -2     1     1     2     0   512  9.082846158E+00  5.954048954E+00 -3.871634447E+01  4.021210044E+01  3.300000131E-01  0.00000E+00  9.000E+00
      21     1     1     2   515   513  3.170238386E-01 -6.003854774E-01  1.555681749E-01  6.965402305E-01  1.524640764E-08  0.00000E+00  9.000E+00
      21     1     1     2   514   515 -9.399869997E+00 -5.353663476E+00  9.917460322E-01  1.086291069E+01  9.483040915E-08  0.00000E+00  9.000E+00
</event>
<event>
      5  10001  3.52971E+09  6.12232E+00 -1.00000E+00  2.24113E-01
      21    -1     0     0   511   515  0.000000000E+00  0.000000000E+00  2.531710265E+00  2.531710265E+00  0.000000000E+00  0.00000E+00  9.000E+00
      21    -1     0     0   512   516  0.000000000E+00  0.000000000E+00 -5.372188601E+01  5.372188601E+01  0.000000000E+00  0.00000E+00  9.000E+00
      21     1     1     2   511   516 -8.790848889E-02 -1.037169883E+01 -1.436108665E+01  1.771498446E+01  3.371747881E-07  0.00000E+00  9.000E+00
      21     1     1     2   512   513  2.052447139E+00  3.824918585E+00 -1.114291107E+01  1.195855379E+01  2.064765462E-07  0.00000E+00  9.000E+00
      21     1     1     2   513   515 -1.964538650E+00  6.546780248E+00 -2.568617801E+01  2.658005803E+01  4.768371582E-07  0.00000E+00  9.000E+00
</event>
<event>
      5  10001  3.52971E+09  3.93774E+00 -1.00000E+00  2.65077E-01
      21    -1     0     0   514   512  0.000000000E+00  0.000000000E+00  8.666606088E+01  8.666606088E+01  0.000000000E+00  0.00000E+00  9.000E+00
      21    -1     0     0   517   515  0.000000000E+00  0.000000000E+00 -2.877530801E+00  2.877530801E+00  0.000000000E+00  0.00000E+00  9.000E+00
      21     1     1     2   514   515  6.580316079E+00  8.507810977E+00  6.965966232E+01  7.048511873E+01  9.536743164E-07  0.00000E+00  9.000E+00
      21     1     1     2   517   511 -2.806232154E+00 -8.101573346E+00  7.367467550E+00  1.130442425E+01  3.153981341E-07  0.00000E+00  9.000E+00
      21     1     1     2   511   512 -3.774083924E+00 -4.062376305E-01  6.761400203E+00  7.754048696E+00  1.460009660E-07  0.00000E+00  9.000E+00
</event>
<event>
      5  10001  3.52971E+09  1.74846E+00 -1.00000E+00  3.92685E-01
      -4    -1     0     0     0   512  0.000000000E+00  0.000000000E+00  3.162585748E+00  3.162585748E+00  0.000000000E+00  0.00000E+00  9.000E+00
      21    -1     0     0   511   513  0.000000000E+00  0.000000000E+00 -1.349859635E+02  1.349859635E+02  0.000000000E+00  0.00000E+00  9.000E+00
      21     1     1     2   514   513 -1.478048828E+01 -5.799248480E+00 -5.058475557E+01  5.301803102E+01  0.000000000E+00  0.00000E+00  9.000E+00
      21     1     1     2   511   512  1.835794048E+01  8.933954743E+00 -6.715214171E+01  7.018717591E+01  1.651812370E-06  0.00000E+00  9.000E+00
      -4     1     1     2     0   514 -3.577452198E+00 -3.134706263E+00 -1.408648045E+01  1.494334230E+01  1.500000000E+00  0.00000E+00  9.000E+00
</event>
<event>
      5  10001  3.52971E+09  7.96229E+00 -1.00000E+00  2.07934E-01
      -2    -1     0     0     0   511  0.000000000E+00  0.000000000E+00  7.110416993E+00  7.110416993E+00  0.000000000E+00  0.00000E+00  9.000E+00
      21    -1     0     0   516   514  0.000000000E+00  0.000000000E+00 -1.326933939E+02  1.326933939E+02  0.000000000E+00  0.00000E+00  9.000E+00
      21     1     1     2   515   514  8.415492330E+00 -5.831719367E+00 -1.397196390E+01  1.732181391E+01  3.371747881E-07  0.00000E+00  9.000E+00
      21     1     1     2   516   511 -1.193421554E+01 -1.310527573E+00 -1.136291047E+02  1.142616139E+02  2.697398305E-06  0.00000E+00  9.000E+00
      -2     1     1     2     0   515  3.518723205E+00  7.142246940E+00  2.018091649E+00  8.220383096E+00  3.300000131E-01  0.00000E+00  9.000E+00
</event>
<event>
      5  10001  3.52971E+09  4.51173E+00 -1.00000E+00  2.51722E-01
      21    -1     0     0   512   514  0.000000000E+00  0.000000000E+00  4.448174252E+00  4.448174252E+00  0.000000000E+00  0.00000E+00  9.000E+00
      21    -1     0     0   513   512  0.000000000E+00  0.000000000E+00 -7.958810864E+01  7.958810864E+01  0.000000000E+00  0.00000E+00  9.000E+00
      21     1     1     2   513   515  9.796697028E+00 -3.070694452E+00 -7.228053482E+01  7.300602819E+01  9.536743164E-07  0.00000E+00  9.000E+00
      21     1     1     2   511   514 -3.441046838E+00 -1.833799468E-01 -1.516256146E+00  3.764766161E+00  9.424321831E-08  0.00000E+00  9.000E+00
      21     1     1     2   515   511 -6.355650190E+00  3.254074399E+00 -1.343143416E+00  7.265488543E+00  3.650024150E-08  0.00000E+00  9.000E+00
</event>
<event>
      5  10001  3.52971E+09  5.98048E+00 -1.00000E+00  2.25686E-01
      21    -1     0     0   516   511  0.000000000E+00  0.000000000E+00  5.329541344E+01  5.329541344E+01  0.000000000E+00  0.00000E+00  9.000E+00
       1    -1     0     0   514     0  0.000000000E+00  0.000000000E+00 -1.127413675E+01  1.127413675E+01  0.000000000E+00  0.00000E+00  9.000E+00
       2     1     1     2   514     0 -1.280737745E+00  1.272584685E+01  4.543537333E+01  4.720243126E+01  3.300000131E-01  0.00000E+00  9.000E+00
       1     1     1     2   516     0 -9.067737824E-01 -9.875533068E+00 -7.106219691E+00  1.220473885E+01  3.300000131E-01  0.00000E+00  9.000E+00
      -2     1     1     2     0   511  2.187511527E+00 -2.850313786E+00  3.692123052E+00  5.162380072E+00  3.300000131E-01  0.00000E+00  9.000E+00
</event>
<event>
      5  10001  3.52971E+09  3.55856E+00 -1.00000E+00  2.76031E-01
       2    -1     0     0   512     0  0.000000000E+00  0.000000000E+00  3.818056713E+02  3.818056713E+02  0.000000000E+00  0.00000E+00  9.000E+00
       2    -1     0     0   513     0  0.000000000E+00  0.000000000E+00 -1.709760343E+02  1.709760343E+02  0.000000000E+00  0.00000E+00  9.000E+00
      21     1     1     2   513   511 -2.708377367E+00 -1.282155219E+01 -1.180864228E+02  1.188113242E+02  0.000000000E+00  0.00000E+00  9.000E+00
       2     1     1     2   512     0  1.750679925E+00  1.624880907E+01 -5.124684693E+01  5.379067667E+01  3.300000131E-01  0.00000E+00  9.000E+00
       2     1     1     2   511     0  9.576974417E-01 -3.427256875E+00  3.801629068E+02  3.801797047E+02  3.300000131E-01  0.00000E+00  9.000E+00
</event>
<event>
      5  10001  3.52971E+09  5.87869E+00 -1.00000E+00  2.26852E-01
      21    -1     0     0   514   513  0.000000000E+00  0.000000000E+00  1.861993464E+02  1.861993464E+02  0.000000000E+00  0.00000E+00  9.000E+00
      21    -1     0     0   511   515  0.000000000E+00  0.000000000E+00 -1.061045041E+00  1.061045041E+00  0.000000000E+00  0.00000E+00  9.000E+00
      21     1     1     2   514   515  2.325534337E+00 -9.043484281E+00  1.449053620E+02  1.452059112E+02  1.907348633E-06  0.00000E+00  9.000E+00
      21     1     1     2   512   513 -4.473735006E+00  7.598473131E+00  3.622756845E+01  3.728522247E+01  4.768371582E-07  0.00000E+00  9.000E+00
      21     1     1     2   511   512  2.148200669E+00  1.445011149E+00  4.005370900E+00  4.769257739E+00  1.192092896E-07  0.00000E+00  9.000E+00
</event>
<event>
      5  10001  3.52971E+09  1.38230E+01 -1.00000E+00  1.80790E-01
      21    -1     0     0   511   512  0.000000000E+00  0.000000000E+00  3.737426886E+00  3.737426886E+00  0.000000000E+00  0.00000E+00  9.000E+00
       1    -1     0     0   513     0  0.000000000E+00  0.000000000E+00 -2.738051618E+02  2.738051618E+02  0.000000000E+00  0.00000E+00  9.000E+00
      21     1     1     2   513   512 -6.643846011E+00  1.568548236E+01 -2.178612356E+01  2.765520252E+01  7.907449699E-07  0.00000E+00  9.000E+00
       1     1     1     2   514     0  1.366039989E+01 -9.085743355E+00 -1.988536375E+02  1.995295349E+02  3.300000131E-01  0.00000E+00  9.000E+00
      21     1     1     2   511   514 -7.016553881E+00 -6.599739001E+00 -4.942797386E+01  5.035785126E+01  6.743495762E-07  0.00000E+00  9.000E+00
</event>
<event>
      5  10001  3.52971E+09  7.00276E+00 -1.00000E+00  2.15524E-01
      21    -1     0     0   515   513  0.000000000E+00  0.000000000E+00  8.481105739E+02  8.481105739E+02  0.000000000E+00  0.00000E+00  9.000E+00
      21    -1     0     0   512   517  0.000000000E+00  0.000000000E+00 -3.425173951E+01  3.425173951E+01  0.000000000E+00  0.00000E+00  9.000E+00
      21     1     1     2   515   516  5.566169129E-01 -1.198771376E+01  1.962329342E+01  2.300192923E+01  1.066240300E-06  0.00000E+00  9.000E+00
      21     1     1     2   512   513 -6.516047897E+00  8.310236606E+00  8.263873393E+02  8.264548103E+02  1.868812365E-05  0.00000E+00  9.000E+00
      21     1     1     2   516   517  5.959430984E+00  3.677477155E+00 -3.215179833E+01  3.290557387E+01  9.536743164E-07  0.00000E+00  9.000E+00
</event>
<event>
      5  10001  3.52971E+09  4.23532E+00 -1.00000E+00  2.57746E-01
      21    -1     0     0   511   513  0.000000000E+00  0.000000000E+00  1.217775582E+01  1.217775582E+01  0.000000000E+00  0.00000E+00  9.000E+00
       1    -1     0     0   514     0  0.000000000E+00  0.000000000E+00 -4.210937565E+01  4.210937565E+01  0.000000000E+00  0.00000E+00  9.000E+00
      21     1     1     2   512   513  1.594748260E+01  7.051682099E+00 -1.856436339E+00  1.753552901E+01  3.082776199E-07  0.00000E+00  9.000E+00
      21     1     1     2   514   512 -1.180632996E+01 -7.937642153E+00 -8.185392025E+00  1.641329439E+01  0.000000000E+00  0.00000E+00  9.000E+00
       1     1     1     2   511     0 -4.141152645E+00  8.859600543E-01 -1.988979147E+01  2.033830807E+01  3.300000131E-01  0.00000E+00  9.000E+00
</event>
<event>
      5  10001  3.52971E+09  1.07063E+01 -1.00000E+00  1.92388E-01
      -2    -1     0     0     0   515  0.000000000E+00  0.000000000E+00  1.170001401E+01  1.170001401E+01  0.000000000E+00  0.00000E+00  9.000E+00
      21    -1     0     0   515   511  0.000000000E+00  0.000000000E+00 -1.749984327E+02  1.749984327E+02  0.000000000E+00  0.00000E+00  9.000E+00
      -2     1     1     2     0   512  2.406236455E+01  3.898158238E+00 -3.946558980E+00  2.469569300E+01  3.300000131E-01  0.00000E+00  9.000E+00
      21     1     1     2   513   511 -1.844535712E+01 -9.864048776E+00 -1.090733472E+02  1.110609100E+02  1.348699152E-06  0.00000E+00  9.000E+00
      21     1     1     2   512   513 -5.617007429E+00  5.965890538E+00 -5.027851246E+01  5.094184368E+01  0.000000000E+00  0.00000E+00  9.000E+00
</event>
<event>
      5  10001  3.52971E+09  5.75632E+00 -1.00000E+00  2.28299E-01
      21    -1     0     0   514   513  0.000000000E+00  0.000000000E+00  5.615431823E+01  5.615431823E+01  0.000000000E+00  0.00000E+00  9.000E+00
      21    -1     0     0   512   516  0.000000000E+00  0.000000000E+00 -4.841085387E+00  4.841085387E+00  0.000000000E+00  0.00000E+00  9.000E+00
      21     1     1     2   514   516  2.712536712E+00  1.113754744E+01  4.285106096E+01  4.435782055E+01  9.536743164E-07  0.00000E+00  9.000E+00
      21     1     1     2   511   513 -2.922604748E+00 -5.686648270E+00 -2.046241167E-01  6.396988204E+00  1.604039233E-07  0.00000E+00  9.000E+00
      21     1     1     2   512   511  2.100680365E-01 -5.450899166E+00  8.666796000E+00  1.024059487E+01  0.000000000E+00  0.00000E+00  9.000E+00
</event>
<event>
      5  10001  3.52971E+09  8.01788E+00 -1.00000E+00  2.07539E-01
      21    -1     0     0   515   514  0.000000000E+00  0.000000000E+00  5.014561490E+02  5.014561490E+02  0.000000000E+00  0.00000E+00  9.000E+00
      -1    -1     0     0     0   515  0.000000000E+00  0.000000000E+00 -2.176925487E+01  2.176925487E+01  0.000000000E+00  0.00000E+00  9.000E+00
      -1     1     1     2     0   513 -2.247219211E+01  5.293762450E+00 -1.460065432E+01  2.731869957E+01  3.300000131E-01  0.00000E+00  9.000E+00
      21     1     1     2   513   512  1.606161012E+01 -1.010941851E+01  1.166263355E+02  1.181603902E+02  2.697398305E-06  0.00000E+00  9.000E+00
      21     1     1     2   512   514  6.410581998E+00  4.815656060E+00  3.776612130E+02  3.777463142E+02  0.000000000E+00  0.00000E+00  9.000E+00
</event>
<event>
      5  10001  3.52971E+09  6.23299E+00 -1.00000E+00  2.22927E-01
      21    -1     0     0   511   513  0.000000000E+00  0.000000000E+00  1.260121734E+02  1.260121734E+02  0.000000000E+00  0.00000E+00  9.000E+00
      21    -1     0     0   515   514  0.000000000E+00  0.000000000E+00 -1.372060981E+01  1.372060981E+01  0.000000000E+00  0.00000E+00  9.000E+00
      21     1     1     2   511   514 -1.128862212E+01  1.158709177E+01  2.603256654E+01  3.064944054E+01  3.371747881E-07  0.00000E+00  9.000E+00
      21     1     1     2   516   513  9.397827085E+00 -1.752636960E+01  9.571429220E+01  9.775847031E+01  1.907348633E-06  0.00000E+00  9.000E+00
      21     1     1     2   515   516  1.890795036E+00  5.939277834E+00 -9.455295162E+00  1.132487235E+01  4.298152060E-07  0.00000E+00  9.000E+00
</event>
<event>
      5  10001  3.52971E+09  8.63276E+00 -1.00000E+00  2.03435E-01
      21    -1     0     0   512   514  0.000000000E+00  0.000000000E+00  1.815362959E+02  1.815362959E+02  0.000000000E+00  0.00000E+00  9.000E+00
      21    -1     0     0   515   512  0.000000000E+00  0.000000000E+00 -1.439409778E+02  1.439409778E+02  0.000000000E+00  0.00000E+00  9.000E+00
      21     1     1     2   515   517 -7.728749102E+00  1.151387390E+01 -1.432596054E+02  1.439292096E+02  3.814697266E-06  0.00000E+00  9.000E+00
      21     1     1     2   511   514  7.208874055E+00 -5.314066198E+00  7.961127399E+01  8.011343277E+01  9.536743164E-07  0.00000E+00  9.000E+00
      21     1     1     2   517   511  5.198750469E-01 -6.199807703E+00  1.012436494E+02  1.014346313E+02  1.907348633E-06  0.00000E+00  9.000E+00
</event>
<event>
      5  10001  3.52971E+09  9.86614E+00 -1.00000E+00  1.96431E-01
      21    -1     0     0   513   514  0.000000000E+00  0.000000000E+00  1.911465852E+02  1.911465852E+02  0.000000000E+00  0.00000E+00  9.000E+00
      21    -1     0     0   516   513  0.000000000E+00  0.000000000E+00 -2.600085645E+01  2.600085645E+01  0.000000000E+00  0.00000E+00  9.000E+00
      21     1     1     2   511   514  8.769103628E+00  7.591067803E+00  1.881139879E+02  1.884712019E+02  0.000000000E+00  0.00000E+00  9.000E+00
      21     1     1     2   512   511 -4.075334132E+00 -1.070019589E+01 -1.398333500E+01  1.807307938E+01  1.668930054E-06  0.00000E+00  9.000E+00
      21     1     1     2   516   512 -4.693769497E+00  3.109128090E+00 -8.984924129E+00  1.060316043E+01  7.817075878E-07  0.00000E+00  9.000E+00
</event>
<event>
      5  10001  3.52971E+09  4.25982E+00 -1.00000E+00  2.57184E-01
      21    -1     0     0   515   511  0.000000000E+00  0.000000000E+00  9.782619425E+00  9.782619425E+00  0.000000000E+00  0.00000E+00  9.000E+00
      21    -1     0     0   516   515  0.000000000E+00  0.000000000E+00 -1.144505132E+02  1.144505132E+02  0.000000000E+00  0.00000E+00  9.000E+00
      21     1     1     2   516   517 -9.769403912E+00 -1.261316467E+01 -1.036291713E+02  1.048500754E+02  1.348699152E-06  0.00000E+00  9.000E+00
      21     1     1     2   517   512  5.509697448E+00  1.264473181E+01 -3.799648711E+00  1.430675850E+01  2.021291847E-07  0.00000E+00  9.000E+00
      21     1     1     2   512   511  4.259706464E+00 -3.156714504E-02  2.760926170E+00  5.076298746E+00  8.429369702E-08  0.00000E+00  9.000E+00
</event>
<event>
      5  10001  3.52971E+09  5.27804E+00 -1.00000E+00  2.34475E-01
      21    -1     0     0   513   516  0.000000000E+00  0.000000000E+00  1.360167517E+02  1.360167517E+02  0.000000000E+00  0.00000E+00  9.000E+00
      21    -1     0     0   515   511  0.000000000E+00  0.000000000E+00 -3.942682970E+00  3.942682970E+00  0.000000000E+00  0.00000E+00  9.000E+00
      21     1     1     2   513   511  9.013629170E+00 -8.603740328E+00  7.137300719E+01  7.245257768E+01  1.651812370E-06  0.00000E+00  9.000E+00
      21     1     1     2   514   516 -3.738414966E+00  8.776434043E+00  6.144104626E+01  6.217719603E+01  1.348699152E-06  0.00000E+00  9.000E+00
      21     1     1     2   515   514 -5.275214204E+00 -1.726937153E-01 -7.399847550E-01  5.329660914E+00  3.373393840E-07  0.00000E+00  9.000E+00
</event>
<event>
      5  10001  3.52971E+09  1.64401E+01 -1.00000E+00  1.73710E-01
       1    -1     0     0   511     0  0.000000000E+00  0.000000000E+00  4.949379994E+00  4.949379994E+00  0.000000000E+00  0.00000E+00  9.000E+00
      21    -1     0     0   512   514  0.000000000E+00  0.000000000E+00 -7.964711011E+01  7.964711011E+01  0.000000000E+00  0.00000E+00  9.000E+00
      21     1     1     2   511   514  1.037534674E+01 -3.155781441E+00 -7.000521092E+01  7.084021692E+01  9.536743164E-07  0.00000E+00  9.000E+00
      21     1     1     2   512   513 -2.387403075E+00 -1.634138660E+00 -3.206391255E+00  4.318685852E+00  1.115100797E-07  0.00000E+00  9.000E+00
       1     1     1     2   513     0 -7.987943661E+00  4.789920101E+00 -1.486127938E+00  9.437587338E+00  3.300000131E-01  0.00000E+00  9.000E+00
</event>
<event>
      5  10001  3.52971E+09  8.80224E+00 -1.00000E+00  2.02383E-01
      21    -1     0     0   515   512  0.000000000E+00  0.000000000E+00  2.286117571E+01  2.286117571E+01  0.000000000E+00  0.00000E+00  9.000E+00
      21    -1     0     0   517   511  0.000000000E+00  0.000000000E+00 -2.094123656E+01  2.094123656E+01  0.000000000E+00  0.00000E+00  9.000E+00
      21     1     1     2   515   516  2.893437078E+00 -8.067855169E+00 -5.348472421E+00  1.010289178E+01  3.576278687E-07  0.00000E+00  9.000E+00
      21     1     1     2   517   512 -1.164445110E+01  9.016142768E+00  1.568903197E+01  2.151812715E+01  5.057621821E-07  0.00000E+00  9.000E+00
      21     1     1     2   516   511  8.751014021E+00 -9.482875984E-01 -8.420620397E+00  1.218139334E+01  1.192092896E-07  0.00000E+00  9.000E+00
</event>
<event>
      5  10001  3.52971E+09  3.35778E+00 -1.00000E+00  2.82759E-01
      21    -1     0     0   513   511  0.000000000E+00  0.000000000E+00  2.672153808E+00  2.672153808E+00  0.000000000E+00  0.00000E+00  9.000E+00
      21    -1     0     0   516   514  0.000000000E+00  0.000000000E+00 -4.739815190E+01  4.739815190E+01  0.000000000E+00  0.00000E+00  9.000E+00
      21     1     1     2   513   514 -8.726311453E+00  3.110534574E+00 -1.135432439E+01  1.465416730E+01  1.685873940E-07  0.00000E+00  9.000E+00
      21     1     1     2   512   511  9.359461258E+00 -1.118622571E+00 -3.003022520E+01  3.147483530E+01  3.371747881E-07  0.00000E+00  9.000E+00
      21     1     1     2   516   512 -6.331498055E-01 -1.991912004E+00 -3.341448501E+00  3.941303108E+00  9.424321831E-08  0.00000E+00  9.000E+00
</event>
<event>
      5  10001  3.52971E+09  3.02322E+00 -1.00000E+00  2.95845E-01
      21    -1     0     0   515   513  0.000000000E+00  0.000000000E+00  1.512835252E+01  1.512835252E+01  0.000000000E+00  0.00000E+00  9.000E+00
       2    -1     0     0   512     0  0.000000000E+00  0.000000000E+00 -5.403833045E+01  5.403833045E+01  0.000000000E+00  0.00000E+00  9.000E+00
      21     1     1     2   512   511  1.128522968E-01 -1.170322140E+01 -6.328055537E+00  1.330497703E+01  3.576278687E-07  0.00000E+00  9.000E+00
       2     1     1     2   515     0 -1.772822159E+00  9.176638040E+00 -4.352001830E+01  4.451353139E+01  3.300000131E-01  0.00000E+00  9.000E+00
      21     1     1     2   511   513  1.659969862E+00  2.526583364E+00  1.093809591E+01  1.134817454E+01  2.064765462E-07  0.00000E+00  9.000E+00
</event>
<event>
      5  10001  3.52971E+09  5.43684E+00 -1.00000E+00  2.32325E-01
      21    -1     0     0   514   512  0.000000000E+00  0.000000000E+00  5.643323755E+01  5.643323755E+01  0.000000000E+00  0.00000E+00  9.000E+00
      21    -1     0     0   511   513  0.000000000E+00  0.000000000E+00 -7.007349238E+00  7.007349238E+00  0.000000000E+00  0.00000E+00  9.000E+00
      21     1     1     2   514   513 -1.604954345E+00  1.077244322E+01 -1.277357321E+00  1.096599531E+01  2.811545471E-07  0.00000E+00  9.000E+00
      21     1     1     2   511   515  2.544856756E+00 -4.862365678E+00  3.843237215E+01  3.882223751E+01  0.000000000E+00  0.00000E+00  9.000E+00
      21     1     1     2   515   512 -9.399024114E-01 -5.910077540E+00  1.227087348E+01  1.365235398E+01  2.384185791E-07  0.00000E+00  9.000E+00
</event>
<event>
      5  10001  3.52971E+09  3.79163E+00 -1.00000E+00  2.69059E-01
       1    -1     0     0   513     0  0.000000000E+00  0.000000000E+00  1.179679575E+02  1.179679575E+02  0.000000000E+00  0.00000E+00  9.000E+00
       4    -1     0     0   515     0  0.000000000E+00  0.000000000E+00 -3.054840887E+00  3.054840887E+00  0.000000000E+00  0.00000E+00  9.000E+00
      21     1     1     2   515   511  6.157339411E+00 -7.031263241E+00  4.390322649E+01  4.488702248E+01  6.743495762E-07  0.00000E+00  9.000E+00
       4     1     1     2   513     0 -8.934728121E+00  1.279586574E+01  2.384492392E+01  2.853758825E+01  1.500000000E+00  0.00000E+00  9.000E+00
       1     1     1     2   511     0  2.777388711E+00 -5.764602503E+00  4.716496623E+01  4.759818767E+01  3.300000131E-01  0.00000E+00  9.000E+00
</event>
<event>
      5  10001  3.52971E+09  2.05482E+01 -1.00000E+00  1.65403E-01
      21    -1     0     0   512   514  0.000000000E+00  0.000000000E+00  5.489786026E+00  5.489786026E+00  0.000000000E+00  0.00000E+00  9.000E+00
       2    -1     0     0   511     0  0.000000000E+00  0.000000000E+00 -2.282682756E+01  2.282682756E+01  0.000000000E+00  0.00000E+00  9.000E+00
      21     1     1     2   511   514 -2.072530778E+00  5.811343613E-01 -3.029306558E+00  3.716153817E+00  1.576990671E-07  0.00000E+00  9.000E+00
       2     1     1     2   513     0  3.095283197E+00  3.443114661E+00 -1.827645110E+01  1.885665351E+01  3.300000131E-01  0.00000E+00  9.000E+00
      21     1     1     2   512   513 -1.022752419E+00 -4.024249022E+00  3.968716124E+00  5.743806262E+00  1.576990671E-07  0.00000E+00  9.000E+00
</event>
<event>
      5  10001  3.52971E+09  6.49482E+00 -1.00000E+00  2.20251E-01
      21    -1     0     0   514   513  0.000000000E+00  0.000000000E+00  7.975364164E+00  7.975364164E+00  0.000000000E+00  0.00000E+00  9.000E+00
      21    -1     0     0   511   516  0.000000000E+00  0.000000000E+00 -5.516535670E+01  5.516535670E+01  0.000000000E+00  0.00000E+00  9.000E+00
      21     1     1     2   515   516 -1.450591244E+01 -6.049176361E+00 -1.320195409E+01  2.052573074E+01  1.685873940E-07  0.00000E+00  9.000E+00
      21     1     1     2   511   513  1.814546981E+01  6.699343270E-01 -2.977018299E+01  3.487077117E+01  4.768371582E-07  0.00000E+00  9.000E+00
      21     1     1     2   514   515 -3.639557363E+00  5.379242034E+00 -4.217855450E+00  7.744218956E+00  1.032382731E-07  0.00000E+00  9.000E+00
</event>
<event>
      5  10001  3.52971E+09  3.90760E+00 -1.00000E+00  2.65876E-01
      21    -1     0     0   512   513  0.000000000E+00  0.000000000E+00  5.632795317E+01  5.632795317E+01  0.000000000E+00  0.00000E+00  9.000E+00
      21    -1     0     0   517   512  0.000000000E+00  0.000000000E+00 -3.189426212E+01  3.189426212E+01  0.000000000E+00  0.00000E+00  9.000E+00
      21     1     1     2   511   513  1.180131481E+01 -1.852570390E+00  5.436685523E+01  5.566379430E+01  6.743495762E-07  0.00000E+00  9.000E+00
      21     1     1     2   516   511 -6.469576809E+00  3.320273465E+00 -1.751659667E+01  1.896604331E+01  5.331201500E-07  0.00000E+00  9.000E+00
      21     1     1     2   517   516 -5.331738004E+00 -1.467703075E+00 -1.241656751E+01  1.359237768E+01  4.460403188E-07  0.00000E+00  9.000E+00
</event>
<event>
      5  10001  3.52971E+09  8.23431E+00 -1.00000E+00  2.06040E-01
      21    -1     0     0   514   511  0.000000000E+00  0.000000000E+00  1.414502659E+02  1.414502659E+02  0.000000000E+00  0.00000E+00  9.000E+00
      21    -1     0     0   513   515  0.000000000E+00  0.000000000E+00 -3.815976850E+00  3.815976850E+00  0.000000000E+00  0.00000E+00  9.000E+00
      21     1     1     2   514   515 -2.492071981E+00 -1.357464267E+01  2.343519644E+01  2.719723844E+01  4.768371582E-07  0.00000E+00  9.000E+00
      21     1     1     2   513   516  9.312039915E+00  1.818896481E+01  6.353605446E+01  6.674116229E+01  6.743495762E-07  0.00000E+00  9.000E+00
      21     1     1     2   516   511 -6.819967934E+00 -4.614322140E+00  5.066303817E+01  5.132784204E+01  9.536743164E-07  0.00000E+00  9.000E+00
</event>
<event>
      5  10001  3.52971E+09  4.45752E+00 -1.00000E+00  2.52851E-01
       2    -1     0     0   514     0  0.000000000E+00  0.000000000E+00  4.375925696E+01  4.375925696E+01  0.000000000E+00  0.00000E+00  9.000E+00
      21    -1     0     0   516   514  0.000000000E+00  0.000000000E+00 -5.916282877E+01  5.916282877E+01  0.000000000E+00  0.00000E+00  9.000E+00
      21     1     1     2   516   512 -1.188121197E+01 -5.237563328E+00 -5.633190550E+01  5.780898585E+01  1.168007728E-06  0.00000E+00  9.000E+00
       2     1     1     2   513     0  9.015410743E+00  7.968233682E+00  3.878882154E+01  4.061344550E+01  3.300000131E-01  0.00000E+00  9.000E+00
      21     1     1     2   512   513  2.865801232E+00 -2.730670354E+00  2.139512151E+00  4.499654379E+00  4.214684851E-08  0.00000E+00  9.000E+00
</event>
<event>
      5  10001  3.52971E+09  5.29512E+00 -1.00000E+00  2.34239E-01
      21    -1     0     0   514   513  0.000000000E+00  0.000000000E+00  1.583520248E+01  1.583520248E+01  0.000000000E+00  0.00000E+00  9.000E+00
      21    -1     0     0   512   515  0.000000000E+00  0.000000000E+00 -6.237094431E+01  6.237094431E+01  0.000000000E+00  0.00000E+00  9.000E+00
      21     1     1     2   511   515 -1.639315704E+01 -8.076276359E+00 -5.229464278E+01  5.539577151E+01  6.743495762E-07  0.00000E+00  9.000E+00
      21     1     1     2   512   513  1.486121919E+01  3.007600595E+00  2.433058194E-01  1.516445498E+01  3.610938318E-07  0.00000E+00  9.000E+00
      21     1     1     2   514   511  1.531937851E+00  5.068675764E+00  5.515595127E+00  7.645920296E+00  1.460009660E-07  0.00000E+00  9.000E+00
</event>
<event>
      5  10001  3.52971E+09  3.69557E+01 -1.00000E+00  1.47002E-01
      21    -1     0     0   516   512  0.000000000E+00  0.000000000E+00  2.949784035E+00  2.949784035E+00  0.000000000E+00  0.00000E+00  9.000E+00
       1    -1     0     0   513     0  0.000000000E+00  0.000000000E+00 -3.253103890E+02  3.253103890E+02  0.000000000E+00  0.00000E+00  9.000E+00
      21     1     1     2   513   512  1.530018691E+01 -9.866121758E-01 -1.292695783E+02  1.301756237E+02  0.000000000E+00  0.00000E+00  9.000E+00
      21     1     1     2   516   515 -8.588175162E+00  1.826158105E+01 -5.195573974E+01  5.573724955E+01  9.536743164E-07  0.00000E+00  9.000E+00
       1     1     1     2   515     0 -6.712011745E+00 -1.727496888E+01 -1.411352869E+02  1.423472998E+02  3.300000131E-01  0.00000E+00  9.000E+00
</event>
<event>
      5  10001  3.52971E+09  1.11100E+01 -1.00000E+00  1.90613E-01
       2    -1     0     0   511     0  0.000000000E+00  0.000000000E+00  1.188353265E+03  1.188353265E+03  0.000000000E+00  0.00000E+00  9.000E+00
      21    -1     0     0   512   514  0.000000000E+00  0.000000000E+00 -9.393654103E-01  9.393654103E-01  0.000000000E+00  0.00000E+00  9.000E+00
      21     1     1     2   511   514 -7.038847336E+00 -4.610226913E+00  5.232946212E+01  5.300162422E+01  1.784161275E-06  0.00000E+00  9.000E+00
      21     1     1     2   512   513  1.544721204E+01 -2.650932196E+00  1.065528529E+02  1.076993698E+02  1.348699152E-06  0.00000E+00  9.000E+00
       2     1     1     2   513     0 -8.408364708E+00  7.261159109E+00  1.028531585E+03  1.028591636E+03  3.300000131E-01  0.00000E+00  9.000E+00
</event>
<event>
      5  10001  3.52971E+09  4.56134E+00 -1.00000E+00  2.50710E-01
      21    -1     0     0   511   512  0.000000000E+00  0.000000000E+00  9.068742339E+01  9.068742339E+01  0.000000000E+00  0.00000E+00  9.000E+00
      21    -1     0     0   516   515  0.000000000E+00  0.000000000E+00 -8.936879391E+01  8.936879391E+01  0.000000000E+00  0.00000E+00  9.000E+00
      21     1     1     2   516   517  8.678285902E+00  3.793598985E+00 -8.819475636E+01  8.870185505E+01  9.536743164E-07  0.00000E+00  9.000E+00
      21     1     1     2   517   512 -1.115496146E+01 -7.623985870E+00  7.199523784E+01  7.325211667E+01  9.536743164E-07  0.00000E+00  9.000E+00
      21     1     1     2   511   515  2.476675559E+00  3.830386886E+00  1.751814800E+01  1.810224557E+01  0.000000000E+00  0.00000E+00  9.000E+00
</event>
<event>
      5  10001  3.52971E+09  2.08222E+00 -1.00000E+00  3.55085E-01
      21    -1     0     0   514   512  0.000000000E+00  0.000000000E+00  1.103726353E+01  1.103726353E+01  0.000000000E+00  0.00000E+00  9.000E+00
      -4    -1     0     0     0   516  0.000000000E+00  0.000000000E+00 -4.786678140E+01  4.786678140E+01  0.000000000E+00  0.00000E+00  9.000E+00
      -4     1     1     2     0   512 -1.008280303E+01 -8.063467792E+00 -3.414191320E+01  3.653221410E+01  1.500000000E+00  0.00000E+00  9.000E+00
      21     1     1     2   514   513  8.748820049E+00  9.658835979E+00  5.336686484E+00  1.408244252E+01  5.960464478E-08  0.00000E+00  9.000E+00
      21     1     1     2   513   516  1.333982982E+00 -1.595368187E+00 -8.024291147E+00  8.289388316E+00  0.000000000E+00  0.00000E+00  9.000E+00
</event>
<event>
      5  10001  3.52971E+09  6.12404E+00 -1.00000E+00  2.24094E-01
       1    -1     0     0   513     0  0.000000000E+00  0.000000000E+00  2.549886904E+02  2.549886904E+02  0.000000000E+00  0.00000E+00  9.000E+00
       1    -1     0     0   512     0  0.000000000E+00  0.000000000E+00 -6.664914148E+01  6.664914148E+01  0.000000000E+00  0.00000E+00  9.000E+00
       1     1     1     2   511     0  8.714564092E+00 -4.811051525E+00  2.527342631E+02  2.529304380E+02  3.300000131E-01  0.00000E+00  9.000E+00
       1     1     1     2   513     0 -1.430908668E+01  2.320079317E+00 -5.826731973E+01  6.004433510E+01  3.300000131E-01  0.00000E+00  9.000E+00
      21     1     1     2   512   511  5.594522593E+00  2.490972208E+00 -6.127394394E+00  8.663058792E+00  1.460009660E-07  0.00000E+00  9.000E+00
</event>
<event>
      5  10001  3.52971E+09  3.92498E+00 -1.00000E+00  2.65414E-01
      21    -1     0     0   514   515  0.000000000E+00  0.000000000E+00  6.507547992E-01  6.507547992E-01  0.000000000E+00  0.00000E+00  9.000E+00
      21    -1     0     0   512   513  0.000000000E+00  0.000000000E+00 -2.934940222E+02  2.934940222E+02  0.000000000E+00  0.00000E+00  9.000E+00
      21     1     1     2   514   511 -6.978245964E+00  8.383146827E+00 -1.252054163E+02  1.256796297E+02  1.348699152E-06  0.00000E+00  9.000E+00
      21     1     1     2   512   515  1.060914897E+01 -6.892510139E+00 -1.196327939E+02  1.202999007E+02  1.907348633E-06  0.00000E+00  9.000E+00
      21     1     1     2   511   513 -3.630903005E+00 -1.490636687E+00 -4.800505720E+01  4.816524651E+01  9.536743164E-07  0.00000E+00  9.000E+00
</event>
<event>
      5  10001  3.52971E+09  9.61585E+00 -1.00000E+00  1.97740E-01
      21    -1     0     0   516   512  0.000000000E+00  0.000000000E+00  1.178501156E+03  1.178501156E+03  0.000000000E+00  0.00000E+00  9.000E+00
      -3    -1     0     0     0   513  0.000000000E+00  0.000000000E+00 -1.565125570E-01  1.565125570E-01  0.000000000E+00  0.00000E+00  9.000E+00
      -3     1     1     2     0   514 -4.942996331E+00  7.151853717E-01  5.662109990E+01  5.684314960E+01  5.000000000E-01  0.00000E+00  9.000E+00
      21     1     1     2   516   513  9.531236239E+00 -5.636737488E-01  6.779377601E+02  6.780049917E+02  0.000000000E+00  0.00000E+00  9.000E+00
      21     1     1     2   514   512 -4.588239908E+00 -1.515116229E-01  4.437857832E+02  4.438095271E+02  5.394796609E-06  0.00000E+00  9.000E+00
</event>
<event>
      5  10001  3.52971E+09  4.54715E+00 -1.00000E+00  2.50998E-01
      21    -1     0     0   511   515  0.000000000E+00  0.000000000E+00  2.148485221E+00  2.148485221E+00  0.000000000E+00  0.00000E+00  9.000E+00
      21    -1     0     0   514   512  0.000000000E+00  0.000000000E+00 -2.124516405E+02  2.124516405E+02  0.000000000E+00  0.00000E+00  9.000E+00
      21     1     1     2   511   512 -6.707121105E+00 -7.993846152E+00 -1.883273054E+02  1.886161738E+02  0.000000000E+00  0.00000E+00  9.000E+00
      21     1     1     2   513   515  4.214944954E+00  4.382220482E+00 -3.545592046E+00  7.038525433E+00  5.314515382E-07  0.00000E+00  9.000E+00
      21     1     1     2   514   513  2.492176152E+00  3.611625670E+00 -1.843025780E+01  1.894542648E+01  0.000000000E+00  0.00000E+00  9.000E+00
</event>
<event>
      5  10001  3.52971E+09  1.14263E+01 -1.00000E+00  1.89289E-01
      21    -1     0     0   511   512  0.000000000E+00  0.000000000E+00  3.893276652E+02  3.893276652E+02  0.000000000E+00  0.00000E+00  9.000E+00
      21    -1     0     0   513   511  0.000000000E+00  0.000000000E+00 -3.854297423E+01  3.854297423E+01  0.000000000E+00  0.00000E+00  9.000E+00
      21     1     1     2   513   516 -1.134547934E+01 -1.108239306E+01 -3.619152968E+01  3.951412606E+01  9.536743164E-07  0.00000E+00  9.000E+00
       5     1     1     2   516     0  1.439085471E+01  9.719092174E-02  3.118586442E+02  3.122274173E+02  4.800000191E+00  0.00000E+00  9.000E+00
      -5     1     1     2     0   512 -3.045375369E+00  1.098520214E+01  7.511757642E+01  7.612909605E+01  4.800000191E+00  0.00000E+00  9.000E+00
</event>
<event>
      5  10001  3.52971E+09  5.06317E+00 -1.00000E+00  2.37561E-01
      21    -1     0     0   511   515  0.000000000E+00  0.000000000E+00  3.268033739E+01  3.268033739E+01  0.000000000E+00  0.00000E+00  9.000E+00
      21    -1     0     0   513   512  0.000000000E+00  0.000000000E+00 -2.242036194E+01  2.242036194E+01  0.000000000E+00  0.00000E+00  9.000E+00
      21     1     1     2   514   512 -1.965561415E+00 -7.411223806E+00 -1.809370677E+01  1.965125682E+01  2.384185791E-07  0.00000E+00  9.000E+00
      21     1     1     2   513   515  1.699772037E+00  1.246741632E+01  9.066981765E+00  1.550921832E+01  2.665600750E-07  0.00000E+00  9.000E+00
      21     1     1     2   511   514  2.657893773E-01 -5.056192510E+00  1.928670045E+01  1.994022420E+01  0.000000000E+00  0.00000E+00  9.000E+00
</event>
<event>
      5  10001  3.52971E+09  2.66838E+00 -1.00000E+00  3.13199E-01
      21    -1     0     0   516   512  0.000000000E+00  0.000000000E+00  9.459943619E+00  9.459943619E+00  0.000000000E+00  0.00000E+00  9.000E+00
      21    -1     0     0   513   514  0.000000000E+00  0.000000000E+00 -3.096722711E+02  3.096722711E+02  0.000000000E+00  0.00000E+00  9.000E+00
      21     1     1     2   516   514 -8.748949474E+00  2.661733871E+00  3.989381087E+00  9.977179239E+00  2.308477966E-07  0.00000E+00  9.000E+00
      21     1     1     2   517   512  1.104014557E+01 -4.029465816E+00 -1.150602475E+01  1.644718865E+01  2.384185791E-07  0.00000E+00  9.000E+00
      21     1     1     2   513   517 -2.291196095E+00  1.367731945E+00 -2.926956838E+02  2.927078468E+02  5.394796609E-06  0.00000E+00  9.000E+00
</event>
<event>
      5  10001  3.52971E+09  5.66785E+00 -1.00000E+00  2.29376E-01
      21    -1     0     0   511   514  0.000000000E+00  0.000000000E+00  8.664489302E+01  8.664489302E+01  0.000000000E+00  0.00000E+00  9.000E+00
      21    -1     0     0   513   515  0.000000000E+00  0.000000000E+00 -4.137199418E+00  4.137199418E+00  0.000000000E+00  0.00000E+00  9.000E+00
      21     1     1     2   511   515  1.120882453E-01  1.012589778E+01  4.337697913E+00  1.101644194E+01  1.460009660E-07  0.00000E+00  9.000E+00
      21     1     1     2   512   514  3.355073626E+00 -9.020554335E+00  7.169501155E+01  7.233810614E+01  1.651812370E-06  0.00000E+00  9.000E+00
      21     1     1     2   513   512 -3.467161871E+00 -1.105343450E+00  6.474984142E+00  7.427544360E+00  8.429369702E-08  0.00000E+00  9.000E+00
</event>
<event>
      5  10001  3.52971E+09  8.03571E+00 -1.00000E+00  2.07413E-01
      21    -1     0     0   516   514  0.000000000E+00  0.000000000E+00  3.890674833E+01  3.890674833E+01  0.000000000E+00  0.00000E+00  9.000E+00
      21    -1     0     0   513   516  0.000000000E+00  0.000000000E+00 -1.002379521E+02  1.002379521E+02  0.000000000E+00  0.00000E+00  9.000E+00
      21     1     1     2   512   514 -1.848625093E+01  1.672203962E+00  3.433587824E+01  3.903191353E+01  0.000000000E+00  0.00000E+00  9.000E+00
      21     1     1     2   513   511  1.248040971E+01  1.795278606E+00 -9.072514213E+01  9.159713460E+01  0.000000000E+00  0.00000E+00  9.000E+00
      21     1     1     2   511   512  6.005841215E+00 -3.467482568E+00 -4.941939833E+00  8.515652258E+00  8.429369702E-08  0.00000E+00  9.000E+00
</event>
<event>
      5  10001  3.52971E+09  1.01203E+01 -1.00000E+00  1.95154E-01
      21    -1     0     0   512   515  0.000000000E+00  0.000000000E+00  1.014795809E+01  1.014795809E+01  0.000000000E+00  0.00000E+00  9.000E+00
      -1    -1     0     0     0   513  0.000000000E+00  0.000000000E+00 -5.824121739E+02  5.824121739E+02  0.000000000E+00  0.00000E+00  9.000E+00
      -1     1     1     2     0   511  1.090075061E+01 -1.651098964E+01 -4.859974485E+02  4.864001111E+02  3.300000131E-01  0.00000E+00  9.000E+00
      21     1     1     2   511   515 -1.300616731E+01  6.612203992E+00  4.157465026E+00  1.517122754E+01  5.900558792E-07  0.00000E+00  9.000E+00
      21     1     1     2   512   513  2.105416694E+00  9.898785645E+00 -9.042423229E+01  9.098879339E+01  1.348699152E-06  0.00000E+00  9.000E+00
</event>
<event>
      5  10001  3.52971E+09  5.66064E+00 -1.00000E+00  2.29465E-01
      21    -1     0     0   513   511  0.000000000E+00  0.000000000E+00  1.492818217E+00  1.492818217E+00  0.000000000E+00  0.00000E+00  9.000E+00
      21    -1     0     0   514   513  0.000000000E+00  0.000000000E+00 -8.883453340E+02  8.883453340E+02  0.000000000E+00  0.00000E+00  9.000E+00
      -5     1     1     2     0   515  2.263359444E+00  9.385651692E+00 -6.876192550E+01  6.960212392E+01  4.800000191E+00  0.00000E+00  9.000E+00
       5     1     1     2   514     0 -1.980800183E+00 -1.494261017E+01 -8.113122103E+02  8.114664181E+02  4.800000191E+00  0.00000E+00  9.000E+00
      21     1     1     2   515   511 -2.825592610E-01  5.556958478E+00 -6.778379967E+00  8.769610153E+00  5.462855929E-07  0.00000E+00  9.000E+00
</event>
<event>
      5  10001  3.52971E+09  3.54206E+00 -1.00000E+00  2.76557E-01
       2    -1     0     0   512     0  0.000000000E+00  0.000000000E+00  1.447858722E+03  1.447858722E+03  0.000000000E+00  0.00000E+00  9.000E+00
      -2    -1     0     0     0   512  0.000000000E+00  0.000000000E+00 -2.162223688E+00  2.162223688E+00  0.000000000E+00  0.00000E+00  9.000E+00
      -2     1     1     2     0   513  6.362881735E+00  4.104262913E+00  5.466187167E+00  9.344481804E+00  3.300000131E-01  0.00000E+00  9.000E+00
       2     1     1     2   511     0 -6.797170346E+00 -7.870977009E+00  1.422820478E+03  1.422858523E+03  3.300000131E-01  0.00000E+00  9.000E+00
      21     1     1     2   513   511  4.342886104E-01  3.766714096E+00  1.740983316E+01  1.781794130E+01  5.840038640E-07  0.00000E+00  9.000E+00
</event>
<event>
      5  10001  3.52971E+09  7.74590E+00 -1.00000E+00  2.09515E-01
      21    -1     0     0   514   511  0.000000000E+00  0.000000000E+00  3.849573885E+01  3.849573885E+01  0.000000000E+00  0.00000E+00  9.000E+00
      21    -1     0     0   515   514  0.000000000E+00  0.000000000E+00 -1.369143061E+01  1.369143061E+01  0.000000000E+00  0.00000E+00  9.000E+00
      21     1     1     2   515   516  1.012004922E+01  5.591165868E+00 -9.973450695E+00  1.526912738E+01  4.460403188E-07  0.00000E+00  9.000E+00
      21     1     1     2   516   512 -2.588072594E+00  5.164190116E-01  8.901406878E+00  9.284387581E+00  0.000000000E+00  0.00000E+00  9.000E+00
      21     1     1     2   512   511 -7.531976629E+00 -6.107584880E+00  2.587635206E+01  2.763365450E+01  3.371747881E-07  0.00000E+00  9.000E+00
</event>
<event>
      5  10001  3.52971E+09  8.47150E+00 -1.00000E+00  2.04466E-01
      21    -1     0     0   513   512  0.000000000E+00  0.000000000E+00  7.471529876E+00  7.471529876E+00  0.000000000E+00  0.00000E+00  9.000E+00
      21    -1     0     0   511   513  0.000000000E+00  0.000000000E+00 -4.359821581E+01  4.359821581E+01  0.000000000E+00  0.00000E+00  9.000E+00
      21     1     1     2   517   512 -1.077585681E+01 -1.165303280E+01 -1.101212450E+01  1.931784536E+01  4.768371582E-07  0.00000E+00  9.000E+00
      21     1     1     2   514   517  8.645265343E+00  5.687048472E+00 -2.274477041E+01  2.498815148E+01  4.768371582E-07  0.00000E+00  9.000E+00
      21     1     1     2   511   514  2.130591464E+00  5.965984328E+00 -2.369791020E+00  6.763748847E+00  9.884312124E-08  0.00000E+00  9.000E+00
</event>
<event>
      5  10001  3.52971E+09  1.20416E+01 -1.00000E+00  1.86866E-01
      21    -1     0     0   512   511  0.000000000E+00  0.000000000E+00  1.054554930E+02  1.054554930E+02  0.000000000E+00  0.00000E+00  9.000E+00
      21    -1     0     0   515   514  0.000000000E+00  0.000000000E+00 -5.633073318E+01  5.633073318E+01  0.000000000E+00  0.00000E+00  9.000E+00
      -3     1     1     2     0   511 -1.545540603E+01  1.250534443E+01  2.085770645E+01  2.881921465E+01  5.000000000E-01  0.00000E+00  9.000E+00
       3     1     1     2   515     0  4.583337217E+00 -7.329828474E+00 -5.153713323E+01  5.225953948E+01  5.000000000E-01  0.00000E+00  9.000E+00
      21     1     1     2   512   514  1.087206881E+01 -5.175515957E+00  7.980418657E+01  8.070747201E+01  1.348699152E-06  0.00000E+00  9.000E+00
</event>
<event>
      5  10001  3.52971E+09  5.73153E+00 -1.00000E+00  2.28598E-01
      21    -1     0     0   513   514  0.000000000E+00  0.000000000E+00  1.348489845E+00  1.348489845E+00  0.000000000E+00  0.00000E+00  9.000E+00
      21    -1     0     0   511   516  0.000000000E+00  0.000000000E+00 -1.204568505E+02  1.204568505E+02  0.000000000E+00  0.00000E+00  9.000E+00
      21     1     1     2   513   516 -1.038020743E+01 -2.711104791E+00 -2.885268396E+01  3.078272514E+01  3.371747881E-07  0.00000E+00  9.000E+00
      21     1     1     2   511   515  4.216144440E+00 -1.066267689E+00 -4.264858553E+01  4.286974048E+01  4.768371582E-07  0.00000E+00  9.000E+00
      21     1     1     2   515   514  6.164062987E+00  3.777372480E+00 -4.760709116E+01  4.815287472E+01  0.000000000E+00  0.00000E+00  9.000E+00
</event>
<event>
      5  10001  3.52971E+09  6.29415E+00 -1.00000E+00  2.22285E-01
      21    -1     0     0   512   511  0.000000000E+00  0.000000000E+00  3.722756792E+01  3.722756792E+01  0.000000000E+00  0.00000E+00  9.000E+00
      21    -1     0     0   517   513  0.000000000E+00  0.000000000E+00 -1.401020924E+01  1.401020924E+01  0.000000000E+00  0.00000E+00  9.000E+00
      21     1     1     2   512   514  6.196582731E+00  5.863302542E+00 -8.859816228E+00  1.229928038E+01  4.129530925E-07  0.00000E+00  9.000E+00
      21     1     1     2   517   511 -1.244173649E+01 -5.079484798E+00  2.893528513E+01  3.190374113E+01  3.371747881E-07  0.00000E+00  9.000E+00
      21     1     1     2   514   513  6.245153759E+00 -7.838177433E-01  3.141889784E+00  7.034755656E+00  7.300048300E-08  0.00000E+00  9.000E+00
</event>
<event>
      5  10001  3.52971E+09  1.72300E+01 -1.00000E+00  1.71891E-01
       1    -1     0     0   512     0  0.000000000E+00  0.000000000E+00  2.115404563E+02  2.115404563E+02  0.000000000E+00  0.00000E+00  9.000E+00
      21    -1     0     0   514   512  0.000000000E+00  0.000000000E+00 -2.617483721E+00  2.617483721E+00  0.000000000E+00  0.00000E+00  9.000E+00
      21     1     1     2   514   515  7.826951020E+00 -6.188544377E+00  9.924969067E+00  1.407353029E+01  3.769728732E-07  0.00000E+00  9.000E+00
      21     1     1     2   515   511 -1.254356185E+01  3.965886922E+00  8.948551992E+01  9.044737409E+01  1.651812370E-06  0.00000E+00  9.000E+00
       1     1     1     2   511     0  4.716610831E+00  2.222657455E+00  1.095124836E+02  1.096370357E+02  3.300000131E-01  0.00000E+00  9.000E+00
</event>
<event>
      5  10001  3.52971E+09  9.90478E+00 -1.00000E+00  1.96234E-01
      21    -1     0     0   513   515  0.000000000E+00  0.000000000E+00  4.426662818E+00  4.426662818E+00  0.000000000E+00  0.00000E+00  9.000E+00
      21    -1     0     0   514   516  0.000000000E+00  0.000000000E+00 -4.657135427E+01  4.657135427E+01  0.000000000E+00  0.00000E+00  9.000E+00
      21     1     1     2   513   516  2.231562064E-02 -9.111680048E+00 -3.254112186E+01  3.379271849E+01  4.768371582E-07  0.00000E+00  9.000E+00
      21     1     1     2   514   512  5.387649287E+00  5.857279300E+00 -5.555979255E+00  9.705843143E+00  2.598106231E-07  0.00000E+00  9.000E+00
      21     1     1     2   512   515 -5.409964908E+00  3.254400748E+00 -4.047590337E+00  7.499455452E+00  1.332800375E-07  0.00000E+00  9.000E+00
</event>
<event>
      5  10001  3.52971E+09  1.78864E+01 -1.00000E+00  1.70470E-01
      -4    -1     0     0     0   511  0.000000000E+00  0.000000000E+00  1.161448817E+01  1.161448817E+01  0.000000000E+00  0.00000E+00  9.000E+00
      21    -1     0     0   512   513  0.000000000E+00  0.000000000E+00 -8.121478503E+01  8.121478503E+01  0.000000000E+00  0.00000E+00  9.000E+00
      -4     1     1     2     0   513  1.421219378E+01  1.563257322E+01 -2.981178508E+00  2.138927822E+01  1.500000000E+00  0.00000E+00  9.000E+00
      21     1     1     2   512   514 -1.161420647E+01 -2.687628749E+00 -2.359392851E+01  2.643457211E+01  0.000000000E+00  0.00000E+00  9.000E+00
      21     1     1     2   514   511 -2.597987305E+00 -1.294494447E+01 -4.302518985E+01  4.500542286E+01  4.768371582E-07  0.00000E+00  9.000E+00
</event>
<event>
      5  10001  3.52971E+09  1.14514E+01 -1.00000E+00  1.89186E-01
      21    -1     0     0   515   512  0.000000000E+00  0.000000000E+00  2.630988776E+01  2.630988776E+01  0.000000000E+00  0.00000E+00  9.000E+00
      21    -1     0     0   516   511  0.000000000E+00  0.000000000E+00 -5.201980088E+01  5.201980088E+01  0.000000000E+00  0.00000E+00  9.000E+00
      21     1     1     2   515   511 -2.219641227E+01  6.969032396E+00 -4.218747362E+01  4.817708024E+01  8.259061849E-07  0.00000E+00  9.000E+00
      21     1     1     2   513   512  7.762066114E+00 -7.517528583E+00  6.879879611E+00  1.280998243E+01  3.264680848E-07  0.00000E+00  9.000E+00
      21     1     1     2   516   513  1.443434616E+01  5.484961865E-01  9.597680893E+00  1.734262597E+01  2.384185791E-07  0.00000E+00  9.000E+00
</event>
<event>
      5  10001  3.52971E+09  2.50512E+00 -1.00000E+00  3.22830E-01
      21    -1     0     0   514   512  0.000000000E+00  0.000000000E+00  1.861597482E+01  1.861597482E+01  0.000000000E+00  0.00000E+00  9.000E+00
       4    -1     0     0   513     0  0.000000000E+00  0.000000000E+00 -5.566197021E+00  5.566197021E+00  0.000000000E+00  0.00000E+00  9.000E+00
      21     1     1     2   513   512 -9.267306105E+00  3.547204575E+00  5.777925582E+00  1.148259756E+01  8.429369702E-08  0.00000E+00  9.000E+00
       4     1     1     2   511     0  4.444358290E+00 -8.918419580E-01  2.381517529E+00  5.335665697E+00  1.500000000E+00  0.00000E+00  9.000E+00
      21     1     1     2   514   511  4.822947815E+00 -2.655362617E+00  4.890334693E+00  7.363908586E+00  5.960464478E-08  0.00000E+00  9.000E+00
</event>
<event>
      5  10001  3.52971E+09  1.58995E+01 -1.00000E+00  1.75030E-01
      21    -1     0     0   511   513  0.000000000E+00  0.000000000E+00  1.051368897E+00  1.051368897E+00  0.000000000E+00  0.00000E+00  9.000E+00
      21    -1     0     0   515   511  0.000000000E+00  0.000000000E+00 -3.367114954E+02  3.367114954E+02  0.000000000E+00  0.00000E+00  9.000E+00
      -5     1     1     2     0   512  9.647925426E-02 -1.508586593E+01 -1.638043677E+02  1.645676261E+02  4.800000191E+00  0.00000E+00  9.000E+00
       5     1     1     2   515     0 -6.702670621E+00  1.021752361E+01 -1.158324587E+02  1.165741055E+02  4.800000191E+00  0.00000E+00  9.000E+00
      21     1     1     2   512   513  6.606191367E+00  4.868342320E+00 -5.602330011E+01  5.662113277E+01  1.348699152E-06  0.00000E+00  9.000E+00
</event>
<event>
      5  10001  3.52971E+09  1.34640E+01 -1.00000E+00  1.81917E-01
      21    -1     0     0   512   513  0.000000000E+00  0.000000000E+00  1.177740467E+02  1.177740467E+02  0.000000000E+00  0.00000E+00  9.000E+00
       2    -1     0     0   513     0  0.000000000E+00  0.000000000E+00 -2.498703159E+02  2.498703159E+02  0.000000000E+00  0.00000E+00  9.000E+00
       2     1     1     2   512     0 -4.136029231E+00  4.875827071E+00  6.154157057E+01  6.187369583E+01  3.300000131E-01  0.00000E+00  9.000E+00
       2     1     1     2   514     0  1.180084362E+01  3.562240000E+00 -2.489701428E+02  2.492753305E+02  3.300000131E-01  0.00000E+00  9.000E+00
      -2     1     1     2     0   514 -7.664814393E+00 -8.438067071E+00  5.533230305E+01  5.649533624E+01  3.300000131E-01  0.00000E+00  9.000E+00
</event>
<event>
      5  10001  3.52971E+09  1.74288E+01 -1.00000E+00  1.71452E-01
      -5    -1     0     0     0   511  0.000000000E+00  0.000000000E+00  2.356240102E+00  2.356240102E+00  0.000000000E+00  0.00000E+00  9.000E+00
      21    -1     0     0   512   514  0.000000000E+00  0.000000000E+00 -4.572575462E+01  4.572575462E+01  0.000000000E+00  0.00000E+00  9.000E+00
      -5     1     1     2     0   514 -1.165110705E+00  4.253859173E+00 -1.220828837E+01  1.383962094E+01  4.800000191E+00  0.00000E+00  9.000E+00
       3     1     1     2   512     0  3.968330857E+00  1.647858651E+00 -2.844331705E+00  5.177191398E+00  5.000000000E-01  0.00000E+00  9.000E+00
      -3     1     1     2     0   511 -2.803220152E+00 -5.901717824E+00 -2.831689444E+01  2.906518239E+01  5.000000000E-01  0.00000E+00  9.000E+00
</event>
<event>
      5  10001  3.52971E+09  1.07140E+01 -1.00000E+00  1.92353E-01
      -4    -1     0     0     0   511  0.000000000E+00  0.000000000E+00  3.657240086E+01  3.657240086E+01  0.000000000E+00  0.00000E+00  9.000E+00
      21    -1     0     0   513   515  0.000000000E+00  0.000000000E+00 -3.980032134E+00  3.980032134E+00  0.000000000E+00  0.00000E+00  9.000E+00
      21     1     1     2   512   515 -1.788788757E+00  2.976846401E+00 -2.182857020E+00  4.101980556E+00  1.812804499E-07  0.00000E+00  9.000E+00
      21     1     1     2   513   511  1.969604846E+00 -6.528037865E+00  1.829481375E+01  1.952421143E+01  3.371747881E-07  0.00000E+00  9.000E+00
      -4     1     1     2     0   512 -1.808160894E-01  3.551191464E+00  1.648041199E+01  1.692624101E+01  1.500000000E+00  0.00000E+00  9.000E+00
</event>
<event>
      5  10001  3.52971E+09  1.81932E+01 -1.00000E+00  1.69831E-01
      21    -1     0     0   513   511  0.000000000E+00  0.000000000E+00  1.842157516E+01  1.842157516E+01  0.000000000E+00  0.00000E+00  9.000E+00
       2    -1     0     0   511     0  0.000000000E+00  0.000000000E+00 -4.111106186E+02  4.111106186E+02  0.000000000E+00  0.00000E+00  9.000E+00
      21     1     1     2   515   514  3.170220152E+01  8.804691083E+00 -1.790719254E+00  3.295085494E+01  1.232029594E-06  0.00000E+00  9.000E+00
       2     1     1     2   514     0 -4.588044930E+01 -5.412859670E+00 -3.523951259E+02  3.554106756E+02  3.300000131E-01  0.00000E+00  9.000E+00
      21     1     1     2   513   515  1.417824779E+01 -3.391831413E+00 -3.850319838E+01  4.117066330E+01  4.768371582E-07  0.00000E+00  9.000E+00
</event>
<event>
      5  10001  3.52971E+09  6.68207E+00 -1.00000E+00  2.18441E-01
       1    -1     0     0   514     0  0.000000000E+00  0.000000000E+00  1.362869555E+02  1.362869555E+02  0.000000000E+00  0.00000E+00  9.000E+00
      21    -1     0     0   512   513  0.000000000E+00  0.000000000E+00 -2.962853167E+01  2.962853167E+01  0.000000000E+00  0.00000E+00  9.000E+00
      21     1     1     2   514   513 -1.354391624E+01 -2.048844204E-01 -2.733425190E+01  3.050640870E+01  3.371747881E-07  0.00000E+00  9.000E+00
       1     1     1     2   511     0  6.623177558E+00 -2.300306348E+00  1.119546985E+02  1.121745127E+02  3.300000131E-01  0.00000E+00  9.000E+00
      21     1     1     2   512   511  6.920738685E+00  2.505190768E+00  2.203797727E+01  2.323456578E+01  4.768371582E-07  0.00000E+00  9.000E+00
</event>
<event>
      5  10001  3.52971E+09  3.03681E+01 -1.00000E+00  1.52670E-01
      21    -1     0     0   515   511  0.000000000E+00  0.000000000E+00  1.704679818E+02  1.704679818E+02  0.000000000E+00  0.00000E+00  9.000E+00
      21    -1     0     0   512   516  0.000000000E+00  0.000000000E+00 -7.180952851E+00  7.180952851E+00  0.000000000E+00  0.00000E+00  9.000E+00
      21     1     1     2   515   516  2.583925501E+00 -3.342239459E+01  9.122517288E+01  9.718932708E+01  0.000000000E+00  0.00000E+00  9.000E+00
      21     1     1     2   513   511  3.840367843E+00  3.547496789E+00  1.089016354E+01  1.208010019E+01  1.192092896E-07  0.00000E+00  9.000E+00
      21     1     1     2   512   513 -6.424293344E+00  2.987489780E+01  6.117169253E+01  6.837950739E+01  1.348699152E-06  0.00000E+00  9.000E+00
</event>
<event>
      5  10001  3.52971E+09  5.50434E+00 -1.00000E+00  2.31443E-01
      21    -1     0     0   514   513  0.000000000E+00  0.000000000E+00  3.629190167E+01  3.629190167E+01  0.000000000E+00  0.00000E+00  9.000E+00
      21    -1     0     0   512   517  0.000000000E+00  0.000000000E+00 -5.983274809E+00  5.983274809E+00  0.000000000E+00  0.00000E+00  9.000E+00
      21     1     1     2   514   517 -4.379890872E+00 -1.268100735E+01  2.263805427E+01  2.631487968E+01  4.768371582E-07  0.00000E+00  9.000E+00
      21     1     1     2   511   513 -1.516207788E-01  4.352279370E+00  1.328308210E+00  4.552991026E+00  3.650024150E-08  0.00000E+00  9.000E+00
      21     1     1     2   512   511  4.531511651E+00  8.328727976E+00  6.342264380E+00  1.140730577E+01  8.429369702E-08  0.00000E+00  9.000E+00
</event>
<event>
      5  10001  3.52971E+09  3.20883E+00 -1.00000E+00  2.88263E-01
      -1    -1     0     0     0   511  0.000000000E+00  0.000000000E+00  2.633336501E+01  2.633336501E+01  0.000000000E+00  0.00000E+00  9.000E+00
      21    -1     0     0   512   516  0.000000000E+00  0.000000000E+00 -2.829991680E+01  2.829991680E+01  0.000000000E+00  0.00000E+00  9.000E+00
      21     1     1     2   515   516  5.573925873E+00  9.946327396E+00 -2.032987993E+01  2.330884159E+01  3.371747881E-07  0.00000E+00  9.000E+00
      21     1     1     2   512   511 -2.534204366E+00 -1.097378629E+01 -1.355188381E+00  1.134384031E+01  3.475518164E-07  0.00000E+00  9.000E+00
      -1     1     1     2     0   515 -3.039721507E+00  1.027458898E+00  1.971851653E+01  1.998059991E+01  3.300000131E-01  0.00000E+00  9.000E+00
</event>
<event>
      5  10001  3.52971E+09  1.21258E+01 -1.00000E+00  1.86549E-01
      21    -1     0     0   513   511  0.000000000E+00  0.000000000E+00  2.734195538E+02  2.734195538E+02  0.000000000E+00  0.00000E+00  9.000E+00
      21    -1     0     0   514   513  0.000000000E+00  0.000000000E+00 -6.361482728E+00  6.361482728E+00  0.000000000E+00  0.00000E+00  9.000E+00
      21     1     1     2   512   511 -1.340026882E+01  3.823952274E+00  2.599294356E+02  2.603027109E+02  0.000000000E+00  0.00000E+00  9.000E+00
      21     1     1     2   514   516  1.572277796E+00 -4.742627762E+00 -1.002023622E+00  5.095942200E+00  2.138718977E-07  0.00000E+00  9.000E+00
      21     1     1     2   516   512  1.182799102E+01  9.186754889E-01  8.130659159E+00  1.438238348E+01  4.460403188E-07  0.00000E+00  9.000E+00
</event>
<event>
      5  10001  3.52971E+09  2.81928E+00 -1.00000E+00  3.05292E-01
       3    -1     0     0   514     0  0.000000000E+00  0.000000000E+00  4.564037792E+01  4.564037792E+01  0.000000000E+00  0.00000E+00  9.000E+00
      21    -1     0     0   515   513  0.000000000E+00  0.000000000E+00 -3.108777460E+00  3.108777460E+00  0.000000000E+00  0.00000E+00  9.000E+00
      21     1     1     2   514   511  6.289081901E+00 -6.783383771E+00  1.033003451E+01  1.386637875E+01  1.192092896E-07  0.00000E+00  9.000E+00
       3     1     1     2   515     0 -5.700475883E+00  7.644919671E+00  3.243673666E+01  3.381319428E+01  5.000000000E-01  0.00000E+00  9.000E+00
      21     1     1     2   511   513 -5.886060183E-01 -8.615358992E-01 -2.351707113E-01  1.069582355E+00  4.336404326E-08  0.00000E+00  9.000E+00
</event>
<event>
      5  10001  3.52971E+09  7.11120E+00 -1.00000E+00  2.14585E-01
       1    -1     0     0   514     0  0.000000000E+00  0.000000000E+00  2.767066796E+01  2.767066796E+01  0.000000000E+00  0.00000E+00  9.000E+00
      21    -1     0     0   511   513  0.000000000E+00  0.000000000E+00 -6.954911219E+02  6.954911219E+02  0.000000000E+00  0.00000E+00  9.000E+00
      21     1     1     2   511   512  4.584063177E+00  2.293380377E+01 -6.875990272E+02  6.879966535E+02  1.321449896E-05  0.00000E+00  9.000E+00
       1     1     1     2   512     0 -5.896518529E+00 -1.594478937E+01  3.442420571E+00  1.734832551E+01  3.300000131E-01  0.00000E+00  9.000E+00
      21     1     1     2   514   513  1.312455352E+00 -6.989014402E+00  1.633615274E+01  1.781681082E+01  5.840038640E-07  0.00000E+00  9.000E+00
</event>
<event>
      5  10001  3.52971E+09  4.17821E+00 -1.00000E+00  2.59080E-01
      21    -1     0     0   515   517  0.000000000E+00  0.000000000E+00  3.799655071E+01  3.799655071E+01  0.000000000E+00  0.00000E+00  9.000E+00
      21    -1     0     0   511   516  0.000000000E+00  0.000000000E+00 -1.726934286E+02  1.726934286E+02  0.000000000E+00  0.00000E+00  9.000E+00
      21     1     1     2   515   516  3.040846416E+00 -1.143378581E+01 -1.389948210E+01  1.825304926E+01  5.591411304E-07  0.00000E+00  9.000E+00
      21     1     1     2   511   512  2.845345568E-01  8.904106483E+00 -1.563681042E+02  1.566216718E+02  2.697398305E-06  0.00000E+00  9.000E+00
      21     1     1     2   512   517 -3.325380972E+00  2.529679322E+00  3.557070833E+01  3.581525830E+01  4.768371582E-07  0.00000E+00  9.000E+00
</event>
<event>
      5  10001  3.52971E+09  1.65211E+01 -1.00000E+00  1.73517E-01
      21    -1     0     0   514   511  0.000000000E+00  0.000000000E+00  1.423886804E+01  1.423886804E+01  0.000000000E+00  0.00000E+00  9.000E+00
      21    -1     0     0   512   513  0.000000000E+00  0.000000000E+00 -7.150458724E+01  7.150458724E+01  0.000000000E+00  0.00000E+00  9.000E+00
      -1     1     1     2     0   511  2.497021711E+00 -1.629922326E+01 -3.055683620E+01  3.472360775E+01  3.300000131E-01  0.00000E+00  9.000E+00
       1     1     1     2   512     0 -1.147907725E+01  2.434904984E+00 -3.166650705E+01  3.377239325E+01  3.300000131E-01  0.00000E+00  9.000E+00
      21     1     1     2   514   513  8.982055541E+00  1.386431828E+01  4.957624054E+00  1.724745428E+01  2.731427965E-07  0.00000E+00  9.000E+00
</event>
<event>
      5  10001  3.52971E+09  3.91963E+00 -1.00000E+00  2.65556E-01
      21    -1     0     0   515   511  0.000000000E+00  0.000000000E+00  9.421053195E-01  9.421053195E-01  0.000000000E+00  0.00000E+00  9.000E+00
      21    -1     0     0   516   515  0.000000000E+00  0.000000000E+00 -1.809989455E+02  1.809989455E+02  0.000000000E+00  0.00000E+00  9.000E+00
      21     1     1     2   516   513  3.757494486E+00 -9.271833537E+00 -1.432757911E+02  1.436246427E+02  2.697398305E-06  0.00000E+00  9.000E+00
      21     1     1     2   513   512 -6.691413790E-01  3.921861238E+00 -8.739207696E+00  9.602213126E+00  2.665600750E-07  0.00000E+00  9.000E+00
      21     1     1     2   512   511 -3.088353107E+00  5.349972299E+00 -2.804184131E+01  2.871419497E+01  0.000000000E+00  0.00000E+00  9.000E+00
</event>
<event>
      5  10001  3.52971E+09  8.14586E+00 -1.00000E+00  2.06645E-01
      21    -1     0     0   514   513  0.000000000E+00  0.000000000E+00  3.143404280E+02  3.143404280E+02  0.000000000E+00  0.00000E+00  9.000E+00
      21    -1     0     0   511   514  0.000000000E+00  0.000000000E+00 -3.605683610E+01  3.605683610E+01  0.000000000E+00  0.00000E+00  9.000E+00
      21     1     1     2   511   516 -5.169182306E+00 -1.612873669E+01 -3.330157811E+01  3.736109872E+01  2.132480600E-06  0.00000E+00  9.000E+00
      21     1     1     2   515   513 -2.147183374E+00  1.445475890E+01  2.859937228E+02  2.863668276E+02  3.814697266E-06  0.00000E+00  9.000E+00
      21     1     1     2   516   515  7.316365680E+00  1.673977788E+00  2.559144719E+01  2.666933778E+01  0.000000000E+00  0.00000E+00  9.000E+00
</event>
<event>
      5  10001  3.52971E+09  8.63755E+00 -1.00000E+00  2.03405E-01
       2    -1     0     0   514     0  0.000000000E+00  0.000000000E+00  8.374281026E+00  8.374281026E+00  0.000000000E+00  0.00000E+00  9.000E+00
      21    -1     0     0   515   511  0.000000000E+00  0.000000000E+00 -1.394514063E+02  1.394514063E+02  0.000000000E+00  0.00000E+00  9.000E+00
      21     1     1     2   515   512 -4.224144298E+00  1.173495853E+01 -1.062111374E+02  1.069409106E+02  1.907348633E-06  0.00000E+00  9.000E+00
       2     1     1     2   512     0  1.280192865E+01 -1.072247174E+01 -2.473921990E+00  1.688460741E+01  3.300000131E-01  0.00000E+00  9.000E+00
      21     1     1     2   514   511 -8.577784350E+00 -1.012486791E+00 -2.239206584E+01  2.400016930E+01  4.129530925E-07  0.00000E+00  9.000E+00
</event>
<event>
      5  10001  3.52971E+09  4.25845E+00 -1.00000E+00  2.57215E-01
      21    -1     0     0   512   515  0.000000000E+00  0.000000000E+00  3.722038177E+01  3.722038177E+01  0.000000000E+00  0.00000E+00  9.000E+00
      -1    -1     0     0     0   511  0.000000000E+00  0.000000000E+00 -2.099692419E+01  2.099692419E+01  0.000000000E+00  0.00000E+00  9.000E+00
      -1     1     1     2     0   515 -1.422957000E+01  3.944956475E+00 -1.533481319E+01  2.129104835E+01  3.300000131E-01  0.00000E+00  9.000E+00
      21     1     1     2   513   511  9.988095863E+00 -4.323075732E+00  9.456235232E+00  1.441774696E+01  3.371747881E-07  0.00000E+00  9.000E+00
      21     1     1     2   512   513  4.241474139E+00  3.781192572E-01  2.210203554E+01  2.250851066E+01  2.384185791E-07  0.00000E+00  9.000E+00
</event>
<event>
      5  10001  3.52971E+09  7.27485E+00 -1.00000E+00  2.13211E-01
      21    -1     0     0   514   513  0.000000000E+00  0.000000000E+00  1.779398577E+00  1.779398577E+00  0.000000000E+00  0.00000E+00  9.000E+00
      21    -1     0     0   516   514  0.000000000E+00  0.000000000E+00 -1.578350319E+02  1.578350319E+02  0.000000000E+00  0.00000E+00  9.000E+00
      21     1     1     2   516   517 -8.883147440E+00 -6.758141886E+00 -1.080265667E+02  1.086016662E+02  1.348699152E-06  0.00000E+00  9.000E+00
      21     1     1     2   511   513  1.222033273E+01  5.852728067E+00 -4.096742121E+01  4.314997750E+01  1.066240300E-06  0.00000E+00  9.000E+00
      21     1     1     2   517   511 -3.337185285E+00  9.054138184E-01 -7.061645407E+00  7.862786762E+00  1.685873940E-07  0.00000E+00  9.000E+00
</event>
<event>
      5  10001  3.52971E+09  2.62991E+01 -1.00000E+00  1.57117E-01
      21    -1     0     0   512   511  0.000000000E+00  0.000000000E+00  1.627499058E+01  1.627499058E+01  0.000000000E+00  0.00000E+00  9.000E+00
      21    -1     0     0   516   515  0.000000000E+00  0.000000000E+00 -2.011211191E+01  2.011211191E+01  0.000000000E+00  0.00000E+00  9.000E+00
      21     1     1     2   512   515  1.029833503E+00  4.159214546E+00 -4.446605749E+00  6.175105292E+00  1.576990671E-07  0.00000E+00  9.000E+00
      21     1     1     2   513   511  3.540457901E+00 -4.113716030E+00  1.455637576E+01  1.553530099E+01  0.000000000E+00  0.00000E+00  9.000E+00
      21     1     1     2   516   513 -4.570291403E+00 -4.549851573E-02 -1.394689134E+01  1.467669621E+01  0.000000000E+00  0.00000E+00  9.000E+00
</event>
<event>
      5  10001  3.52971E+09  6.91156E+00 -1.00000E+00  2.16331E-01
       2    -1     0     0   515     0  0.000000000E+00  0.000000000E+00  1.128549676E+00  1.128549676E+00  0.000000000E+00  0.00000E+00  9.000E+00
      21    -1     0     0   514   513  0.000000000E+00  0.000000000E+00 -3.774839956E+02  3.774839956E+02  0.000000000E+00  0.00000E+00  9.000E+00
      21     1     1     2   511   513  4.834105817E+00  6.983553279E+00 -2.858558523E+02  2.859820045E+02  5.394796609E-06  0.00000E+00  9.000E+00
       2     1     1     2   514     0 -9.410041025E+00 -4.092219320E+00 -2.676515101E+01  2.866665903E+01  3.300000131E-01  0.00000E+00  9.000E+00
      21     1     1     2   515   511  4.575935208E+00 -2.891333959E+00 -6.373444257E+01  6.396388172E+01  1.348699152E-06  0.00000E+00  9.000E+00
</event>
<event>
      5  10001  3.52971E+09  1.02337E+01 -1.00000E+00  1.94600E-01
      21    -1     0     0   512   513  0.000000000E+00  0.000000000E+00  8.815819936E+00  8.815819936E+00  0.000000000E+00  0.00000E+00  9.000E+00
      21    -1     0     0   516   511  0.000000000E+00  0.000000000E+00 -2.029032422E+01  2.029032422E+01  0.000000000E+00  0.00000E+00  9.000E+00
      21     1     1     2   512   511  1.003123634E+01 -3.401854153E+00 -6.731716966E+00  1.255047121E+01  1.192092896E-07  0.00000E+00  9.000E+00
      21     1     1     2   516   514 -5.512246017E+00  2.158237739E+00  3.641635018E+00  6.950133229E+00  1.332800375E-07  0.00000E+00  9.000E+00
      21     1     1     2   514   513 -4.518990327E+00  1.243616414E+00 -8.384422334E+00  9.605539716E+00  0.000000000E+00  0.00000E+00  9.000E+00
</event>
<event>
      5  10001  3.52971E+09  4.78703E+00 -1.00000E+00  2.46341E-01
      21    -1     0     0   514   513  0.000000000E+00  0.000000000E+00  3.328061932E-01  3.328061932E-01  0.000000000E+00  0.00000E+00  9.000E+00
       2    -1     0     0   515     0  0.000000000E+00  0.000000000E+00 -1.523921895E+03  1.523921895E+03  0.000000000E+00  0.00000E+00  9.000E+00
      21     1     1     2   511   513  4.793020293E+00  5.681662745E+00 -5.763792986E+01  5.811527590E+01  1.651812370E-06  0.00000E+00  9.000E+00
       2     1     1     2   514     0 -5.630083894E+00 -1.130289014E+01 -1.340588589E+03  1.340648099E+03  3.300000131E-01  0.00000E+00  9.000E+00
      21     1     1     2   515   511  8.370636013E-01  5.621227392E+00 -1.253625698E+02  1.254913255E+02  0.000000000E+00  0.00000E+00  9.000E+00
</event>
<event>
      5  10001  3.52971E+09  6.89625E+00 -1.00000E+00  2.16469E-01
      21    -1     0     0   512   511  0.000000000E+00  0.000000000E+00  1.595775391E+03  1.595775391E+03  0.000000000E+00  0.00000E+00  9.000E+00
      21    -1     0     0   515   512  0.000000000E+00  0.000000000E+00 -3.419609628E+02  3.419609628E+02  0.000000000E+00  0.00000E+00  9.000E+00
      21     1     1     2   516   511  9.282304670E+00  4.351140234E+00  1.595675551E+03  1.595708482E+03  2.157918644E-05  0.00000E+00  9.000E+00
      21     1     1     2   515   513 -6.803132320E-01 -1.443219104E+00 -5.412102506E+01  5.414453861E+01  1.507891493E-06  0.00000E+00  9.000E+00
      21     1     1     2   513   516 -8.601991438E+00 -2.907921129E+00 -2.877400975E+02  2.878833340E+02  7.629394531E-06  0.00000E+00  9.000E+00
</event>
<event>
      5  10001  3.52971E+09  5.33992E+00 -1.00000E+00  2.33625E-01
      21    -1     0     0   514   515  0.000000000E+00  0.000000000E+00  4.422121521E+00  4.422121521E+00  0.000000000E+00  0.00000E+00  9.000E+00
      -2    -1     0     0     0   516  0.000000000E+00  0.000000000E+00 -1.076691565E+03  1.076691565E+03  0.000000000E+00  0.00000E+00  9.000E+00
      21     1     1     2   514   516 -8.637344734E+00  2.343923841E+00 -3.044951056E-01  8.954910402E+00  1.186795871E-06  0.00000E+00  9.000E+00
      21     1     1     2   511   515  8.949151460E+00 -7.674686428E+00 -4.029254196E+02  4.030978565E+02  5.394796609E-06  0.00000E+00  9.000E+00
      -2     1     1     2     0   511 -3.118067252E-01  5.330762587E+00 -6.690395291E+02  6.690609200E+02  3.300000131E-01  0.00000E+00  9.000E+00
</event>
<event>
      5  10001  3.52971E+09  6.08995E+00 -1.00000E+00  2.24467E-01
      -1    -1     0     0     0   512  0.000000000E+00  0.000000000E+00  2.205207319E+02  2.205207319E+02  0.000000000E+00  0.00000E+00  9.000E+00
      21    -1     0     0   512   515  0.000000000E+00  0.000000000E+00 -8.268024327E+00  8.268024327E+00  0.000000000E+00  0.00000E+00  9.000E+00
      -1     1     1     2     0   514 -1.985174628E+00 -8.916359842E+00  2.037684581E+02  2.039733703E+02  3.300000131E-01  0.00000E+00  9.000E+00
      21     1     1     2   514   513 -3.162818051E+00  1.216974242E+01 -1.959505659E+00  1.272578921E+01  7.083931162E-07  0.00000E+00  9.000E+00
      21     1     1     2   513   515  5.147992679E+00 -3.253382577E+00  1.044375519E+01  1.208959674E+01  1.192092896E-07  0.00000E+00  9.000E+00
</event>
<event>
      5  10001  3.52971E+09  8.22974E+00 -1.00000E+00  2.06071E-01
      21    -1     0     0   513   514  0.000000000E+00  0.000000000E+00  1.415750110E+02  1.415750110E+02  0.000000000E+00  0.00000E+00  9.000E+00
       1    -1     0     0   512     0  0.000000000E+00  0.000000000E+00 -2.751968572E+00  2.751968572E+00  0.000000000E+00  0.00000E+00  9.000E+00
      21     1     1     2   513   511  6.693306061E+00 -1.075302750E+01  6.672914148E+01  6.792058796E+01  1.348699152E-06  0.00000E+00  9.000E+00
       1     1     1     2   511     0 -1.452295466E+01  8.220310468E+00  4.165347133E+01  4.487326921E+01  3.300000131E-01  0.00000E+00  9.000E+00
      21     1     1     2   512   514  7.829648599E+00  2.532717027E+00  3.044042965E+01  3.153312243E+01  3.371747881E-07  0.00000E+00  9.000E+00
</event>
<event>
      5  10001  3.52971E+09  2.25534E+00 -1.00000E+00  3.40341E-01
       2    -1     0     0   513     0  0.000000000E+00  0.000000000E+00  4.518704089E+00  4.518704089E+00  0.000000000E+00  0.00000E+00  9.000E+00
      -3    -1     0     0     0   513  0.000000000E+00  0.000000000E+00 -5.572768365E+01  5.572768365E+01  0.000000000E+00  0.00000E+00  9.000E+00
      -3     1     1     2     0   512 -1.122178114E+01  1.032146168E+01 -2.516786863E+01  2.943013004E+01  5.000000000E-01  0.00000E+00  9.000E+00
       2     1     1     2   511     0  1.129060709E+01 -9.054059509E+00 -2.027815857E+01  2.491518447E+01  3.300000131E-01  0.00000E+00  9.000E+00
      21     1     1     2   512   511 -6.882595716E-02 -1.267402173E+00 -5.762952364E+00  5.901073226E+00  8.429369702E-08  0.00000E+00  9.000E+00
</event>
<event>
      5  10001  3.52971E+09  3.09055E+00 -1.00000E+00  2.92993E-01
      21    -1     0     0   514   516  0.000000000E+00  0.000000000E+00  3.816864213E+01  3.816864213E+01  0.000000000E+00  0.00000E+00  9.000E+00
      21    -1     0     0   515   513  0.000000000E+00  0.000000000E+00 -2.837281244E+02  2.837281244E+02  0.000000000E+00  0.00000E+00  9.000E+00
      21     1     1     2   511   516 -8.011602284E+00  6.703178336E+00  3.392659170E+01  3.549833792E+01  0.000000000E+00  0.00000E+00  9.000E+00
      21     1     1     2   515   511  1.019322425E+01 -8.892250041E+00 -9.821955620E+00  1.671660084E+01  1.685873940E-07  0.00000E+00  9.000E+00
      21     1     1     2   514   513 -2.181621965E+00  2.189071705E+00 -2.696641183E+02  2.696818278E+02  0.000000000E+00  0.00000E+00  9.000E+00
</event>
<event>
      5  10001  3.52971E+09  1.02199E+01 -1.00000E+00  1.94667E-01
      -4    -1     0     0     0   515  0.000000000E+00  0.000000000E+00  2.201132529E+01  2.201132529E+01  0.000000000E+00  0.00000E+00  9.000E+00
      21    -1     0     0   512   513  0.000000000E+00  0.000000000E+00 -4.920412573E+01  4.920412573E+01  0.000000000E+00  0.00000E+00  9.000E+00
      -4     1     1     2     0   511  2.768256450E+01  1.175942082E+01 -1.349883906E+01  3.300116682E+01  1.500000000E+00  0.00000E+00  9.000E+00
      21     1     1     2   511   513 -1.865341923E+01 -1.653468494E+01 -1.263275485E+01  2.794516685E+01  5.591411304E-07  0.00000E+00  9.000E+00
      21     1     1     2   512   515 -9.029145275E+00  4.775264128E+00 -1.061206533E+00  1.026911735E+01  1.712013080E-07  0.00000E+00  9.000E+00
</event>
<event>
      5  10001  3.52971E+09  1.96816E+01 -1.00000E+00  1.66943E-01
       3    -1     0     0   513     0  0.000000000E+00  0.000000000E+00  1.689410260E+00  1.689410260E+00  0.000000000E+00  0.00000E+00  9.000E+00
      -3    -1     0     0     0   513  0.000000000E+00  0.000000000E+00 -5.337255996E+02  5.337255996E+02  0.000000000E+00  0.00000E+00  9.000E+00
      -3     1     1     2     0   512 -5.096140030E+00 -1.026331669E+01 -4.952651547E+02  4.953979509E+02  5.000000000E-01  0.00000E+00  9.000E+00
      21     1     1     2   512   511  4.301155147E+00  4.533127990E+00 -3.169308632E+01  3.230326463E+01  8.259061849E-07  0.00000E+00  9.000E+00
       3     1     1     2   511     0  7.949848829E-01  5.730188699E+00 -5.077948293E+00  7.713794291E+00  5.000000000E-01  0.00000E+00  9.000E+00
</event>
<event>
      5  10001  3.52971E+09  3.85961E+00 -1.00000E+00  2.67172E-01
      21    -1     0     0   514   511  0.000000000E+00  0.000000000E+00  2.055614745E+02  2.055614745E+02  0.000000000E+00  0.00000E+00  9.000E+00
      21    -1     0     0   515   514  0.000000000E+00  0.000000000E+00 -1.369286579E+01  1.369286579E+01  0.000000000E+00  0.00000E+00  9.000E+00
      21     1     1     2   516   511 -4.808038244E+00  1.259994058E+01  2.005194501E+02  2.009724498E+02  0.000000000E+00  0.00000E+00  9.000E+00
      21     1     1     2   512   516  4.698734513E+00 -7.628586955E+00 -9.694879551E+00  1.320091415E+01  7.725644944E-07  0.00000E+00  9.000E+00
      21     1     1     2   515   512  1.093037307E-01 -4.971353629E+00  1.044038160E+00  5.080976273E+00  3.332000937E-08  0.00000E+00  9.000E+00
</event>
<event>
      5  10001  3.52971E+09  2.65620E+00 -1.00000E+00  3.13876E-01
      21    -1     0     0   513   512  0.000000000E+00  0.000000000E+00  2.111955563E+02  2.111955563E+02  0.000000000E+00  0.00000E+00  9.000E+00
      21    -1     0     0   514   517  0.000000000E+00  0.000000000E+00 -1.260939391E+01  1.260939391E+01  0.000000000E+00  0.00000E+00  9.000E+00
      21     1     1     2   513   517 -5.053741301E+00 -1.079023937E+01  1.651921743E+02  1.656213271E+02  0.000000000E+00  0.00000E+00  9.000E+00
      21     1     1     2   511   512  7.347340959E+00  1.212994339E+01  4.453077780E+01  4.673445321E+01  0.000000000E+00  0.00000E+00  9.000E+00
      21     1     1     2   514   511 -2.293599658E+00 -1.339704016E+00 -1.113678967E+01  1.144916986E+01  3.153981341E-07  0.00000E+00  9.000E+00
</event>
<event>
      5  10001  3.52971E+09  5.98709E+00 -1.00000E+00  2.25611E-01
       3    -1     0     0   515     0  0.000000000E+00  0.000000000E+00  7.311263917E+01  7.311263917E+01  0.000000000E+00  0.00000E+00  9.000E+00
      21    -1     0     0   514   515  0.000000000E+00  0.000000000E+00 -1.224007554E+02  1.224007554E+02  0.000000000E+00  0.00000E+00  9.000E+00
      21     1     1     2   514   516 -1.404662651E+01  7.052879645E-01 -1.006359924E+02  1.016140153E+02  1.907348633E-06  0.00000E+00  9.000E+00
      21     1     1     2   516   511  1.737713603E+01  4.269893975E+00 -1.735887788E+01  2.493045311E+01  5.331201500E-07  0.00000E+00  9.000E+00
       3     1     1     2   511     0 -3.330509523E+00 -4.975181940E+00  6.870675400E+01  6.896892615E+01  5.000000000E-01  0.00000E+00  9.000E+00
</event>
<event>
      5  10001  3.52971E+09  3.79212E+00 -1.00000E+00  2.69045E-01
      21    -1     0     0   512   516  0.000000000E+00  0.000000000E+00  5.797472671E+02  5.797472671E+02  0.000000000E+00  0.00000E+00  9.000E+00
      21    -1     0     0   514   515  0.000000000E+00  0.000000000E+00 -3.303754317E+01  3.303754317E+01  0.000000000E+00  0.00000E+00  9.000E+00
      21     1     1     2   512   513  1.029005175E+01 -7.653680092E+00  5.258476129E+02  5.260039696E+02  1.078959322E-05  0.00000E+00  9.000E+00
      21     1     1     2   514   516 -7.107584950E+00  5.591624710E+00  5.333046027E+01  5.409179257E+01  3.932099939E-06  0.00000E+00  9.000E+00
      21     1     1     2   513   515 -3.182466798E+00  2.062055383E+00 -3.246834924E+01  3.268904816E+01  1.066240300E-06  0.00000E+00  9.000E+00
</event>
<event>
      5  10001  3.52971E+09  2.79576E+00 -1.00000E+00  3.06469E-01
      21    -1     0     0   511   513  0.000000000E+00  0.000000000E+00  4.639082649E+00  4.639082649E+00  0.000000000E+00  0.00000E+00  9.000E+00
      21    -1     0     0   517   511  0.000000000E+00  0.000000000E+00 -2.262795642E+02  2.262795642E+02  0.000000000E+00  0.00000E+00  9.000E+00
      21     1     1     2   517   515  1.512794418E+01 -6.698316834E+00 -2.083626806E+02  2.090184892E+02  2.697398305E-06  0.00000E+00  9.000E+00
       2     1     1     2   515     0 -1.076029275E+01  3.892726417E+00 -5.915227336E+00  1.288549702E+01  3.300000131E-01  0.00000E+00  9.000E+00
      -2     1     1     2     0   513 -4.367651425E+00  2.805590417E+00 -7.362573578E+00  9.014660630E+00  3.300000131E-01  0.00000E+00  9.000E+00
</event>
<event>
      5  10001  3.52971E+09  9.92402E+00 -1.00000E+00  1.96136E-01
       2    -1     0     0   514     0  0.000000000E+00  0.000000000E+00  1.295431118E+02  1.295431118E+02  0.000000000E+00  0.00000E+00  9.000E+00
      21    -1     0     0   512   511  0.000000000E+00  0.000000000E+00 -8.911138409E-01  8.911138409E-01  0.000000000E+00  0.00000E+00  9.000E+00
      21     1     1     2   514   511  2.227293454E+00  6.549188145E+00  5.921038134E+01  5.961310225E+01  6.743495762E-07  0.00000E+00  9.000E+00
      21     1     1     2   512   515  3.559542517E-01 -4.462954310E+00  7.122708513E+00  8.412944857E+00  1.460009660E-07  0.00000E+00  9.000E+00
       2     1     1     2   515     0 -2.583247705E+00 -2.086233835E+00  6.231890807E+01  6.240817850E+01  3.300000131E-01  0.00000E+00  9.000E+00
</event>
<event>
      5  10001  3.52971E+09  1.10142E+01 -1.00000E+00  1.91025E-01
      21    -1     0     0   515   511  0.000000000E+00  0.000000000E+00  3.143249207E+01  3.143249207E+01  0.000000000E+00  0.00000E+00  9.000E+00
      -1    -1     0     0     0   513  0.000000000E+00  0.000000000E+00 -1.255449547E+02  1.255449547E+02  0.000000000E+00  0.00000E+00  9.000E+00
      -1     1     1     2     0   512 -1.440616812E+01  1.119051200E+01 -1.053017518E+02  1.068706371E+02  3.300000131E-01  0.00000E+00  9.000E+00
      21     1     1     2   515   513  3.502943482E+00 -1.274936484E+01 -1.600897890E+01  2.076305185E+01  6.307962682E-07  0.00000E+00  9.000E+00
      21     1     1     2   512   511  1.090322463E+01  1.558852839E+00  2.719826815E+01  2.934375776E+01  5.840038640E-07  0.00000E+00  9.000E+00
</event>
<event>
      5  10001  3.52971E+09  1.07827E+01 -1.00000E+00  1.92044E-01
       2    -1     0     0   513     0  0.000000000E+00  0.000000000E+00  1.297540604E+01  1.297540604E+01  0.000000000E+00  0.00000E+00  9.000E+00
      -1    -1     0     0     0   513  0.000000000E+00  0.000000000E+00 -3.777883327E+02  3.777883327E+02  0.000000000E+00  0.00000E+00  9.000E+00
      -1     1     1     2     0   511 -9.502570217E+00 -2.298161342E+00 -3.509001929E+02  3.510365147E+02  3.300000131E-01  0.00000E+00  9.000E+00
       2     1     1     2   514     0  6.616518226E+00 -1.955925483E+00  1.170914022E+01  1.359473511E+01  3.300000131E-01  0.00000E+00  9.000E+00
      21     1     1     2   511   514  2.886051991E+00  4.254086825E+00 -2.562187398E+01  2.613248892E+01  3.371747881E-07  0.00000E+00  9.000E+00
</event>
<event>
      5  10001  3.52971E+09  7.70373E+00 -1.00000E+00  2.09831E-01
       1    -1     0     0   511     0  0.000000000E+00  0.000000000E+00  3.896484481E+00  3.896484481E+00  0.000000000E+00  0.00000E+00  9.000E+00
      21    -1     0     0   512   513  0.000000000E+00  0.000000000E+00 -9.116460435E+01  9.116460435E+01  0.000000000E+00  0.00000E+00  9.000E+00
      21     1     1     2   511   515  3.853399119E+00 -3.545723015E+00 -7.477108567E+01  7.495422662E+01  9.536743164E-07  0.00000E+00  9.000E+00
       1     1     1     2   512     0 -5.516644730E+00  8.214724832E+00 -4.927817969E+00  1.105926594E+01  3.300000131E-01  0.00000E+00  9.000E+00
      21     1     1     2   515   513  1.663245612E+00 -4.669001817E+00 -7.569216237E+00  9.047596276E+00  1.460009660E-07  0.00000E+00  9.000E+00
</event>
<event>
      5  10001  3.52971E+09  1.07812E+01 -1.00000E+00  1.92051E-01
      21    -1     0     0   514   513  0.000000000E+00  0.000000000E+00  1.007794285E+01  1.007794285E+01  0.000000000E+00  0.00000E+00  9.000E+00
       2    -1     0     0   516     0  0.000000000E+00  0.000000000E+00 -1.035428413E+03  1.035428413E+03  0.000000000E+00  0.00000E+00  9.000E+00
      21     1     1     2   512   513  3.056141792E+01 -2.627698016E+01 -4.425948999E+01  5.986135987E+01  1.651812370E-06  0.00000E+00  9.000E+00
      21     1     1     2   516   512 -4.022706371E+01  2.150123314E+01 -2.301411683E+02  2.346177253E+02  0.000000000E+00  0.00000E+00  9.000E+00
       2     1     1     2   514     0  9.665645792E+00  4.775747017E+00 -7.509498118E+02  7.510272706E+02  3.300000131E-01  0.00000E+00  9.000E+00
</event>
<event>
      5  10001  3.52971E+09  8.64502E+00 -1.00000E+00  2.03358E-01
      21    -1     0     0   511   512  0.000000000E+00  0.000000000E+00  8.970022084E+02  8.970022084E+02  0.000000000E+00  0.00000E+00  9.000E+00
       4    -1     0     0   515     0  0.000000000E+00  0.000000000E+00 -1.510459427E+01  1.510459427E+01  0.000000000E+00  0.00000E+00  9.000E+00
      21     1     1     2   516   512 -5.810316412E+00  6.787738380E+00  8.789577289E+02  8.790031413E+02  1.525878906E-05  0.00000E+00  9.000E+00
      21     1     1     2   515   516  1.368306147E+01 -3.217231312E+00  1.342133710E+01  1.943473792E+01  1.039242493E-06  0.00000E+00  9.000E+00
       4     1     1     2   511     0 -7.872745061E+00 -3.570507068E+00 -1.048145188E+01  1.366892348E+01  1.500000000E+00  0.00000E+00  9.000E+00
</event>
<event>
      5  10001  3.52971E+09  2.56651E+00 -1.00000E+00  3.19063E-01
      21    -1     0     0   513   515  0.000000000E+00  0.000000000E+00  5.522844622E+00  5.522844622E+00  0.000000000E+00  0.00000E+00  9.000E+00
      21    -1     0     0   512   516  0.000000000E+00  0.000000000E+00 -5.579162841E+01  5.579162841E+01  0.000000000E+00  0.00000E+00  9.000E+00
      21     1     1     2   513   514 -8.342556417E-02 -1.095664514E+01 -1.657337226E+00  1.108159732E+01  3.285021735E-07  0.00000E+00  9.000E+00
      21     1     1     2   512   515 -1.953182854E+00  9.394858945E+00 -3.147261551E+01  3.290294554E+01  4.768371582E-07  0.00000E+00  9.000E+00
      21     1     1     2   514   516  2.036608418E+00  1.561786195E+00 -1.713883105E+01  1.732993018E+01  2.384185791E-07  0.00000E+00  9.000E+00
</event>
<event>
      5  10001  3.52971E+09  1.62049E+01 -1.00000E+00  1.74276E-01
      21    -1     0     0   511   512  0.000000000E+00  0.000000000E+00  1.447061895E+01  1.447061895E+01  0.000000000E+00  0.00000E+00  9.000E+00
      21    -1     0     0   514   517  0.000000000E+00  0.000000000E+00 -8.460365003E+00  8.460365003E+00  0.000000000E+00  0.00000E+00  9.000E+00
      21     1     1     2   511   517 -2.302912282E+00  6.471993120E+00  4.028724750E+00  7.963712892E+00  0.000000000E+00  0.00000E+00  9.000E+00
      21     1     1     2   514   513 -2.397689933E+00  4.399485319E-01 -4.003069393E+00  4.686900499E+00  8.429369702E-08  0.00000E+00  9.000E+00
      21     1     1     2   513   512  4.700602214E+00 -6.911941652E+00  5.984598588E+00  1.028037056E+01  2.384185791E-07  0.00000E+00  9.000E+00
</event>
<event>
      5  10001  3.52971E+09  2.22652E+00 -1.00000E+00  3.42626E-01
      -4    -1     0     0     0   514  0.000000000E+00  0.000000000E+00  4.305298666E+00  4.305298666E+00  0.000000000E+00  0.00000E+00  9.000E+00
      -2    -1     0     0     0   511  0.000000000E+00  0.000000000E+00 -1.769253640E+02  1.769253640E+02  0.000000000E+00  0.00000E+00  9.000E+00
      -4     1     1     2     0   511 -9.970862265E+00 -5.419222456E+00 -4.271222563E+00  1.221799527E+01  1.500000000E+00  0.00000E+00  9.000E+00
      -2     1     1     2     0   512  8.408251697E+00  3.835649497E+00 -1.623730913E+02  1.626362216E+02  3.300000131E-01  0.00000E+00  9.000E+00
      21     1     1     2   512   514  1.562610568E+00  1.583572959E+00 -5.975751504E+00  6.376445808E+00  0.000000000E+00  0.00000E+00  9.000E+00
</event>
<event>
      5  10001  3.52971E+09  2.05321E+01 -1.00000E+00  1.65430E-01
      21    -1     0     0   513   511  0.000000000E+00  0.000000000E+00  2.854300922E+02  2.854300922E+02  0.000000000E+00  0.00000E+00  9.000E+00
      21    -1     0     0   515   514  0.000000000E+00  0.000000000E+00 -4.021284638E-01  4.021284638E-01  0.000000000E+00  0.00000E+00  9.000E+00
      21     1     1     2   513   514 -7.888347575E-01  6.266281758E-01  1.122903334E+01  1.127413469E+01  1.685873940E-07  0.00000E+00  9.000E+00
      21     1     1     2   515   516  1.000465057E+00  5.328186549E-02  2.828029582E-01  1.041031604E+00  1.091198513E-07  0.00000E+00  9.000E+00
      21     1     1     2   516   511 -2.116302996E-01 -6.799100413E-01  2.735161275E+02  2.735170544E+02  5.394796609E-06  0.00000E+00  9.000E+00
</event>
<event>
      5  10001  3.52971E+09  5.89203E+00 -1.00000E+00  2.26697E-01
       1    -1     0     0   514     0  0.000000000E+00  0.000000000E+00  1.279657520E+02  1.279657520E+02  0.000000000E+00  0.00000E+00  9.000E+00
      21    -1     0     0   512   516  0.000000000E+00  0.000000000E+00 -2.188482649E+02  2.188482649E+02  0.000000000E+00  0.00000E+00  9.000E+00
      21     1     1     2   514   516 -1.372945694E+01 -6.510476017E+00 -2.161337591E+02  2.166672244E+02  2.697398305E-06  0.00000E+00  9.000E+00
       1     1     1     2   513     0  1.121567731E+01  2.072165280E+00  1.244636675E+02  1.249855940E+02  3.300000131E-01  0.00000E+00  9.000E+00
      21     1     1     2   512   513  2.513779628E+00  4.438310736E+00  7.875786596E-01  5.161198539E+00  7.670842216E-08  0.00000E+00  9.000E+00
</event>
<event>
      5  10001  3.52971E+09  1.19148E+01 -1.00000E+00  1.87350E-01
       1    -1     0     0   512     0  0.000000000E+00  0.000000000E+00  2.887539151E+02  2.887539151E+02  0.000000000E+00  0.00000E+00  9.000E+00
      21    -1     0     0   511   513  0.000000000E+00  0.000000000E+00 -1.258531871E+00  1.258531871E+00  0.000000000E+00  0.00000E+00  9.000E+00
       2     1     1     2   512     0  2.596756435E+00 -8.722437551E+00  1.688776495E+01  1.918670284E+01  3.300000131E-01  0.00000E+00  9.000E+00
       1     1     1     2   511     0 -4.508451073E+00  6.174918730E+00  1.847114365E+02  1.848698986E+02  3.300000131E-01  0.00000E+00  9.000E+00
      -2     1     1     2     0   513  1.911694637E+00  2.547518821E+00  8.589618180E+01  8.595584550E+01  3.300000131E-01  0.00000E+00  9.000E+00
</event>
<event>
      5  10001  3.52971E+09  5.38715E+00 -1.00000E+00  2.32987E-01
      21    -1     0     0   514   511  0.000000000E+00  0.000000000E+00  1.461250445E+03  1.461250445E+03  0.000000000E+00  0.00000E+00  9.000E+00
      21    -1     0     0   516   515  0.000000000E+00  0.000000000E+00 -1.776661601E-01  1.776661601E-01  0.000000000E+00  0.00000E+00  9.000E+00
      21     1     1     2   514   515  3.284074924E-01  8.874355468E+00  1.150985279E+03  1.151019537E+03  0.000000000E+00  0.00000E+00  9.000E+00
      21     1     1     2   512   511  1.830378200E+00 -6.645408427E+00  7.897157206E+01  7.927181675E+01  2.697398305E-06  0.00000E+00  9.000E+00
      21     1     1     2   516   512 -2.158785692E+00 -2.228947040E+00  2.311159283E+02  2.311367579E+02  3.814697266E-06  0.00000E+00  9.000E+00
</event>
<event>
      5  10001  3.52971E+09  6.50623E+00 -1.00000E+00  2.20138E-01
      21    -1     0     0   513   512  0.000000000E+00  0.000000000E+00  1.082617037E+02  1.082617037E+02  0.000000000E+00  0.00000E+00  9.000E+00
      21    -1     0     0   516   517  0.000000000E+00  0.000000000E+00 -1.038436181E+01  1.038436181E+01  0.000000000E+00  0.00000E+00  9.000E+00
      21     1     1     2   513   517 -1.128691903E+01 -5.858327599E+00  1.012326599E+02  1.020282607E+02  1.348699152E-06  0.00000E+00  9.000E+00
      21     1     1     2   511   512  9.416007691E+00  8.496628172E+00 -1.218218195E+00  1.274119095E+01  3.900007107E-07  0.00000E+00  9.000E+00
      21     1     1     2   516   511  1.870911338E+00 -2.638300573E+00 -2.137099862E+00  3.876613854E+00  2.190014490E-07  0.00000E+00  9.000E+00
</event>
<event>
      5  10001  3.52971E+09  7.65991E+00 -1.00000E+00  2.10163E-01
      21    -1     0     0   514   512  0.000000000E+00  0.000000000E+00  3.587666257E+02  3.587666257E+02  0.000000000E+00  0.00000E+00  9.000E+00
      21    -1     0     0   516   515  0.000000000E+00  0.000000000E+00 -1.556218990E+01  1.556218990E+01  0.000000000E+00  0.00000E+00  9.000E+00
      21     1     1     2   514   515  5.486742155E-01  1.482266843E+01  2.974772173E+02  2.978467850E+02  5.394796609E-06  0.00000E+00  9.000E+00
      21     1     1     2   516   511 -1.822927551E-01 -7.171530587E+00 -1.428382077E+01  1.598410515E+01  8.920806376E-07  0.00000E+00  9.000E+00
      21     1     1     2   511   512 -3.663814604E-01 -7.651137846E+00  6.001103926E+01  6.049792541E+01  0.000000000E+00  0.00000E+00  9.000E+00
</event>
<event>
      5  10001  3.52971E+09  1.03810E+01 -1.00000E+00  1.93894E-01
      21    -1     0     0   513   515  0.000000000E+00  0.000000000E+00  7.204820128E+01  7.204820128E+01  0.000000000E+00  0.00000E+00  9.000E+00
      21    -1     0     0   517   512  0.000000000E+00  0.000000000E+00 -3.563192522E+00  3.563192522E+00  0.000000000E+00  0.00000E+00  9.000E+00
      21     1     1     2   513   512 -9.925581248E+00 -1.922380531E+00  9.348637392E+00  1.376988493E+01  1.685873940E-07  0.00000E+00  9.000E+00
      21     1     1     2   517   514  5.434199414E+00  2.398517725E+00  5.606686144E+01  5.638063819E+01  9.536743164E-07  0.00000E+00  9.000E+00
      21     1     1     2   514   515  4.491381834E+00 -4.761371943E-01  3.069509927E+00  5.460870682E+00  1.460009660E-07  0.00000E+00  9.000E+00
</event>
<event>
      5  10001  3.52971E+09  9.34097E+00 -1.00000E+00  1.99238E-01
      21    -1     0     0   511   512  0.000000000E+00  0.000000000E+00  9.269784286E+02  9.269784286E+02  0.000000000E+00  0.00000E+00  9.000E+00
      -3    -1     0     0     0   511  0.000000000E+00  0.000000000E+00 -4.731053272E+00  4.731053272E+00  0.000000000E+00  0.00000E+00  9.000E+00
      21     1     1     2   515   516 -9.438607958E+00 -2.362422380E+00  9.420603317E+01  9.470715414E+01  3.015782986E-06  0.00000E+00  9.000E+00
      21     1     1     2   516   512  1.405634996E+01 -5.757157756E+00  8.274926445E+02  8.276320454E+02  1.525878906E-05  0.00000E+00  9.000E+00
      -3     1     1     2     0   515 -4.617742006E+00  8.119580136E+00  5.486976912E-01  9.370282385E+00  5.000000000E-01  0.00000E+00  9.000E+00
</event>
<event>
      5  10001  3.52971E+09  1.55440E+01 -1.00000E+00  1.75935E-01
      21    -1     0     0   513   516  0.000000000E+00  0.000000000E+00  1.895773616E+01  1.895773616E+01  0.000000000E+00  0.00000E+00  9.000E+00
      21    -1     0     0   514   513  0.000000000E+00  0.000000000E+00 -5.602231663E+02  5.602231663E+02  0.000000000E+00  0.00000E+00  9.000E+00
      21     1     1     2   514   515  6.063546255E+00  1.319003706E+01 -5.531047417E+02  5.532952186E+02  1.078959322E-05  0.00000E+00  9.000E+00
      21     1     1     2   511   516 -3.318875490E+00 -1.630461092E+01  4.152183884E+00  1.714922455E+01  6.307962682E-07  0.00000E+00  9.000E+00
      21     1     1     2   515   511 -2.744670765E+00  3.114573859E+00  7.687127706E+00  8.736459254E+00  8.128989754E-07  0.00000E+00  9.000E+00
</event>
<event>
      5  10001  3.52971E+09  7.26547E+00 -1.00000E+00  2.13288E-01
      21    -1     0     0   512   511  0.000000000E+00  0.000000000E+00  7.130559837E+00  7.130559837E+00  0.000000000E+00  0.00000E+00  9.000E+00
      21    -1     0     0   517   512  0.000000000E+00  0.000000000E+00 -2.441793939E+01  2.441793939E+01  0.000000000E+00  0.00000E+00  9.000E+00
      21     1     1     2   517   514 -8.170549360E-01 -1.214241728E+01 -1.399267282E+01  1.854456170E+01  2.920019320E-07  0.00000E+00  9.000E+00
      21     1     1     2   514   513  1.173551371E+00  1.795895797E+00 -1.140024457E+00  2.429427977E+00  4.470348358E-08  0.00000E+00  9.000E+00
      21     1     1     2   513   511 -3.564964348E-01  1.034652148E+01 -2.154682282E+00  1.057450955E+01  2.149076030E-07  0.00000E+00  9.000E+00
</event>
<event>
      5  10001  3.52971E+09  4.30658E+00 -1.00000E+00  2.56127E-01
      21    -1     0     0   515   513  0.000000000E+00  0.000000000E+00  9.456974604E+00  9.456974604E+00  0.000000000E+00  0.00000E+00  9.000E+00
      21    -1     0     0   512   515  0.000000000E+00  0.000000000E+00 -2.198123389E+02  2.198123389E+02  0.000000000E+00  0.00000E+00  9.000E+00
      21     1     1     2   516   513  5.638480895E-02 -1.125920242E+01  5.492175310E+00  1.252744219E+01  3.526258339E-07  0.00000E+00  9.000E+00
      21     1     1     2   511   516  2.041844828E+00  1.502006611E+01 -1.798445445E+02  1.804822199E+02  3.303624740E-06  0.00000E+00  9.000E+00
      21     1     1     2   512   511 -2.098229637E+00 -3.760863693E+00 -3.600299511E+01  3.625965141E+01  4.768371582E-07  0.00000E+00  9.000E+00
</event>
<event>
      5  10001  3.52971E+09  9.16780E+00 -1.00000E+00  2.00218E-01
      21    -1     0     0   514   511  0.000000000E+00  0.000000000E+00  3.212411963E+01  3.212411963E+01  0.000000000E+00  0.00000E+00  9.000E+00
      21    -1     0     0   512   517  0.000000000E+00  0.000000000E+00 -8.676505719E+00  8.676505719E+00  0.000000000E+00  0.00000E+00  9.000E+00
      21     1     1     2   514   517  1.381088010E+01  1.703164858E+00  1.604023485E+01  2.123511982E+01  2.384185791E-07  0.00000E+00  9.000E+00
      21     1     1     2   512   513 -8.348516206E+00  1.907434486E+00 -1.309630667E+00  8.663207353E+00  9.305772183E-08  0.00000E+00  9.000E+00
      21     1     1     2   513   511 -5.462363894E+00 -3.610599344E+00  8.717009720E+00  1.090229817E+01  2.064765462E-07  0.00000E+00  9.000E+00
</event>
<event>
      5  10001  3.52971E+09  6.80300E+00 -1.00000E+00  2.17315E-01
      21    -1     0     0   515   512  0.000000000E+00  0.000000000E+00  2.058014768E+02  2.058014768E+02  0.000000000E+00  0.00000E+00  9.000E+00
      21    -1     0     0   516   511  0.000000000E+00  0.000000000E+00 -6.157971268E+00  6.157971268E+00  0.000000000E+00  0.00000E+00  9.000E+00
      21     1     1     2   515   511 -1.099328898E+01  7.308511051E+00  1.512800489E+00  1.328741140E+01  3.857069941E-07  0.00000E+00  9.000E+00
      21     1     1     2   516   514  4.525522622E+00 -4.080401543E-01  9.498956970E+01  9.509818717E+01  0.000000000E+00  0.00000E+00  9.000E+00
      21     1     1     2   514   512  6.467766353E+00 -6.900470896E+00  1.031411353E+02  1.035738495E+02  1.907348633E-06  0.00000E+00  9.000E+00
</event>
<event>
      5  10001  3.52971E+09  2.88478E+01 -1.00000E+00  1.54228E-01
      21    -1     0     0   513   511  0.000000000E+00  0.000000000E+00  1.124690889E+02  1.124690889E+02  0.000000000E+00  0.00000E+00  9.000E+00
       2    -1     0     0   512     0  0.000000000E+00  0.000000000E+00 -1.889501023E+02  1.889501023E+02  0.000000000E+00  0.00000E+00  9.000E+00
      21     1     1     2   512   517  4.219809237E+01 -3.810230479E+01 -5.566657113E+01  7.956903777E+01  2.132480600E-06  0.00000E+00  9.000E+00
      21     1     1     2   517   511 -1.435947643E+01  3.053912336E+01  9.587840812E+01  1.016439952E+02  1.348699152E-06  0.00000E+00  9.000E+00
       2     1     1     2   513     0 -2.783861594E+01  7.563181423E+00 -1.166928503E+02  1.202061582E+02  3.300000131E-01  0.00000E+00  9.000E+00
</event>
<event>
      5  10001  3.52971E+09  5.41225E+00 -1.00000E+00  2.32651E-01
      21    -1     0     0   514   516  0.000000000E+00  0.000000000E+00  3.088319367E+01  3.088319367E+01  0.000000000E+00  0.00000E+00  9.000E+00
      21    -1     0     0   511   515  0.000000000E+00  0.000000000E+00 -2.746521036E+01  2.746521036E+01  0.000000000E+00  0.00000E+00  9.000E+00
      21     1     1     2   514   515  1.045969024E+01 -7.588406169E+00  2.729874196E+01  3.020282008E+01  3.371747881E-07  0.00000E+00  9.000E+00
      21     1     1     2   512   516 -6.662281833E+00  3.731961993E+00 -6.790577879E+00  1.021887897E+01  8.429369702E-08  0.00000E+00  9.000E+00
      21     1     1     2   511   512 -3.797408411E+00  3.856444176E+00 -1.709018078E+01  1.792670498E+01  0.000000000E+00  0.00000E+00  9.000E+00
</event>
<event>
      5  10001  3.52971E+09  2.25442E+01 -1.00000E+00  1.62186E-01
      21    -1     0     0   513   516  0.000000000E+00  0.000000000E+00  1.946892337E+02  1.946892337E+02  0.000000000E+00  0.00000E+00  9.000E+00
      21    -1     0     0   511   513  0.000000000E+00  0.000000000E+00 -9.363297268E+00  9.363297268E+00  0.000000000E+00  0.00000E+00  9.000E+00
      21     1     1     2   512   516 -8.039100227E+00  3.172707995E+01  1.399973842E+02  1.437723976E+02  0.000000000E+00  0.00000E+00  9.000E+00
      21     1     1     2   511   514  1.131995729E+01 -9.736074454E+00  8.283618311E+00  1.707486197E+01  2.064765462E-07  0.00000E+00  9.000E+00
      21     1     1     2   514   512 -3.280857065E+00 -2.199100549E+01  3.704493391E+01  4.320527137E+01  4.768371582E-07  0.00000E+00  9.000E+00
</event>
<event>
      5  10001  3.52971E+09  7.09923E+00 -1.00000E+00  2.14688E-01
       5    -1     0     0   515     0  0.000000000E+00  0.000000000E+00  2.169501537E+02  2.169501537E+02  0.000000000E+00  0.00000E+00  9.000E+00
      21    -1     0     0   517   515  0.000000000E+00  0.000000000E+00 -1.574342432E+02  1.574342432E+02  0.000000000E+00  0.00000E+00  9.000E+00
      21     1     1     2   511   512  1.073085362E+01 -2.391977946E+00 -9.940437934E+00  1.482177736E+01  2.384185791E-07  0.00000E+00  9.000E+00
      21     1     1     2   517   511 -1.558864169E+01 -2.783327818E+00 -1.445349638E+02  1.453998226E+02  0.000000000E+00  0.00000E+00  9.000E+00
       5     1     1     2   512     0  4.857788077E+00  5.175305764E+00  2.139913122E+02  2.141627969E+02  4.800000191E+00  0.00000E+00  9.000E+00
</event>
<event>
      5  10001  3.52971E+09  8.25993E+00 -1.00000E+00  2.05866E-01
      21    -1     0     0   513   516  0.000000000E+00  0.000000000E+00  1.453642415E+02  1.453642415E+02  0.000000000E+00  0.00000E+00  9.000E+00
       1    -1     0     0   512     0  0.000000000E+00  0.000000000E+00 -6.885704985E+02  6.885704985E+02  0.000000000E+00  0.00000E+00  9.000E+00
      21     1     1     2   513   514 -1.568689517E+01 -3.746103354E+00  9.524441999E+01  9.660026661E+01  0.000000000E+00  0.00000E+00  9.000E+00
      21     1     1     2   512   516  7.595718140E+00  2.084981183E+00  4.910318201E+01  4.973092161E+01  1.507891493E-06  0.00000E+00  9.000E+00
       1     1     1     2   514     0  8.091177033E+00  1.661122172E+00 -6.875538590E+02  6.876035517E+02  3.300000131E-01  0.00000E+00  9.000E+00
</event>
<event>
      5  10001  3.52971E+09  2.26468E+01 -1.00000E+00  1.62032E-01
      21    -1     0     0   511   512  0.000000000E+00  0.000000000E+00  3.201340208E+01  3.201340208E+01  0.000000000E+00  0.00000E+00  9.000E+00
      21    -1     0     0   514   515  0.000000000E+00  0.000000000E+00 -2.674028083E+01  2.674028083E+01  0.000000000E+00  0.00000E+00  9.000E+00
      21     1     1     2   511   515 -6.582471524E+00 -8.798456508E+00  2.108532172E+01  2.377672308E+01  0.000000000E+00  0.00000E+00  9.000E+00
      21     1     1     2   514   513  1.796317182E+01  3.297891196E+00 -1.167788395E+01  2.167774439E+01  1.685873940E-07  0.00000E+00  9.000E+00
      21     1     1     2   513   512 -1.138070030E+01  5.500565312E+00 -4.134316524E+00  1.329921543E+01  1.884864366E-07  0.00000E+00  9.000E+00
</event>
<event>
      5  10001  3.52971E+09  1.31225E+01 -1.00000E+00  1.83031E-01
      21    -1     0     0   514   512  0.000000000E+00  0.000000000E+00  5.088813962E+01  5.088813962E+01  0.000000000E+00  0.00000E+00  9.000E+00
       2    -1     0     0   512     0  0.000000000E+00  0.000000000E+00 -5.765151467E+02  5.765151467E+02  0.000000000E+00  0.00000E+00  9.000E+00
      21     1     1     2   514   513 -1.808642685E+01  5.815322240E-02  4.908462474E+01  5.231082683E+01  2.023048729E-06  0.00000E+00  9.000E+00
      21     1     1     2   513   511  1.197075486E+01  1.387690773E+00 -2.236526846E+02  2.239771149E+02  4.672030912E-06  0.00000E+00  9.000E+00
       2     1     1     2   511     0  6.115671997E+00 -1.445843996E+00 -3.510589471E+02  3.511153446E+02  3.300000131E-01  0.00000E+00  9.000E+00
</event>
<event>
      5  10001  3.52971E+09  9.38087E+00 -1.00000E+00  1.99017E-01
       2    -1     0     0   514     0  0.000000000E+00  0.000000000E+00  2.143651276E+00  2.143651276E+00  0.000000000E+00  0.00000E+00  9.000E+00
       3    -1     0     0   511     0  0.000000000E+00  0.000000000E+00 -2.453894035E+02  2.453894035E+02  0.000000000E+00  0.00000E+00  9.000E+00
       2     1     1     2   511     0 -1.954909261E-01 -1.227272173E+01 -2.011192567E+01  2.356387849E+01  3.300000131E-01  0.00000E+00  9.000E+00
       3     1     1     2   512     0  4.230238456E+00  6.328459060E+00 -1.854384528E+02  1.855952965E+02  5.000000000E-01  0.00000E+00  9.000E+00
      21     1     1     2   514   512 -4.034747530E+00  5.944262668E+00 -3.769537378E+01  3.837387980E+01  1.066240300E-06  0.00000E+00  9.000E+00
</event>
<event>
      5  10001  3.52971E+09  1.12157E+01 -1.00000E+00  1.90164E-01
       1    -1     0     0   514     0  0.000000000E+00  0.000000000E+00  4.924648287E+01  4.924648287E+01  0.000000000E+00  0.00000E+00  9.000E+00
      21    -1     0     0   512   514  0.000000000E+00  0.000000000E+00 -7.123306371E+01  7.123306371E+01  0.000000000E+00  0.00000E+00  9.000E+00
      21     1     1     2   512   511  1.421929720E+01  6.747547905E+00 -4.842765851E+01  5.092107545E+01  6.743495762E-07  0.00000E+00  9.000E+00
       1     1     1     2   513     0 -8.892025688E+00 -9.858962821E+00  4.661102744E+01  4.846611237E+01  3.300000131E-01  0.00000E+00  9.000E+00
      21     1     1     2   511   513 -5.327271510E+00  3.111414916E+00 -2.016994977E+01  2.109235876E+01  0.000000000E+00  0.00000E+00  9.000E+00
</event>
<event>
      5  10001  3.52971E+09  7.54942E+00 -1.00000E+00  2.11012E-01
      21    -1     0     0   515   512  0.000000000E+00  0.000000000E+00  6.927014717E+02  6.927014717E+02  0.000000000E+00  0.00000E+00  9.000E+00
      21    -1     0     0   516   515  0.000000000E+00  0.000000000E+00 -9.661702895E+01  9.661702895E+01  0.000000000E+00  0.00000E+00  9.000E+00
      21     1     1     2   513   512  1.126999743E+01 -4.174968361E+00  6.919391234E+02  6.920434912E+02  7.629394531E-06  0.00000E+00  9.000E+00
      21     1     1     2   514   513 -5.097369233E+00 -1.566510107E+00 -6.705974707E+01  6.727144122E+01  1.348699152E-06  0.00000E+00  9.000E+00
      21     1     1     2   516   514 -6.172628194E+00  5.741478469E+00 -2.879493352E+01  3.000356830E+01  1.066240300E-06  0.00000E+00  9.000E+00
</event>
<event>
      5  10001  3.52971E+09  4.68775E+00 -1.00000E+00  2.48217E-01
      21    -1     0     0   511   514  0.000000000E+00  0.000000000E+00  4.564300637E+00  4.564300637E+00  0.000000000E+00  0.00000E+00  9.000E+00
      21    -1     0     0   512   517  0.000000000E+00  0.000000000E+00 -2.383030592E+01  2.383030592E+01  0.000000000E+00  0.00000E+00  9.000E+00
      21     1     1     2   511   517  4.524110893E+00  8.361339398E+00 -6.302699220E+00  1.140629622E+01  2.795705652E-07  0.00000E+00  9.000E+00
      21     1     1     2   513   514 -4.416145924E+00 -4.620988241E+00 -4.752521046E+00  7.965069581E+00  2.308477966E-07  0.00000E+00  9.000E+00
      21     1     1     2   512   513 -1.079649699E-01 -3.740351157E+00 -8.210785019E+00  9.023240762E+00  0.000000000E+00  0.00000E+00  9.000E+00
</event>
<event>
      5  10001  3.52971E+09  4.75637E+00 -1.00000E+00  2.46913E-01
      21    -1     0     0   511   514  0.000000000E+00  0.000000000E+00  1.316429799E+02  1.316429799E+02  0.000000000E+00  0.00000E+00  9.000E+00
      21    -1     0     0   512   515  0.000000000E+00  0.000000000E+00 -6.513346020E+01  6.513346020E+01  0.000000000E+00  0.00000E+00  9.000E+00
      21     1     1     2   513   514  1.938725826E+00  1.036016425E+01  1.624780745E+00  1.066450062E+01  4.759049244E-07  0.00000E+00  9.000E+00
      21     1     1     2   512   513 -2.740744225E+00 -1.504842503E+01 -5.960246793E+01  6.153390089E+01  1.507891493E-06  0.00000E+00  9.000E+00
      21     1     1     2   511   515  8.020183987E-01  4.688260785E+00  1.244872068E+02  1.245780385E+02  1.348699152E-06  0.00000E+00  9.000E+00
</event>
<event>
      5  10001  3.52971E+09  1.06811E+01 -1.00000E+00  1.92502E-01
      21    -1     0     0   513   514  0.000000000E+00  0.000000000E+00  6.733971772E+01  6.733971772E+01  0.000000000E+00  0.00000E+00  9.000E+00
      -3    -1     0     0     0   515  0.000000000E+00  0.000000000E+00 -4.343775333E+01  4.343775333E+01  0.000000000E+00  0.00000E+00  9.000E+00
      -3     1     1     2     0   512 -5.648894945E+00  6.674587133E+00 -3.819177999E+01  3.918318755E+01  5.000000000E-01  0.00000E+00  9.000E+00
      21     1     1     2   513   515  1.562830232E+01 -2.867804951E+00  1.082852587E+01  1.922823734E+01  5.960464478E-07  0.00000E+00  9.000E+00
      21     1     1     2   512   514 -9.979407379E+00 -3.806782182E+00  5.126521851E+01  5.236604617E+01  6.743495762E-07  0.00000E+00  9.000E+00
</event>
<event>
      5  10001  3.52971E+09  8.60671E+00 -1.00000E+00  2.03599E-01
      21    -1     0     0   511   513  0.000000000E+00  0.000000000E+00  1.407200734E+02  1.407200734E+02  0.000000000E+00  0.00000E+00  9.000E+00
      21    -1     0     0   514   511  0.000000000E+00  0.000000000E+00 -1.866002513E+02  1.866002513E+02  0.000000000E+00  0.00000E+00  9.000E+00
      21     1     1     2   516   515 -6.389649879E+00  4.267377133E+00  1.307632264E+02  1.309887762E+02  0.000000000E+00  0.00000E+00  9.000E+00
      21     1     1     2   514   516  6.101501938E+00 -1.286926574E+01 -1.842774540E+02  1.848270175E+02  2.697398305E-06  0.00000E+00  9.000E+00
      21     1     1     2   515   513  2.881479418E-01  8.601888606E+00  7.634049839E+00  1.150453101E+01  1.884864366E-07  0.00000E+00  9.000E+00
</event>
<event>
      5  10001  3.52971E+09  9.40357E+00 -1.00000E+00  1.98891E-01
      21    -1     0     0   514   516  0.000000000E+00  0.000000000E+00  7.059870657E+01  7.059870657E+01  0.000000000E+00  0.00000E+00  9.000E+00
      21    -1     0     0   512   511  0.000000000E+00  0.000000000E+00 -3.156507130E+01  3.156507130E+01  0.000000000E+00  0.00000E+00  9.000E+00
      21     1     1     2   514   511 -2.840808659E+00  1.806127052E+01  2.896292637E+01  3.425099693E+01  4.768371582E-07  0.00000E+00  9.000E+00
       4     1     1     2   512     0  3.041329518E+00 -8.666690541E+00 -2.756452998E+01  2.909320408E+01  1.500000000E+00  0.00000E+00  9.000E+00
      -4     1     1     2     0   516 -2.005208585E-01 -9.394579977E+00  3.763523888E+01  3.881957686E+01  1.500000000E+00  0.00000E+00  9.000E+00
</event>
<event>
      5  10001  3.52971E+09  1.28861E+01 -1.00000E+00  1.83829E-01
      -3    -1     0     0     0   513  0.000000000E+00  0.000000000E+00  1.709725102E+02  1.709725102E+02  0.000000000E+00  0.00000E+00  9.000E+00
       2    -1     0     0   513     0  0.000000000E+00  0.000000000E+00 -4.846906851E+01  4.846906851E+01  0.000000000E+00  0.00000E+00  9.000E+00
      21     1     1     2   511   514 -1.896522828E+00  1.958339918E+01  7.900875064E+01  8.142167402E+01  1.651812370E-06  0.00000E+00  9.000E+00
       2     1     1     2   514     0  9.542660881E+00 -2.869877331E+01 -4.196828135E+01  5.173130102E+01  3.300000131E-01  0.00000E+00  9.000E+00
      -3     1     1     2     0   511 -7.646138053E+00  9.115374126E+00  8.546297241E+01  8.628860368E+01  5.000000000E-01  0.00000E+00  9.000E+00
</event>
<event>
      5  10001  3.52971E+09  1.30116E+01 -1.00000E+00  1.83403E-01
      21    -1     0     0   512   513  0.000000000E+00  0.000000000E+00  6.748569785E-01  6.748569785E-01  0.000000000E+00  0.00000E+00  9.000E+00
       2    -1     0     0   514     0  0.000000000E+00  0.000000000E+00 -2.091565862E+02  2.091565862E+02  0.000000000E+00  0.00000E+00  9.000E+00
      21     1     1     2   514   513 -5.619072710E+00 -5.925235696E+00 -9.167018422E+01  9.203317375E+01  1.348699152E-06  0.00000E+00  9.000E+00
      21     1     1     2   512   515  8.940075393E-01  2.423620250E+00 -3.585777163E+00  4.419387114E+00  2.230201594E-07  0.00000E+00  9.000E+00
       2     1     1     2   515     0  4.725065170E+00  3.501615446E+00 -1.132257678E+02  1.133788823E+02  3.300000131E-01  0.00000E+00  9.000E+00
</event>
<event>
      5  10001  3.52971E+09  6.92024E+00 -1.00000E+00  2.16254E-01
      21    -1     0     0   514   515  0.000000000E+00  0.000000000E+00  1.162733187E+02  1.162733187E+02  0.000000000E+00  0.00000E+00  9.000E+00
      21    -1     0     0   512   511  0.000000000E+00  0.000000000E+00 -4.777937650E+01  4.777937650E+01  0.000000000E+00  0.00000E+00  9.000E+00
      -3     1     1     2     0   515 -1.090255292E+01  6.266362282E+00 -3.908495051E+01  4.106112898E+01  5.000000000E-01  0.00000E+00  9.000E+00
      21     1     1     2   514   511  8.604230826E+00  2.604917914E-01  1.135271106E+02  1.138529994E+02  1.907348633E-06  0.00000E+00  9.000E+00
       3     1     1     2   512     0  2.298322093E+00 -6.526854073E+00 -5.948217822E+00  9.138566835E+00  5.000000000E-01  0.00000E+00  9.000E+00
</event>
<event>
      5  10001  3.52971E+09  9.40292E+00 -1.00000E+00  1.98895E-01
      21    -1     0     0   513   511  0.000000000E+00  0.000000000E+00  2.034702928E+02  2.034702928E+02  0.000000000E+00  0.00000E+00  9.000E+00
      21    -1     0     0   514   513  0.000000000E+00  0.000000000E+00 -1.108248348E+01  1.108248348E+01  0.000000000E+00  0.00000E+00  9.000E+00
      21     1     1     2   516   511  6.471850777E+00  5.034191181E+00  1.874281644E+02  1.876074218E+02  2.697398305E-06  0.00000E+00  9.000E+00
      21     1     1     2   512   516 -1.556602995E+01 -2.644468420E+00 -9.869004664E-01  1.581987592E+01  6.799241630E-07  0.00000E+00  9.000E+00
      21     1     1     2   514   512  9.094179176E+00 -2.389722761E+00  5.946545429E+00  1.112547852E+01  2.064765462E-07  0.00000E+00  9.000E+00
</event>
<event>
      5  10001  3.52971E+09  7.32899E+00 -1.00000E+00  2.12767E-01
      -1    -1     0     0     0   515  0.000000000E+00  0.000000000E+00  1.936285465E+02  1.936285465E+02  0.000000000E+00  0.00000E+00  9.000E+00
      21    -1     0     0   515   513  0.000000000E+00  0.000000000E+00 -1.152818521E+00  1.152818521E+00  0.000000000E+00  0.00000E+00  9.000E+00
      -1     1     1     2     0   511 -6.413947023E+00 -4.852656967E+00  1.404728016E+02  1.407032476E+02  3.300000131E-01  0.00000E+00  9.000E+00
      21     1     1     2   514   513  9.801523383E+00  5.435283738E+00  4.313680884E+01  4.456900769E+01  8.259061849E-07  0.00000E+00  9.000E+00
      21     1     1     2   511   514 -3.387576360E+00 -5.826267711E-01  8.866117512E+00  9.509109700E+00  1.685873940E-07  0.00000E+00  9.000E+00
</event>
<event>
      5  10001  3.52971E+09  1.73741E+01 -1.00000E+00  1.71572E-01
      21    -1     0     0   512   514  0.000000000E+00  0.000000000E+00  4.313890333E+02  4.313890333E+02  0.000000000E+00  0.00000E+00  9.000E+00
      21    -1     0     0   511   516  0.000000000E+00  0.000000000E+00 -2.073653553E+02  2.073653553E+02  0.000000000E+00  0.00000E+00  9.000E+00
      21     1     1     2   512   516  3.424830094E+00 -1.786962926E+01  4.199886348E+02  4.203825716E+02  7.629394531E-06  0.00000E+00  9.000E+00
      21     1     1     2   511   513 -8.791217587E+00  1.121970606E+01 -2.052550675E+02  2.057493865E+02  0.000000000E+00  0.00000E+00  9.000E+00
      21     1     1     2   513   514  5.366387492E+00  6.649923209E+00  9.290110742E+00  1.262243047E+01  0.000000000E+00  0.00000E+00  9.000E+00
</event>
<event>
      5  10001  3.52971E+09  1.68778E+01 -1.00000E+00  1.72686E-01
       1    -1     0     0   512     0  0.000000000E+00  0.000000000E+00  3.982077730E+02  3.982077730E+02  0.000000000E+00  0.00000E+00  9.000E+00
      21    -1     0     0   515   512  0.000000000E+00  0.000000000E+00 -9.415710363E+00  9.415710363E+00  0.000000000E+00  0.00000E+00  9.000E+00
      21     1     1     2   515   513  9.799020789E+00  3.041716935E+00 -5.579741834E+00  1.167931373E+01  4.129530925E-07  0.00000E+00  9.000E+00
       1     1     1     2   511     0 -1.088423092E+01  9.151118554E+00  3.360841668E+02  3.363850257E+02  3.300000131E-01  0.00000E+00  9.000E+00
      21     1     1     2   513   511  1.085210133E+00 -1.219283549E+01  5.828763765E+01  5.955914390E+01  6.743495762E-07  0.00000E+00  9.000E+00
</event>
<event>
      5  10001  3.52971E+09  1.22434E+01 -1.00000E+00  1.86111E-01
      21    -1     0     0   514   512  0.000000000E+00  0.000000000E+00  2.122857643E+01  2.122857643E+01  0.000000000E+00  0.00000E+00  9.000E+00
      21    -1     0     0   513   516  0.000000000E+00  0.000000000E+00 -6.172544702E+02  6.172544702E+02  0.000000000E+00  0.00000E+00  9.000E+00
      21     1     1     2   514   516  4.303803061E+00  1.032856204E+01 -1.267560337E+01  1.690777441E+01  4.460403188E-07  0.00000E+00  9.000E+00
      21     1     1     2   513   511  5.201022668E+00 -1.804608827E+01 -6.003399708E+02  6.006336591E+02  7.629394531E-06  0.00000E+00  9.000E+00
      21     1     1     2   511   512 -9.504825730E+00  7.717526229E+00  1.698968034E+01  2.094161315E+01  1.563415176E-06  0.00000E+00  9.000E+00
</event>
<event>
      5  10001  3.52971E+09  1.35598E+01 -1.00000E+00  1.81611E-01
       2    -1     0     0   513     0  0.000000000E+00  0.000000000E+00  2.898501395E+02  2.898501395E+02  0.000000000E+00  0.00000E+00  9.000E+00
      21    -1     0     0   515   514  0.000000000E+00  0.000000000E+00 -1.149916539E+02  1.149916539E+02  0.000000000E+00  0.00000E+00  9.000E+00
      21     1     1     2   515   511  3.005961673E+00 -9.334492965E+00 -1.133966205E+02  1.138198670E+02  2.336015456E-06  0.00000E+00  9.000E+00
       2     1     1     2   511     0 -5.383169012E+00  2.268431070E+01  2.314190916E+02  2.325907593E+02  3.300000131E-01  0.00000E+00  9.000E+00
      21     1     1     2   513   514  2.377207339E+00 -1.334981773E+01  5.683601452E+01  5.843116715E+01  6.743495762E-07  0.00000E+00  9.000E+00
</event>
<event>
      5  10001  3.52971E+09  1.15827E+01 -1.00000E+00  1.88655E-01
      21    -1     0     0   514   515  0.000000000E+00  0.000000000E+00  4.258177449E+01  4.258177449E+01  0.000000000E+00  0.00000E+00  9.000E+00
      21    -1     0     0   512   514  0.000000000E+00  0.000000000E+00 -3.953883008E+01  3.953883008E+01  0.000000000E+00  0.00000E+00  9.000E+00
      -3     1     1     2     0   515  1.111467247E+01  6.884347644E+00  3.620345518E+01  3.849506921E+01  5.000000000E-01  0.00000E+00  9.000E+00
      21     1     1     2   512   511 -5.366112557E+00 -1.821651179E+00 -3.522376841E+01  3.567670722E+01  0.000000000E+00  0.00000E+00  9.000E+00
       3     1     1     2   511     0 -5.748559909E+00 -5.062696465E+00  2.063257648E+00  7.948828131E+00  5.000000000E-01  0.00000E+00  9.000E+00
</event>
<event>
      5  10001  3.52971E+09  6.96836E+00 -1.00000E+00  2.15826E-01
       2    -1     0     0   511     0  0.000000000E+00  0.000000000E+00  7.084793258E+02  7.084793258E+02  0.000000000E+00  0.00000E+00  9.000E+00
      -4    -1     0     0     0   512  0.000000000E+00  0.000000000E+00 -8.216858704E+00  8.216858704E+00  0.000000000E+00  0.00000E+00  9.000E+00
      -4     1     1     2     0   513  1.471656356E+00 -1.013913700E+01 -4.281598686E+00  1.120490780E+01  1.500000000E+00  0.00000E+00  9.000E+00
       2     1     1     2   513     0  4.440482969E+00  1.382618371E+01  6.742427603E+02  6.743992067E+02  3.300000131E-01  0.00000E+00  9.000E+00
      21     1     1     2   511   512 -5.912139325E+00 -3.687046716E+00  3.030130546E+01  3.109207001E+01  3.371747881E-07  0.00000E+00  9.000E+00
</event>
<event>
      5  10001  3.52971E+09  1.83300E+01 -1.00000E+00  1.69552E-01
      21    -1     0     0   514   516  0.000000000E+00  0.000000000E+00  2.563032500E+01  2.563032500E+01  0.000000000E+00  0.00000E+00  9.000E+00
      21    -1     0     0   515   514  0.000000000E+00  0.000000000E+00 -2.639790752E+01  2.639790752E+01  0.000000000E+00  0.00000E+00  9.000E+00
      21     1     1     2   512   516 -1.173408186E+00  1.259533754E+01  1.230195587E+01  1.764532608E+01  1.685873940E-07  0.00000E+00  9.000E+00
      21     1     1     2   513   512  8.225432407E+00 -1.286306624E+01 -1.954733875E+01  2.480352119E+01  2.384185791E-07  0.00000E+00  9.000E+00
      21     1     1     2   515   513 -7.052024220E+00  2.677287009E-01  6.477800366E+00  9.579385254E+00  1.192092896E-07  0.00000E+00  9.000E+00
</event>
<event>
      5  10001  3.52971E+09  4.20090E+00 -1.00000E+00  2.58546E-01
       1    -1     0     0   514     0  0.000000000E+00  0.000000000E+00  1.349276798E+02  1.349276798E+02  0.000000000E+00  0.00000E+00  9.000E+00
      21    -1     0     0   511   512  0.000000000E+00  0.000000000E+00 -3.179877228E+01  3.179877228E+01  0.000000000E+00  0.00000E+00  9.000E+00
      21     1     1     2   514   513 -3.859167480E+00  1.338742827E+01  1.919115340E-02  1.393257972E+01  1.570286917E-07  0.00000E+00  9.000E+00
       1     1     1     2   511     0  4.188297205E+00 -9.199466884E+00  1.275726340E+02  1.279728795E+02  3.300000131E-01  0.00000E+00  9.000E+00
      21     1     1     2   513   512 -3.291297258E-01 -4.187961383E+00 -2.446291767E+01  2.482099289E+01  3.371747881E-07  0.00000E+00  9.000E+00
</event>
<event>
      5  10001  3.52971E+09  1.11062E+01 -1.00000E+00  1.90629E-01
       2    -1     0     0   512     0  0.000000000E+00  0.000000000E+00  8.798373416E+02  8.798373416E+02  0.000000000E+00  0.00000E+00  9.000E+00
      -3    -1     0     0     0   512  0.000000000E+00  0.000000000E+00 -1.456079950E+02  1.456079950E+02  0.000000000E+00  0.00000E+00  9.000E+00
      21     1     1     2   513   515 -9.249056474E+00  1.451306346E+01 -1.393000007E+02  1.403590548E+02  5.722045898E-06  0.00000E+00  9.000E+00
       2     1     1     2   515     0  1.231216898E+01 -3.837704453E+00  8.738685191E+02  8.739637378E+02  3.300000131E-01  0.00000E+00  9.000E+00
      -3     1     1     2     0   513 -3.063112508E+00 -1.067535900E+01 -3.391718502E-01  1.112254403E+01  5.000000000E-01  0.00000E+00  9.000E+00
</event>
<event>
      5  10001  3.52971E+09  3.07105E+00 -1.00000E+00  2.93807E-01
       2    -1     0     0   511     0  0.000000000E+00  0.000000000E+00  1.260581225E+02  1.260581225E+02  0.000000000E+00  0.00000E+00  9.000E+00
      21    -1     0     0   514   511  0.000000000E+00  0.000000000E+00 -6.176953290E+01  6.176953290E+01  0.000000000E+00  0.00000E+00  9.000E+00
      21     1     1     2   516   513  7.013957452E+00  1.233026706E+01  2.535440344E+01  2.905300085E+01  8.259061849E-07  0.00000E+00  9.000E+00
      21     1     1     2   514   516 -4.244977408E+00 -1.100211296E+01 -5.931551548E+01  6.047641440E+01  6.743495762E-07  0.00000E+00  9.000E+00
       2     1     1     2   513     0 -2.768980044E+00 -1.328154097E+00  9.824970165E+01  9.829824016E+01  3.300000131E-01  0.00000E+00  9.000E+00
</event>
<event>
      5  10001  3.52971E+09  1.07384E+01 -1.00000E+00  1.92243E-01
      21    -1     0     0   515   514  0.000000000E+00  0.000000000E+00  3.370807832E+01  3.370807832E+01  0.000000000E+00  0.00000E+00  9.000E+00
      21    -1     0     0   512   515  0.000000000E+00  0.000000000E+00 -1.914031460E+01  1.914031460E+01  0.000000000E+00  0.00000E+00  9.000E+00
      -3     1     1     2     0   511  1.046041122E+01 -6.163453368E+00  1.603278043E+01  2.011736585E+01  5.000000000E-01  0.00000E+00  9.000E+00
       3     1     1     2   512     0 -1.216308287E+01  1.103282930E+00 -1.431053222E+01  1.882017934E+01  5.000000000E-01  0.00000E+00  9.000E+00
      21     1     1     2   511   514  1.702671646E+00  5.060170438E+00  1.284551551E+01  1.391084773E+01  1.685873940E-07  0.00000E+00  9.000E+00
</event>
<event>
      5  10001  3.52971E+09  6.77804E+00 -1.00000E+00  2.17545E-01
      21    -1     0     0   513   512  0.000000000E+00  0.000000000E+00  1.336645640E+02  1.336645640E+02  0.000000000E+00  0.00000E+00  9.000E+00
      21    -1     0     0   515   514  0.000000000E+00  0.000000000E+00 -2.464948946E+02  2.464948946E+02  0.000000000E+00  0.00000E+00  9.000E+00
      21     1     1     2   513   514 -6.221897818E+00 -1.249070519E+01  7.147876582E+00  1.567870748E+01  6.251387883E-07  0.00000E+00  9.000E+00
      21     1     1     2   511   512  6.237298796E+00  5.712681862E+00  1.220574767E+02  1.223501788E+02  0.000000000E+00  0.00000E+00  9.000E+00
      21     1     1     2   515   511 -1.540097820E-02  6.778023324E+00 -2.420356838E+02  2.421305724E+02  2.697398305E-06  0.00000E+00  9.000E+00
</event>
<event>
      5  10001  3.52971E+09  5.76382E+00 -1.00000E+00  2.28209E-01
      -1    -1     0     0     0   512  0.000000000E+00  0.000000000E+00  9.911448149E+00  9.911448149E+00  0.000000000E+00  0.00000E+00  9.000E+00
       2    -1     0     0   512     0  0.000000000E+00  0.000000000E+00 -9.528559235E+02  9.528559235E+02  0.000000000E+00  0.00000E+00  9.000E+00
      -1     1     1     2     0   514  2.621586689E+00 -7.387225938E+00  6.170340328E+00  9.981273647E+00  3.300000131E-01  0.00000E+00  9.000E+00
       2     1     1     2   513     0 -7.392837073E+00  1.280063309E+01 -9.435699878E+02  9.436858275E+02  3.300000131E-01  0.00000E+00  9.000E+00
      21     1     1     2   514   513  4.771250384E+00 -5.413407156E+00 -5.544827918E+00  9.100270540E+00  5.960464478E-07  0.00000E+00  9.000E+00
</event>
<event>
      5  10001  3.52971E+09  1.04288E+01 -1.00000E+00  1.93668E-01
      21    -1     0     0   511   513  0.000000000E+00  0.000000000E+00  9.006347657E+01  9.006347657E+01  0.000000000E+00  0.00000E+00  9.000E+00
      21    -1     0     0   512   511  0.000000000E+00  0.000000000E+00 -4.682228884E+01  4.682228884E+01  0.000000000E+00  0.00000E+00  9.000E+00
      21     1     1     2   512   515 -1.655197071E+00  1.148438641E+01 -4.555655820E+01  4.701096472E+01  6.743495762E-07  0.00000E+00  9.000E+00
      21     1     1     2   516   513 -3.004732061E+00 -3.450064952E+00  3.087174973E+01  3.120891370E+01  4.768371582E-07  0.00000E+00  9.000E+00
      21     1     1     2   515   516  4.659929132E+00 -8.034321455E+00  5.792599620E+01  5.866588699E+01  0.000000000E+00  0.00000E+00  9.000E+00
</event>
<event>
      5  10001  3.52971E+09  1.38113E+01 -1.00000E+00  1.80825E-01
       1    -1     0     0   511     0  0.000000000E+00  0.000000000E+00  7.974504650E+01  7.974504650E+01  0.000000000E+00  0.00000E+00  9.000E+00
      21    -1     0     0   515   511  0.000000000E+00  0.000000000E+00 -1.461435041E+02  1.461435041E+02  0.000000000E+00  0.00000E+00  9.000E+00
      21     1     1     2   515   514 -2.218116711E+01 -1.102415398E+00 -1.400630585E+02  1.418128339E+02  0.000000000E+00  0.00000E+00  9.000E+00
       1     1     1     2   512     0  1.490904892E+01  1.097601747E+01  6.816705217E+01  7.063716161E+01  3.300000131E-01  0.00000E+00  9.000E+00
      21     1     1     2   514   512  7.272118195E+00 -9.873602068E+00  5.497548759E+00  1.343855510E+01  2.230201594E-07  0.00000E+00  9.000E+00
</event>
<event>
      5  10001  3.52971E+09  8.50730E+00 -1.00000E+00  2.04234E-01
      21    -1     0     0   515   511  0.000000000E+00  0.000000000E+00  7.357185076E+01  7.357185076E+01  0.000000000E+00  0.00000E+00  9.000E+00
      -1    -1     0     0     0   513  0.000000000E+00  0.000000000E+00 -1.377788305E+02  1.377788305E+02  0.000000000E+00  0.00000E+00  9.000E+00
      -1     1     1     2     0   512 -4.629113344E+00 -1.717458701E+01 -1.302292229E+02  1.314387862E+02  3.300000131E-01  0.00000E+00  9.000E+00
      21     1     1     2   515   513  2.908137271E+00  8.843198314E+00 -3.444679847E+00  9.925988014E+00  5.701519987E-07  0.00000E+00  9.000E+00
      21     1     1     2   512   511  1.720976073E+00  8.331388692E+00  6.946692298E+01  6.998590704E+01  9.536743164E-07  0.00000E+00  9.000E+00
</event>
<event>
      5  10001  3.52971E+09  2.23916E+01 -1.00000E+00  1.62418E-01
      21    -1     0     0   514   511  0.000000000E+00  0.000000000E+00  1.175261583E+02  1.175261583E+02  0.000000000E+00  0.00000E+00  9.000E+00
       1    -1     0     0   512     0  0.000000000E+00  0.000000000E+00 -2.258881481E+00  2.258881481E+00  0.000000000E+00  0.00000E+00  9.000E+00
      21     1     1     2   512   511 -1.282221302E+00  9.767299363E+00  4.025199068E+01  4.143992015E+01  6.743495762E-07  0.00000E+00  9.000E+00
       1     1     1     2   513     0 -4.891720367E+00 -1.950606773E+00  3.965748152E+00  6.600746423E+00  3.300000131E-01  0.00000E+00  9.000E+00
      21     1     1     2   514   513  6.173941670E+00 -7.816692590E+00  7.104953794E+01  7.174437316E+01  0.000000000E+00  0.00000E+00  9.000E+00
</event>
<event>
      5  10001  3.52971E+09  7.61221E+00 -1.00000E+00  2.10527E-01
      21    -1     0     0   515   512  0.000000000E+00  0.000000000E+00  3.459036213E-01  3.459036213E-01  0.000000000E+00  0.00000E+00  9.000E+00
      21    -1     0     0   511   516  0.000000000E+00  0.000000000E+00 -4.037909233E+02  4.037909233E+02  0.000000000E+00  0.00000E+00  9.000E+00
      21     1     1     2   515   516  6.310076568E+00  7.364544963E+00 -2.821182919E+02  2.822849344E+02  3.814697266E-06  0.00000E+00  9.000E+00
      21     1     1     2   511   517 -2.787063907E+00 -3.612240011E+00 -8.910005042E+01  8.921678647E+01  0.000000000E+00  0.00000E+00  9.000E+00
      21     1     1     2   517   512 -3.523012661E+00 -3.752304952E+00 -3.222667739E+01  3.263510604E+01  4.768371582E-07  0.00000E+00  9.000E+00
</event>
<event>
      5  10001  3.52971E+09  6.20223E+00 -1.00000E+00  2.23253E-01
      21    -1     0     0   513   511  0.000000000E+00  0.000000000E+00  1.568747286E+00  1.568747286E+00  0.000000000E+00  0.00000E+00  9.000E+00
      21    -1     0     0   514   512  0.000000000E+00  0.000000000E+00 -6.970148106E+01  6.970148106E+01  0.000000000E+00  0.00000E+00  9.000E+00
      21     1     1     2   513   512  6.043191170E+00 -7.705218439E+00 -3.103636757E+01  3.254453353E+01  4.768371582E-07  0.00000E+00  9.000E+00
      21     1     1     2   515   511 -2.430527381E+00  3.090761338E+00 -6.691684008E+00  7.761372550E+00  1.192092896E-07  0.00000E+00  9.000E+00
      21     1     1     2   514   515 -3.612663789E+00  4.614457101E+00 -3.040468219E+01  3.096432226E+01  3.371747881E-07  0.00000E+00  9.000E+00
</event>
<event>
      5  10001  3.52971E+09  1.31215E+01 -1.00000E+00  1.83035E-01
      21    -1     0     0   511   512  0.000000000E+00  0.000000000E+00  3.739002680E+01  3.739002680E+01  0.000000000E+00  0.00000E+00  9.000E+00
      21    -1     0     0   514   517  0.000000000E+00  0.000000000E+00 -5.005544133E+01  5.005544133E+01  0.000000000E+00  0.00000E+00  9.000E+00
      21     1     1     2   516   517 -1.558785567E+01 -9.799312656E+00 -4.517859364E+01  4.878640278E+01  4.768371582E-07  0.00000E+00  9.000E+00
      21     1     1     2   514   512  4.946106016E+00  2.122980188E+00  2.564828011E+00  5.962327761E+00  2.598106231E-07  0.00000E+00  9.000E+00
      21     1     1     2   511   516  1.064174966E+01  7.676332468E+00  2.994835109E+01  3.269673759E+01  3.371747881E-07  0.00000E+00  9.000E+00
</event>
<event>
      5  10001  3.52971E+09  4.87607E+00 -1.00000E+00  2.44716E-01
      21    -1     0     0   515   512  0.000000000E+00  0.000000000E+00  3.544133664E+01  3.544133664E+01  0.000000000E+00  0.00000E+00  9.000E+00
       2    -1     0     0   512     0  0.000000000E+00  0.000000000E+00 -6.235087122E+02  6.235087122E+02  0.000000000E+00  0.00000E+00  9.000E+00
      21     1     1     2   514   513 -5.827656887E+00  1.116618478E+01  8.973829638E+00  1.546528001E+01  1.092571186E-06  0.00000E+00  9.000E+00
       2     1     1     2   513     0  3.852877533E+00 -6.707906513E+00 -6.199825808E+02  6.200309267E+02  3.300000131E-01  0.00000E+00  9.000E+00
      21     1     1     2   515   514  1.974779354E+00 -4.458278268E+00  2.294137558E+01  2.345384216E+01  4.768371582E-07  0.00000E+00  9.000E+00
</event>
<event>
      5  10001  3.52971E+09  1.05307E+01 -1.00000E+00  1.93192E-01
      21    -1     0     0   511   514  0.000000000E+00  0.000000000E+00  4.303945074E+00  4.303945074E+00  0.000000000E+00  0.00000E+00  9.000E+00
      21    -1     0     0   512   511  0.000000000E+00  0.000000000E+00 -4.149903360E+01  4.149903360E+01  0.000000000E+00  0.00000E+00  9.000E+00
      21     1     1     2   516   514 -6.966438625E-01 -8.206268393E+00 -2.934232169E+00  8.742875502E+00  1.884864366E-07  0.00000E+00  9.000E+00
      21     1     1     2   513   516 -3.302901571E+00  2.199621793E+00 -2.503310247E+01  2.534568432E+01  3.371747881E-07  0.00000E+00  9.000E+00
      21     1     1     2   512   513  3.999545433E+00  6.006646601E+00 -9.227753891E+00  1.171441885E+01  2.384185791E-07  0.00000E+00  9.000E+00
</event>
<event>
      5  10001  3.52971E+09  8.21493E+00 -1.00000E+00  2.06171E-01
      21    -1     0     0   513   514  0.000000000E+00  0.000000000E+00  1.552916072E+00  1.552916072E+00  0.000000000E+00  0.00000E+00  9.000E+00
       1    -1     0     0   514     0  0.000000000E+00  0.000000000E+00 -4.767292228E+02  4.767292228E+02  0.000000000E+00  0.00000E+00  9.000E+00
      21     1     1     2   513   512 -9.382888400E+00  1.436049067E+01 -5.248370902E+01  5.521595783E+01  6.743495762E-07  0.00000E+00  9.000E+00
      21     1     1     2   512   511  1.970614302E+00 -1.798628413E+00 -1.113297078E+02  1.113616730E+02  0.000000000E+00  0.00000E+00  9.000E+00
       1     1     1     2   511     0  7.412274098E+00 -1.256186225E+01 -3.113628899E+02  3.117045080E+02  3.300000131E-01  0.00000E+00  9.000E+00
</event>
<event>
      5  10001  3.52971E+09  1.60250E+01 -1.00000E+00  1.74718E-01
      21    -1     0     0   515   512  0.000000000E+00  0.000000000E+00  4.603703670E+02  4.603703670E+02  0.000000000E+00  0.00000E+00  9.000E+00
      21    -1     0     0   514   516  0.000000000E+00  0.000000000E+00 -6.327036087E-01  6.327036087E-01  0.000000000E+00  0.00000E+00  9.000E+00
      21     1     1     2   515   516  3.462623656E+00  1.252228435E+01  1.349955496E+02  1.356193046E+02  2.697398305E-06  0.00000E+00  9.000E+00
      21     1     1     2   514   513 -8.448636785E+00 -3.330957510E+00  1.992094391E+02  1.994163367E+02  2.697398305E-06  0.00000E+00  9.000E+00
      21     1     1     2   513   512  4.986013129E+00 -9.191326842E+00  1.255326747E+02  1.259674293E+02  1.348699152E-06  0.00000E+00  9.000E+00
</event>
<event>
      5  10001  3.52971E+09  2.51235E+01 -1.00000E+00  1.58588E-01
      21    -1     0     0   511   514  0.000000000E+00  0.000000000E+00  4.241258881E+02  4.241258881E+02  0.000000000E+00  0.00000E+00  9.000E+00
      21    -1     0     0   512   511  0.000000000E+00  0.000000000E+00 -7.251793743E-01  7.251793743E-01  0.000000000E+00  0.00000E+00  9.000E+00
      21     1     1     2   512   517  2.649972438E+00 -5.862128584E+00  5.298050942E+01  5.336966632E+01  0.000000000E+00  0.00000E+00  9.000E+00
      21     1     1     2   517   515  1.854007653E+00  4.337864994E+00  3.599630980E+02  3.599940088E+02  0.000000000E+00  0.00000E+00  9.000E+00
      21     1     1     2   515   514 -4.503980091E+00  1.524263590E+00  1.045710125E+01  1.148739233E+01  7.633118912E-07  0.00000E+00  9.000E+00
</event>
<event>
      5  10001  3.52971E+09  6.39107E+00 -1.00000E+00  2.21290E-01
      21    -1     0     0   513   516  0.000000000E+00  0.000000000E+00  5.846315510E+02  5.846315510E+02  0.000000000E+00  0.00000E+00  9.000E+00
      21    -1     0     0   512   514  0.000000000E+00  0.000000000E+00 -7.497540764E+00  7.497540764E+00  0.000000000E+00  0.00000E+00  9.000E+00
      21     1     1     2   513   514 -1.174389467E+01  7.227179457E+00 -8.728418797E-01  1.381712842E+01  1.288928910E-06  0.00000E+00  9.000E+00
      21     1     1     2   511   516  5.126391014E+00 -3.595425095E+00  4.699747045E+02  4.700164145E+02  9.344061824E-06  0.00000E+00  9.000E+00
      21     1     1     2   512   511  6.617503657E+00 -3.631754362E+00  1.080321476E+02  1.082955489E+02  2.336015456E-06  0.00000E+00  9.000E+00
</event>
<event>
      5  10001  3.52971E+09  7.15004E+00 -1.00000E+00  2.14255E-01
      21    -1     0     0   515   511  0.000000000E+00  0.000000000E+00  6.446709431E+00  6.446709431E+00  0.000000000E+00  0.00000E+00  9.000E+00
      21    -1     0     0   512   517  0.000000000E+00  0.000000000E+00 -1.834449999E+02  1.834449999E+02  0.000000000E+00  0.00000E+00  9.000E+00
      21     1     1     2   515   517  9.993542785E+00  4.833277428E+00 -1.773944662E+02  1.777414643E+02  1.907348633E-06  0.00000E+00  9.000E+00
      21     1     1     2   513   511 -2.003671767E+00  3.298108041E-01  1.567821506E+00  2.565451226E+00  7.884953353E-08  0.00000E+00  9.000E+00
      21     1     1     2   512   513 -7.989871018E+00 -5.163088232E+00 -1.171645724E+00  9.584793825E+00  8.549683266E-07  0.00000E+00  9.000E+00
</event>
<event>
      5  10001  3.52971E+09  4.38700E+00 -1.00000E+00  2.54356E-01
       1    -1     0     0   515     0  0.000000000E+00  0.000000000E+00  1.324139011E+03  1.324139011E+03  0.000000000E+00  0.00000E+00  9.000E+00
      21    -1     0     0   513   515  0.000000000E+00  0.000000000E+00 -7.781492308E-01  7.781492308E-01  0.000000000E+00  0.00000E+00  9.000E+00
      21     1     1     2   513   511 -4.852118010E+00 -8.830946116E-02  2.523870277E+01  2.570103043E+01  4.768371582E-07  0.00000E+00  9.000E+00
       1     1     1     2   514     0  1.259416935E+01 -2.949824548E+00  1.264986588E+03  1.265052762E+03  3.300000131E-01  0.00000E+00  9.000E+00
      21     1     1     2   511   514 -7.742051337E+00  3.038134009E+00  3.313557128E+01  3.416336783E+01  1.430511475E-06  0.00000E+00  9.000E+00
</event>
<event>
      5  10001  3.52971E+09  2.76904E+00 -1.00000E+00  3.07830E-01
      21    -1     0     0   515   511  0.000000000E+00  0.000000000E+00  1.671322520E+02  1.671322520E+02  0.000000000E+00  0.00000E+00  9.000E+00
      21    -1     0     0   516   512  0.000000000E+00  0.000000000E+00 -6.732682548E+01  6.732682548E+01  0.000000000E+00  0.00000E+00  9.000E+00
      21     1     1     2   516   513 -8.381295640E+00 -6.879936140E+00 -5.726567756E+01  5.828325201E+01  6.743495762E-07  0.00000E+00  9.000E+00
      21     1     1     2   513   511  9.872190588E+00  4.546526951E+00 -6.445168280E+00  1.263610891E+01  3.371747881E-07  0.00000E+00  9.000E+00
      21     1     1     2   515   512 -1.490894949E+00  2.333409189E+00  1.635162724E+02  1.635397166E+02  1.907348633E-06  0.00000E+00  9.000E+00
</event>
<event>
      5  10001  3.52971E+09  4.89575E+00 -1.00000E+00  2.44364E-01
      21    -1     0     0   514   512  0.000000000E+00  0.000000000E+00  2.060289098E+01  2.060289098E+01  0.000000000E+00  0.00000E+00  9.000E+00
      -1    -1     0     0     0   517  0.000000000E+00  0.000000000E+00 -6.217286905E+02  6.217286905E+02  0.000000000E+00  0.00000E+00  9.000E+00
      21     1     1     2   514   517 -3.152273672E+00  1.781490760E+01 -1.165484313E+01  2.152076046E+01  4.768371582E-07  0.00000E+00  9.000E+00
      21     1     1     2   516   512 -1.643409218E+00 -1.879963988E+01  9.974550512E+00  2.134523158E+01  5.196212463E-07  0.00000E+00  9.000E+00
      -1     1     1     2     0   516  4.795682890E+00  9.847322764E-01 -5.994455069E+02  5.994655894E+02  3.300000131E-01  0.00000E+00  9.000E+00
</event>
<event>
      5  10001  3.52971E+09  1.82582E+01 -1.00000E+00  1.69698E-01
      21    -1     0     0   511   516  0.000000000E+00  0.000000000E+00  1.802081393E+00  1.802081393E+00  0.000000000E+00  0.00000E+00  9.000E+00
      21    -1     0     0   515   513  0.000000000E+00  0.000000000E+00 -9.064047575E+01  9.064047575E+01  0.000000000E+00  0.00000E+00  9.000E+00
      21     1     1     2   511   513 -7.155807331E+00 -1.556202799E-01 -2.402666066E+01  2.507010608E+01  3.371747881E-07  0.00000E+00  9.000E+00
      21     1     1     2   512   516  2.136813576E+00 -2.022962570E+00 -6.960218357E-01  3.023705709E+00  1.625524776E-07  0.00000E+00  9.000E+00
      21     1     1     2   515   512  5.018993754E+00  2.178582850E+00 -6.411571185E+01  6.434874535E+01  9.536743164E-07  0.00000E+00  9.000E+00
</event>
<event>
      5  10001  3.52971E+09  3.34645E+00 -1.00000E+00  2.83161E-01
      21    -1     0     0   512   515  0.000000000E+00  0.000000000E+00  3.823759248E+00  3.823759248E+00  0.000000000E+00  0.00000E+00  9.000E+00
      21    -1     0     0   514   512  0.000000000E+00  0.000000000E+00 -3.923934813E+01  3.923934813E+01  0.000000000E+00  0.00000E+00  9.000E+00
      -3     1     1     2     0   511 -2.915236819E+00 -7.598352027E+00 -5.417606984E+00  9.789485414E+00  5.000000000E-01  0.00000E+00  9.000E+00
       3     1     1     2   514     0  6.032492446E+00  7.778865450E+00 -2.768650968E+01  2.938868032E+01  5.000000000E-01  0.00000E+00  9.000E+00
      21     1     1     2   511   515 -3.117255627E+00 -1.805134235E-01 -2.311472216E+00  3.884941640E+00  0.000000000E+00  0.00000E+00  9.000E+00
</event>
<event>
      5  10001  3.52971E+09  9.82546E+00 -1.00000E+00  1.96641E-01
      21    -1     0     0   513   514  0.000000000E+00  0.000000000E+00  2.317909038E+02  2.317909038E+02  0.000000000E+00  0.00000E+00  9.000E+00
      21    -1     0     0   511   515  0.000000000E+00  0.000000000E+00 -4.889025334E+00  4.889025334E+00  0.000000000E+00  0.00000E+00  9.000E+00
      21     1     1     2   513   515 -8.815703996E+00 -1.410645306E+01  2.094574532E+02  2.101169516E+02  0.000000000E+00  0.00000E+00  9.000E+00
      21     1     1     2   511   512  1.771874863E-02  1.034695191E+01  7.624056009E+00  1.285246894E+01  2.064765462E-07  0.00000E+00  9.000E+00
      21     1     1     2   512   514  8.797985248E+00  3.759501148E+00  9.820369265E+00  1.371050859E+01  3.153981341E-07  0.00000E+00  9.000E+00
</event>
<event>
      5  10001  3.52971E+09  3.00325E+00 -1.00000E+00  2.96715E-01
       1    -1     0     0   511     0  0.000000000E+00  0.000000000E+00  9.418397936E+02  9.418397936E+02  0.000000000E+00  0.00000E+00  9.000E+00
       1    -1     0     0   514     0  0.000000000E+00  0.000000000E+00 -1.234337476E+01  1.234337476E+01  0.000000000E+00  0.00000E+00  9.000E+00
      21     1     1     2   511   512  8.842889768E+00  3.179923815E+00  4.068481465E+01  4.175599068E+01  4.768371582E-07  0.00000E+00  9.000E+00
       1     1     1     2   512     0 -1.177610623E+01 -2.535221985E+00 -8.730065740E+00  1.488042259E+01  3.300000131E-01  0.00000E+00  9.000E+00
       1     1     1     2   514     0  2.933216467E+00 -6.447018304E-01  8.975416699E+02  8.975467550E+02  3.300000131E-01  0.00000E+00  9.000E+00
</event>
<event>
      5  10001  3.52971E+09  5.74491E+01 -1.00000E+00  1.35717E-01
       1    -1     0     0   511     0  0.000000000E+00  0.000000000E+00  1.494697611E+03  1.494697611E+03  0.000000000E+00  0.00000E+00  9.000E+00
      21    -1     0     0   512   511  0.000000000E+00  0.000000000E+00 -1.518304339E+00  1.518304339E+00  0.000000000E+00  0.00000E+00  9.000E+00
      21     1     1     2   515   513  6.179895547E+00 -1.205191010E+01  2.612866303E+02  2.616374263E+02  5.394796609E-06  0.00000E+00  9.000E+00
       1     1     1     2   513     0 -1.379208551E+01  1.543023087E+01  1.219332122E+03  1.219507789E+03  3.300000131E-01  0.00000E+00  9.000E+00
      21     1     1     2   512   515  7.612189958E+00 -3.378320767E+00  1.256055396E+01  1.507070015E+01  2.119110684E-06  0.00000E+00  9.000E+00
</event>
<event>
      5  10001  3.52971E+09  2.89120E+00 -1.00000E+00  3.01812E-01
      21    -1     0     0   511   513  0.000000000E+00  0.000000000E+00  2.765900230E+01  2.765900230E+01  0.000000000E+00  0.00000E+00  9.000E+00
      21    -1     0     0   512   515  0.000000000E+00  0.000000000E+00 -8.691210723E+01  8.691210723E+01  0.000000000E+00  0.00000E+00  9.000E+00
      21     1     1     2   514   515 -4.809512774E-01 -1.051588298E+01 -8.304464624E+01  8.370918933E+01  9.536743164E-07  0.00000E+00  9.000E+00
      21     1     1     2   512   513 -2.328078260E+00  1.120028711E+01  6.155833939E+00  1.299079179E+01  3.674277069E-07  0.00000E+00  9.000E+00
      21     1     1     2   511   514  2.809029537E+00 -6.844041313E-01  1.763570737E+01  1.787112841E+01  3.371747881E-07  0.00000E+00  9.000E+00
</event>
<event>
      5  10001  3.52971E+09  1.48508E+01 -1.00000E+00  1.77790E-01
       1    -1     0     0   514     0  0.000000000E+00  0.000000000E+00  1.696950034E+02  1.696950034E+02  0.000000000E+00  0.00000E+00  9.000E+00
      21    -1     0     0   516   514  0.000000000E+00  0.000000000E+00 -6.676746160E+01  6.676746160E+01  0.000000000E+00  0.00000E+00  9.000E+00
       1     1     1     2   516     0  3.046088904E+00  1.233966309E+01 -5.483157037E+01  5.628637448E+01  3.300000131E-01  0.00000E+00  9.000E+00
       1     1     1     2   511     0 -1.083747027E+01 -2.581301611E+01  1.617094355E+02  1.641152431E+02  3.300000131E-01  0.00000E+00  9.000E+00
      -1     1     1     2     0   511  7.791381362E+00  1.347335303E+01 -3.950323404E+00  1.606084743E+01  3.300000131E-01  0.00000E+00  9.000E+00
</event>
<event>
      5  10001  3.52971E+09  5.73103E+00 -1.00000E+00  2.28604E-01
      21    -1     0     0   512   513  0.000000000E+00  0.000000000E+00  4.316173731E+01  4.316173731E+01  0.000000000E+00  0.00000E+00  9.000E+00
      -2    -1     0     0     0   515  0.000000000E+00  0.000000000E+00 -7.837768850E+00  7.837768850E+00  0.000000000E+00  0.00000E+00  9.000E+00
      -2     1     1     2     0   514 -9.423167074E+00  9.237019431E+00  3.752947406E+00  1.372268632E+01  3.300000131E-01  0.00000E+00  9.000E+00
      21     1     1     2   514   513  1.204852880E+01 -4.143307421E+00  2.730967441E+01  3.013556634E+01  4.768371582E-07  0.00000E+00  9.000E+00
      21     1     1     2   512   515 -2.625361723E+00 -5.093712009E+00  4.261346642E+00  7.141253490E+00  0.000000000E+00  0.00000E+00  9.000E+00
</event>
<event>
      5  10001  3.52971E+09  8.88877E+00 -1.00000E+00  2.01858E-01
      21    -1     0     0   511   515  0.000000000E+00  0.000000000E+00  1.625977364E+01  1.625977364E+01  0.000000000E+00  0.00000E+00  9.000E+00
      21    -1     0     0   513   511  0.000000000E+00  0.000000000E+00 -6.104141415E+01  6.104141415E+01  0.000000000E+00  0.00000E+00  9.000E+00
      -5     1     1     2     0   512  1.388333625E+01 -5.859663895E+00  6.415241966E+00  1.706686901E+01  4.800000191E+00  0.00000E+00  9.000E+00
      21     1     1     2   512   515 -1.334956254E+01 -2.879409167E+00 -7.849256377E+00  1.575159176E+01  2.920019320E-07  0.00000E+00  9.000E+00
       5     1     1     2   513     0 -5.337737117E-01  8.739073062E+00 -4.334762610E+01  4.448272701E+01  4.800000191E+00  0.00000E+00  9.000E+00
</event>
<event>
      5  10001  3.52971E+09  3.15729E+00 -1.00000E+00  2.90282E-01
      21    -1     0     0   513   515  0.000000000E+00  0.000000000E+00  5.769550292E+00  5.769550292E+00  0.000000000E+00  0.00000E+00  9.000E+00
      -4    -1     0     0     0   514  0.000000000E+00  0.000000000E+00 -4.918742756E+01  4.918742756E+01  0.000000000E+00  0.00000E+00  9.000E+00
      -4     1     1     2     0   515  8.607989218E+00 -6.491330734E+00 -4.170189999E+01  4.309911039E+01  1.500000000E+00  0.00000E+00  9.000E+00
      21     1     1     2   511   514 -7.058089261E+00  5.785451185E+00 -3.126090271E+00  9.646787539E+00  0.000000000E+00  0.00000E+00  9.000E+00
      21     1     1     2   513   511 -1.549899957E+00  7.058795495E-01  1.410112992E+00  2.211079932E+00  9.305772183E-08  0.00000E+00  9.000E+00
</event>
<event>
      5  10001  3.52971E+09  3.39415E+00 -1.00000E+00  2.81485E-01
      21    -1     0     0   512   511  0.000000000E+00  0.000000000E+00  1.095014941E+01  1.095014941E+01  0.000000000E+00  0.00000E+00  9.000E+00
       2    -1     0     0   513     0  0.000000000E+00  0.000000000E+00 -1.056845721E+02  1.056845721E+02  0.000000000E+00  0.00000E+00  9.000E+00
      21     1     1     2   513   511  7.493915346E+00  1.169587513E+01  5.643264731E+00  1.499328847E+01  2.598106231E-07  0.00000E+00  9.000E+00
       2     1     1     2   514     0 -4.577827700E+00 -1.212371713E+01 -8.515124694E+01  8.613236777E+01  3.300000131E-01  0.00000E+00  9.000E+00
      21     1     1     2   512   514 -2.916087646E+00  4.278420022E-01 -1.522644045E+01  1.550906524E+01  1.685873940E-07  0.00000E+00  9.000E+00
</event>
<event>
      5  10001  3.52971E+09  6.57856E+00 -1.00000E+00  2.19431E-01
      21    -1     0     0   515   511  0.000000000E+00  0.000000000E+00  2.238403453E+00  2.238403453E+00  0.000000000E+00  0.00000E+00  9.000E+00
      -3    -1     0     0     0   515  0.000000000E+00  0.000000000E+00 -1.146823052E+02  1.146823052E+02  0.000000000E+00  0.00000E+00  9.000E+00
      -3     1     1     2     0   512 -1.013248371E+01 -3.847889386E+00 -5.031604924E+01  5.147259747E+01  5.000000000E-01  0.00000E+00  9.000E+00
      21     1     1     2   512   513  1.298980403E+01 -2.075216620E+00 -4.940351096E+01  5.112483181E+01  9.536743164E-07  0.00000E+00  9.000E+00
      21     1     1     2   513   511 -2.857320315E+00  5.923106006E+00 -1.272434153E+01  1.432327936E+01  0.000000000E+00  0.00000E+00  9.000E+00
</event>
<event>
      5  10001  3.52971E+09  2.75711E+01 -1.00000E+00  1.55628E-01
      21    -1     0     0   514   513  0.000000000E+00  0.000000000E+00  5.561416458E+02  5.561416458E+02  0.000000000E+00  0.00000E+00  9.000E+00
      21    -1     0     0   511   514  0.000000000E+00  0.000000000E+00 -1.522128428E+00  1.522128428E+00  0.000000000E+00  0.00000E+00  9.000E+00
      21     1     1     2   516   513 -3.706840763E+00 -1.122360366E+01  2.905908756E+02  2.908311657E+02  7.629394531E-06  0.00000E+00  9.000E+00
      21     1     1     2   511   512  3.148588787E-01  4.685531762E+00  2.733602717E+00  5.433776571E+00  3.449868233E-07  0.00000E+00  9.000E+00
      21     1     1     2   512   516  3.391981885E+00  6.538071894E+00  2.612950390E+02  2.613988320E+02  5.394796609E-06  0.00000E+00  9.000E+00
</event>
<event>
      5  10001  3.52971E+09  6.17550E+00 -1.00000E+00  2.23539E-01
      21    -1     0     0   512   511  0.000000000E+00  0.000000000E+00  1.798463994E+01  1.798463994E+01  0.000000000E+00  0.00000E+00  9.000E+00
       1    -1     0     0   513     0  0.000000000E+00  0.000000000E+00 -1.195480860E+02  1.195480860E+02  0.000000000E+00  0.00000E+00  9.000E+00
      21     1     1     2   513   511  6.199783826E-01  1.061855305E+01  1.591944755E+01  1.914593566E+01  8.920806376E-07  0.00000E+00  9.000E+00
      21     1     1     2   512   514  3.785735809E+00 -6.527979055E+00 -8.620413082E+01  8.653379962E+01  0.000000000E+00  0.00000E+00  9.000E+00
       1     1     1     2   514     0 -4.405714191E+00 -4.090573996E+00 -3.127876280E+01  3.185299068E+01  3.300000131E-01  0.00000E+00  9.000E+00
</event>
<event>
      5  10001  3.52971E+09  5.97762E+00 -1.00000E+00  2.25718E-01
      21    -1     0     0   515   511  0.000000000E+00  0.000000000E+00  1.911214294E+01  1.911214294E+01  0.000000000E+00  0.00000E+00  9.000E+00
      21    -1     0     0   516   515  0.000000000E+00  0.000000000E+00 -6.916152460E+01  6.916152460E+01  0.000000000E+00  0.00000E+00  9.000E+00
      21     1     1     2   516   513 -1.035114614E+01 -2.511208436E+00 -6.647325816E+01  6.732121839E+01  1.348699152E-06  0.00000E+00  9.000E+00
      21     1     1     2   513   512  3.171645201E+00  1.430672684E-01  1.150039697E+01  1.193058809E+01  0.000000000E+00  0.00000E+00  9.000E+00
      21     1     1     2   512   511  7.179500940E+00  2.368141168E+00  4.923479530E+00  9.021861062E+00  2.980232239E-07  0.00000E+00  9.000E+00
</event>
<event>
      5  10001  3.52971E+09  1.24352E+01 -1.00000E+00  1.85412E-01
       1    -1     0     0   513     0  0.000000000E+00  0.000000000E+00  2.400364712E+01  2.400364712E+01  0.000000000E+00  0.00000E+00  9.000E+00
      21    -1     0     0   512   514  0.000000000E+00  0.000000000E+00 -5.550310498E+00  5.550310498E+00  0.000000000E+00  0.00000E+00  9.000E+00
      21     1     1     2   513   514  3.446894755E+00  7.004856019E+00  4.754689570E+00  9.140906093E+00  1.332800375E-07  0.00000E+00  9.000E+00
      21     1     1     2   512   515 -2.674846768E+00 -4.807828044E+00 -9.444266829E-01  5.582289628E+00  6.746787681E-08  0.00000E+00  9.000E+00
       1     1     1     2   515     0 -7.720479876E-01 -2.197027974E+00  1.464307373E+01  1.483076189E+01  3.300000131E-01  0.00000E+00  9.000E+00
</event>
<event>
      5  10001  3.52971E+09  8.42650E+00 -1.00000E+00  2.04759E-01
       1    -1     0     0   512     0  0.000000000E+00  0.000000000E+00  1.006311431E+01  1.006311431E+01  0.000000000E+00  0.00000E+00  9.000E+00
      21    -1     0     0   511   515  0.000000000E+00  0.000000000E+00 -4.704185641E+01  4.704185641E+01  0.000000000E+00  0.00000E+00  9.000E+00
      21     1     1     2   513   515 -6.692227509E-01  3.228358201E+00 -2.832938969E+01  2.852059740E+01  3.371747881E-07  0.00000E+00  9.000E+00
       1     1     1     2   511     0 -2.948906992E+00 -1.095970133E+01  5.063169270E+00  1.243204282E+01  3.300000131E-01  0.00000E+00  9.000E+00
      21     1     1     2   512   513  3.618129743E+00  7.731343131E+00 -1.371252168E+01  1.615233049E+01  2.384185791E-07  0.00000E+00  9.000E+00
</event>
<event>
      5  10001  3.52971E+09  4.44683E+00 -1.00000E+00  2.53076E-01
      21    -1     0     0   514   515  0.000000000E+00  0.000000000E+00  2.717792074E+00  2.717792074E+00  0.000000000E+00  0.00000E+00  9.000E+00
      21    -1     0     0   516   513  0.000000000E+00  0.000000000E+00 -4.912110674E+02  4.912110674E+02  0.000000000E+00  0.00000E+00  9.000E+00
      21     1     1     2   514   513 -7.880161419E+00 -4.349789384E+00 -2.606265971E+02  2.607819793E+02  3.814697266E-06  0.00000E+00  9.000E+00
      21     1     1     2   516   511  1.062154159E+01  7.851098225E+00 -2.282974658E+02  2.286792290E+02  4.672030912E-06  0.00000E+00  9.000E+00
      21     1     1     2   511   515 -2.741380173E+00 -3.501308841E+00  4.307875887E-01  4.467651150E+00  4.639744007E-07  0.00000E+00  9.000E+00
</event>
<event>
      5  10001  3.52971E+09  2.42691E+01 -1.00000E+00  1.59719E-01
       1    -1     0     0   513     0  0.000000000E+00  0.000000000E+00  1.867120672E+02  1.867120672E+02  0.000000000E+00  0.00000E+00  9.000E+00
      21    -1     0     0   511   512  0.000000000E+00  0.000000000E+00 -1.666137728E+01  1.666137728E+01  0.000000000E+00  0.00000E+00  9.000E+00
      21     1     1     2   513   514  2.119972041E+01  1.024821963E+01 -5.687371800E+00  2.422396229E+01  1.462440985E-06  0.00000E+00  9.000E+00
       1     1     1     2   511     0 -8.430027218E+00 -1.036320294E+01  1.481241638E+02  1.487257144E+02  3.300000131E-01  0.00000E+00  9.000E+00
      21     1     1     2   514   512 -1.276969319E+01  1.149833114E-01  2.761389791E+01  3.042376773E+01  5.840038640E-07  0.00000E+00  9.000E+00
</event>
<event>
      5  10001  3.52971E+09  2.76305E+01 -1.00000E+00  1.55561E-01
       1    -1     0     0   511     0  0.000000000E+00  0.000000000E+00  1.184253438E+03  1.184253438E+03  0.000000000E+00  0.00000E+00  9.000E+00
      21    -1     0     0   515   512  0.000000000E+00  0.000000000E+00 -2.884437527E-01  2.884437527E-01  0.000000000E+00  0.00000E+00  9.000E+00
      21     1     1     2   511   512  4.645923623E+00  7.403378457E+00  3.232761016E+02  3.233942369E+02  6.607249480E-06  0.00000E+00  9.000E+00
      21     1     1     2   515   513 -8.162726816E+00 -1.855782263E-01  7.833221386E+02  7.833646899E+02  1.525878906E-05  0.00000E+00  9.000E+00
       1     1     1     2   513     0  3.516803193E+00 -7.217800230E+00  7.736675419E+01  7.778295506E+01  3.300000131E-01  0.00000E+00  9.000E+00
</event>
<event>
      5  10001  3.52971E+09  1.75967E+01 -1.00000E+00  1.71088E-01
      21    -1     0     0   514   512  0.000000000E+00  0.000000000E+00  5.051938411E+01  5.051938411E+01  0.000000000E+00  0.00000E+00  9.000E+00
      21    -1     0     0   516   514  0.000000000E+00  0.000000000E+00 -4.639238281E+00  4.639238281E+00  0.000000000E+00  0.00000E+00  9.000E+00
      21     1     1     2   516   517  2.574124698E+00  5.039224911E+00  2.576938852E+00  6.217758399E+00  1.332800375E-07  0.00000E+00  9.000E+00
      21     1     1     2   511   512 -1.775365373E+00 -1.384698312E+01  2.641996508E+01  2.988152303E+01  3.371747881E-07  0.00000E+00  9.000E+00
      21     1     1     2   517   511 -7.987593254E-01  8.807758204E+00  1.688324189E+01  1.905934096E+01  2.384185791E-07  0.00000E+00  9.000E+00
</event>
<event>
      5  10001  3.52971E+09  1.16118E+01 -1.00000E+00  1.88538E-01
       1    -1     0     0   514     0  0.000000000E+00  0.000000000E+00  1.335539719E+03  1.335539719E+03  0.000000000E+00  0.00000E+00  9.000E+00
      21    -1     0     0   512   511  0.000000000E+00  0.000000000E+00 -5.208976928E+01  5.208976928E+01  0.000000000E+00  0.00000E+00  9.000E+00
      21     1     1     2   514   511 -9.085211820E+00  1.781421448E+01  1.589675513E+02  1.602203785E+02  2.697398305E-06  0.00000E+00  9.000E+00
       1     1     1     2   513     0  1.821151204E+01 -1.063475687E+01  1.175194919E+03  1.175384177E+03  3.300000131E-01  0.00000E+00  9.000E+00
      21     1     1     2   512   513 -9.126300215E+00 -7.179457610E+00 -5.071252016E+01  5.202493314E+01  4.046097457E-06  0.00000E+00  9.000E+00
</event>
<event>
      5  10001  3.52971E+09  6.59901E+00 -1.00000E+00  2.19234E-01
      21    -1     0     0   515   513  0.000000000E+00  0.000000000E+00  1.264422784E+02  1.264422784E+02  0.000000000E+00  0.00000E+00  9.000E+00
      21    -1     0     0   513   514  0.000000000E+00  0.000000000E+00 -2.678697383E+00  2.678697383E+00  0.000000000E+00  0.00000E+00  9.000E+00
      -1     1     1     2     0   511 -5.503662357E+00 -8.229152817E+00  1.027063480E+01  1.426899066E+01  3.300000131E-01  0.00000E+00  9.000E+00
       1     1     1     2   515     0  9.908378574E+00  6.377616636E+00  9.589882099E+01  9.662061233E+01  3.300000131E-01  0.00000E+00  9.000E+00
      21     1     1     2   511   514 -4.404716217E+00  1.851536181E+00  1.759412528E+01  1.823137283E+01  2.384185791E-07  0.00000E+00  9.000E+00
</event>
<event>
      5  10001  3.52971E+09  2.00764E+01 -1.00000E+00  1.66229E-01
      21    -1     0     0   512   516  0.000000000E+00  0.000000000E+00  1.495171191E+01  1.495171191E+01  0.000000000E+00  0.00000E+00  9.000E+00
      21    -1     0     0   513   512  0.000000000E+00  0.000000000E+00 -7.664644592E+01  7.664644592E+01  0.000000000E+00  0.00000E+00  9.000E+00
      21     1     1     2   514   516  1.981924052E+01  8.613980113E+00 -5.931423742E+00  2.240947870E+01  1.685873940E-07  0.00000E+00  9.000E+00
      21     1     1     2   513   515 -2.913761246E+01 -1.102655937E+01 -3.973445319E+01  5.049170468E+01  8.259061849E-07  0.00000E+00  9.000E+00
      21     1     1     2   515   514  9.318371941E+00  2.412579253E+00 -1.602885707E+01  1.869697444E+01  0.000000000E+00  0.00000E+00  9.000E+00
</event>
<event>
      5  10001  3.52971E+09  1.08785E+01 -1.00000E+00  1.91618E-01
      21    -1     0     0   511   513  0.000000000E+00  0.000000000E+00  7.275702787E+01  7.275702787E+01  0.000000000E+00  0.00000E+00  9.000E+00
      21    -1     0     0   517   511  0.000000000E+00  0.000000000E+00 -1.018791370E+02  1.018791370E+02  0.000000000E+00  0.00000E+00  9.000E+00
      21     1     1     2   517   514  6.544265350E+00  8.652954275E+00 -1.005777561E+02  1.011611885E+02  1.907348633E-06  0.00000E+00  9.000E+00
      21     1     1     2   514   512 -4.593196852E+00  1.241259720E+00  4.343463318E+01  4.369445666E+01  8.259061849E-07  0.00000E+00  9.000E+00
      21     1     1     2   512   513 -1.951068498E+00 -9.894213996E+00  2.802101383E+01  2.978051972E+01  1.011524364E-06  0.00000E+00  9.000E+00
</event>
<event>
      5  10001  3.52971E+09  4.91242E+00 -1.00000E+00  2.44067E-01
      21    -1     0     0   511   514  0.000000000E+00  0.000000000E+00  4.210032490E+01  4.210032490E+01  0.000000000E+00  0.00000E+00  9.000E+00
      21    -1     0     0   513   515  0.000000000E+00  0.000000000E+00 -4.548129938E+01  4.548129938E+01  0.000000000E+00  0.00000E+00  9.000E+00
      21     1     1     2   513   516 -1.224091633E+01  2.756495717E+00 -4.328249160E+01  4.506453573E+01  9.536743164E-07  0.00000E+00  9.000E+00
      21     1     1     2   516   514  8.099284677E+00 -1.147546900E-01  1.417814466E+01  1.632885075E+01  4.460403188E-07  0.00000E+00  9.000E+00
      21     1     1     2   511   515  4.141631657E+00 -2.641741027E+00  2.572337247E+01  2.618823781E+01  4.768371582E-07  0.00000E+00  9.000E+00
</event>
<event>
      5  10001  3.52971E+09  1.20564E+01 -1.00000E+00  1.86810E-01
      21    -1     0     0   512   515  0.000000000E+00  0.000000000E+00  6.293530877E+00  6.293530877E+00  0.000000000E+00  0.00000E+00  9.000E+00
      21    -1     0     0   513   517  0.000000000E+00  0.000000000E+00 -6.853935495E+01  6.853935495E+01  0.000000000E+00  0.00000E+00  9.000E+00
      21     1     1     2   512   517 -1.213768067E+01  5.988306187E+00 -7.831248350E+00  1.563686522E+01  8.429369702E-08  0.00000E+00  9.000E+00
      21     1     1     2   513   514  7.696729867E+00 -5.923413398E+00 -5.385004526E+01  5.471886194E+01  9.536743164E-07  0.00000E+00  9.000E+00
      21     1     1     2   514   515  4.440950806E+00 -6.489278868E-02 -5.645304592E-01  4.477158672E+00  1.074538015E-07  0.00000E+00  9.000E+00
</event>
<event>
      5  10001  3.52971E+09  4.82794E+00 -1.00000E+00  2.45588E-01
      21    -1     0     0   514   513  0.000000000E+00  0.000000000E+00  3.353757574E+01  3.353757574E+01  0.000000000E+00  0.00000E+00  9.000E+00
      -3    -1     0     0     0   511  0.000000000E+00  0.000000000E+00 -3.306244239E+01  3.306244239E+01  0.000000000E+00  0.00000E+00  9.000E+00
      -3     1     1     2     0   512  6.959132990E+00  9.001387656E+00 -2.684082592E+01  2.915706514E+01  5.000000000E-01  0.00000E+00  9.000E+00
      21     1     1     2   514   511 -3.534658049E+00 -9.492528475E+00  3.086628266E+01  3.248583245E+01  5.840038640E-07  0.00000E+00  9.000E+00
      21     1     1     2   512   513 -3.424474942E+00  4.911408196E-01 -3.550323386E+00  4.957120543E+00  1.032382731E-07  0.00000E+00  9.000E+00
</event>
<event>
      5  10001  3.52971E+09  3.14707E+00 -1.00000E+00  2.90690E-01
       3    -1     0     0   512     0  0.000000000E+00  0.000000000E+00  2.734257084E+01  2.734257084E+01  0.000000000E+00  0.00000E+00  9.000E+00
      21    -1     0     0   515   511  0.000000000E+00  0.000000000E+00 -2.722033082E+01  2.722033082E+01  0.000000000E+00  0.00000E+00  9.000E+00
      21     1     1     2   512   511  2.774341227E-01 -1.077874189E+01 -2.374828768E+01  2.608139977E+01  3.371747881E-07  0.00000E+00  9.000E+00
       3     1     1     2   514     0  1.165238529E+00  9.463222131E+00  2.460731141E+01  2.639469887E+01  5.000000000E-01  0.00000E+00  9.000E+00
      21     1     1     2   515   514 -1.442672651E+00  1.315519757E+00 -7.367837043E-01  2.086803018E+00  2.107342426E-08  0.00000E+00  9.000E+00
</event>
<event>
      5  10001  3.52971E+09  8.63909E+00 -1.00000E+00  2.03395E-01
      21    -1     0     0   514   511  0.000000000E+00  0.000000000E+00  1.111005748E+02  1.111005748E+02  0.000000000E+00  0.00000E+00  9.000E+00
      21    -1     0     0   513   514  0.000000000E+00  0.000000000E+00 -4.013202553E+01  4.013202553E+01  0.000000000E+00  0.00000E+00  9.000E+00
      -1     1     1     2     0   515 -1.941456823E+01  9.209924530E+00  5.874352441E+01  6.255124882E+01  3.300000131E-01  0.00000E+00  9.000E+00
       1     1     1     2   513     0  1.099680132E+01 -1.115224652E+01 -3.622496810E+01  3.946719468E+01  3.300000131E-01  0.00000E+00  9.000E+00
      21     1     1     2   515   511  8.417766915E+00  1.942321988E+00  4.844999294E+01  4.921415681E+01  9.536743164E-07  0.00000E+00  9.000E+00
</event>
<event>
      5  10001  3.52971E+09  9.60322E+00 -1.00000E+00  1.97807E-01
      21    -1     0     0   512   511  0.000000000E+00  0.000000000E+00  3.453169336E+01  3.453169336E+01  0.000000000E+00  0.00000E+00  9.000E+00
       1    -1     0     0   514     0  0.000000000E+00  0.000000000E+00 -7.599457376E+01  7.599457376E+01  0.000000000E+00  0.00000E+00  9.000E+00
      21     1     1     2   513   511 -1.593674576E+01  8.331634882E+00  2.825381239E+01  3.349140069E+01  6.743495762E-07  0.00000E+00  9.000E+00
       1     1     1     2   512     0  2.202437805E+01 -9.046396242E-01 -5.688679517E+01  6.100908102E+01  3.300000131E-01  0.00000E+00  9.000E+00
      21     1     1     2   514   513 -6.087632292E+00 -7.426995258E+00 -1.282989762E+01  1.602578542E+01  1.685873940E-07  0.00000E+00  9.000E+00
</event>
<event>
      5  10001  3.52971E+09  6.77465E+00 -1.00000E+00  2.17576E-01
      21    -1     0     0   515   514  0.000000000E+00  0.000000000E+00  4.203552645E+01  4.203552645E+01  0.000000000E+00  0.00000E+00  9.000E+00
      21    -1     0     0   511   513  0.000000000E+00  0.000000000E+00 -3.044282528E+00  3.044282528E+00  0.000000000E+00  0.00000E+00  9.000E+00
      21     1     1     2   515   513  5.214794337E+00 -6.336891372E+00  1.752044058E+01  1.934725072E+01  0.000000000E+00  0.00000E+00  9.000E+00
      -5     1     1     2     0   514 -7.422087860E-01  5.834441650E+00  1.202507348E+01  1.422089932E+01  4.800000191E+00  0.00000E+00  9.000E+00
       5     1     1     2   511     0 -4.472585551E+00  5.024497212E-01  9.445729866E+00  1.151165895E+01  4.800000191E+00  0.00000E+00  9.000E+00
</event>
<event>
      5  10001  3.52971E+09  1.72527E+01 -1.00000E+00  1.71841E-01
      21    -1     0     0   512   513  0.000000000E+00  0.000000000E+00  2.190378576E+01  2.190378576E+01  0.000000000E+00  0.00000E+00  9.000E+00
      21    -1     0     0   511   516  0.000000000E+00  0.000000000E+00 -6.858169753E+00  6.858169753E+00  0.000000000E+00  0.00000E+00  9.000E+00
      21     1     1     2   512   516 -5.824007917E+00 -2.144993341E+00  2.929726345E+00  6.863188843E+00  1.884864366E-07  0.00000E+00  9.000E+00
      21     1     1     2   511   514  3.656774070E+00 -3.906464688E+00  1.417325550E+01  1.514970740E+01  0.000000000E+00  0.00000E+00  9.000E+00
      21     1     1     2   514   513  2.167233847E+00  6.051458029E+00 -2.057365835E+00  6.749059268E+00  1.332800375E-07  0.00000E+00  9.000E+00
</event>
<event>
      5  10001  3.52971E+09  2.81153E+00 -1.00000E+00  3.05678E-01
      21    -1     0     0   511   513  0.000000000E+00  0.000000000E+00  5.912859840E+01  5.912859840E+01  0.000000000E+00  0.00000E+00  9.000E+00
      -2    -1     0     0     0   512  0.000000000E+00  0.000000000E+00 -7.942044588E+00  7.942044588E+00  0.000000000E+00  0.00000E+00  9.000E+00
      -3     1     1     2     0   512  6.486449128E+00  7.727678395E+00  3.661482736E+00  1.074464943E+01  5.000000000E-01  0.00000E+00  9.000E+00
      -2     1     1     2     0   513 -8.673717023E+00 -9.491948059E+00  5.150200413E+00  1.385510409E+01  3.300000131E-01  0.00000E+00  9.000E+00
       3     1     1     2   511     0  2.187267896E+00  1.764269664E+00  4.237487067E+01  4.247088947E+01  5.000000000E-01  0.00000E+00  9.000E+00
</event>
<event>
      5  10001  3.52971E+09  7.55967E+00 -1.00000E+00  2.10933E-01
      21    -1     0     0   514   513  0.000000000E+00  0.000000000E+00  3.838227437E+02  3.838227437E+02  0.000000000E+00  0.00000E+00  9.000E+00
      21    -1     0     0   515   514  0.000000000E+00  0.000000000E+00 -8.609470143E-01  8.609470143E-01  0.000000000E+00  0.00000E+00  9.000E+00
      21     1     1     2   516   513  1.075564896E+01  1.788226703E+00  2.982503101E+02  2.984495422E+02  3.814697266E-06  0.00000E+00  9.000E+00
       5     1     1     2   515     0 -3.001298800E+00  3.739473301E-01  1.815074452E+01  1.901675997E+01  4.800000191E+00  0.00000E+00  9.000E+00
      -5     1     1     2     0   516 -7.754350160E+00 -2.162174033E+00  6.656074202E+01  6.721738855E+01  4.800000191E+00  0.00000E+00  9.000E+00
</event>
<event>
      5  10001  3.52971E+09  1.55895E+01 -1.00000E+00  1.75817E-01
      21    -1     0     0   511   515  0.000000000E+00  0.000000000E+00  1.800134444E+02  1.800134444E+02  0.000000000E+00  0.00000E+00  9.000E+00
      21    -1     0     0   513   512  0.000000000E+00  0.000000000E+00 -9.151132253E-01  9.151132253E-01  0.000000000E+00  0.00000E+00  9.000E+00
      21     1     1     2   511   512 -5.046329233E+00 -1.711236275E+00  2.185850434E+01  2.249862174E+01  3.371747881E-07  0.00000E+00  9.000E+00
      21     1     1     2   513   514  2.918038448E+00  5.376508705E+00  1.493374933E+02  1.494627335E+02  0.000000000E+00  0.00000E+00  9.000E+00
      21     1     1     2   514   515  2.128290784E+00 -3.665272430E+00  7.902333536E+00  8.967202405E+00  1.192092896E-07  0.00000E+00  9.000E+00
</event>
<event>
      5  10001  3.52971E+09  1.87935E+01 -1.00000E+00  1.68627E-01
      21    -1     0     0   516   514  0.000000000E+00  0.000000000E+00  5.434981886E+01  5.434981886E+01  0.000000000E+00  0.00000E+00  9.000E+00
      21    -1     0     0   515   516  0.000000000E+00  0.000000000E+00 -5.850241997E+00  5.850241997E+00  0.000000000E+00  0.00000E+00  9.000E+00
      21     1     1     2   513   514 -1.031126237E+00  6.977864082E+00  3.342558406E+01  3.416172534E+01  6.743495762E-07  0.00000E+00  9.000E+00
      21     1     1     2   511   513  1.030788198E+01 -2.087202512E+00  5.647685354E+00  1.193755398E+01  2.064765462E-07  0.00000E+00  9.000E+00
      21     1     1     2   515   511 -9.276755743E+00 -4.890661570E+00  9.426307444E+00  1.410078153E+01  2.384185791E-07  0.00000E+00  9.000E+00
</event>
<event>
      5  10001  3.52971E+09  3.42518E+00 -1.00000E+00  2.80418E-01
       1    -1     0     0   513     0  0.000000000E+00  0.000000000E+00  1.292331330E+02  1.292331330E+02  0.000000000E+00  0.00000E+00  9.000E+00
      21    -1     0     0   511   514  0.000000000E+00  0.000000000E+00 -6.066056584E+01  6.066056584E+01  0.000000000E+00  0.00000E+00  9.000E+00
      21     1     1     2   511   512  2.474098414E+00 -9.079848818E+00 -1.355921678E+01  1.650506520E+01  8.920806376E-07  0.00000E+00  9.000E+00
       1     1     1     2   512     0 -2.025093656E+00  1.247545716E+01  1.273825406E+02  1.280084316E+02  3.300000131E-01  0.00000E+00  9.000E+00
      21     1     1     2   513   514 -4.490047584E-01 -3.395608342E+00 -4.525075660E+01  4.538020200E+01  6.743495762E-07  0.00000E+00  9.000E+00
</event>
<event>
      5  10001  3.52971E+09  7.78667E+00 -1.00000E+00  2.09212E-01
      21    -1     0     0   515   511  0.000000000E+00  0.000000000E+00  5.025613738E+02  5.025613738E+02  0.000000000E+00  0.00000E+00  9.000E+00
      21    -1     0     0   516   515  0.000000000E+00  0.000000000E+00 -7.593643224E+00  7.593643224E+00  0.000000000E+00  0.00000E+00  9.000E+00
      21     1     1     2   514   511 -4.278981200E+00  1.018347546E+01  4.892455391E+02  4.893702181E+02  7.629394531E-06  0.00000E+00  9.000E+00
      21     1     1     2   516   512 -1.129147864E+00 -4.707945208E+00 -5.404454466E+00  7.255883892E+00  9.059121700E-07  0.00000E+00  9.000E+00
      21     1     1     2   512   514  5.408129064E+00 -5.475530247E+00  1.112664593E+01  1.352891500E+01  3.769728732E-07  0.00000E+00  9.000E+00
</event>
<event>
      5  10001  3.52971E+09  1.20050E+01 -1.00000E+00  1.87005E-01
       2    -1     0     0   515     0  0.000000000E+00  0.000000000E+00  4.970101166E+02  4.970101166E+02  0.000000000E+00  0.00000E+00  9.000E+00
      21    -1     0     0   512   513  0.000000000E+00  0.000000000E+00 -4.931387304E+00  4.931387304E+00  0.000000000E+00  0.00000E+00  9.000E+00
      21     1     1     2   515   511 -2.017669900E+00 -2.040706934E+00 -3.663039167E+00  4.653314148E+00  1.005359161E-06  0.00000E+00  9.000E+00
       2     1     1     2   512     0  1.178565522E+01 -1.783718019E-01  4.604883157E+02  4.606392638E+02  3.300000131E-01  0.00000E+00  9.000E+00
      21     1     1     2   511   513 -9.767985324E+00  2.219078736E+00  3.525345273E+01  3.664892600E+01  0.000000000E+00  0.00000E+00  9.000E+00
</event>
<event>
      5  10001  3.52971E+09  1.44415E+01 -1.00000E+00  1.78946E-01
       2    -1     0     0   513     0  0.000000000E+00  0.000000000E+00  8.220374620E+00  8.220374620E+00  0.000000000E+00  0.00000E+00  9.000E+00
      21    -1     0     0   512   513  0.000000000E+00  0.000000000E+00 -1.924208649E+02  1.924208649E+02  0.000000000E+00  0.00000E+00  9.000E+00
      21     1     1     2   511   514  1.043816050E+01  8.722132191E+00 -1.368521127E+02  1.375264758E+02  0.000000000E+00  0.00000E+00  9.000E+00
       2     1     1     2   514     0 -1.424009437E+01  5.209630154E+00 -1.729897942E+00  1.526505752E+01  3.300000131E-01  0.00000E+00  9.000E+00
      21     1     1     2   512   511  3.801933875E+00 -1.393176234E+01 -4.561847963E+01  4.784970623E+01  6.743495762E-07  0.00000E+00  9.000E+00
</event>
<event>
      5  10001  3.52971E+09  4.13449E+00 -1.00000E+00  2.60123E-01
       1    -1     0     0   511     0  0.000000000E+00  0.000000000E+00  3.231725859E+01  3.231725859E+01  0.000000000E+00  0.00000E+00  9.000E+00
      -2    -1     0     0     0   511  0.000000000E+00  0.000000000E+00 -1.890311830E+02  1.890311830E+02  0.000000000E+00  0.00000E+00  9.000E+00
      -2     1     1     2     0   512  1.522130021E+01 -1.935189469E+00 -1.864730480E+02  1.871035528E+02  3.300000131E-01  0.00000E+00  9.000E+00
      21     1     1     2   512   513 -9.723365086E+00 -1.084883667E+00  2.312131904E+01  2.510609876E+01  1.936921693E-06  0.00000E+00  9.000E+00
       1     1     1     2   513     0 -5.497935120E+00  3.020073136E+00  6.637804603E+00  9.138789979E+00  3.300000131E-01  0.00000E+00  9.000E+00
</event>
<event>
      5  10001  3.52971E+09  3.42699E+00 -1.00000E+00  2.80356E-01
      -2    -1     0     0     0   514  0.000000000E+00  0.000000000E+00  1.797194124E+02  1.797194124E+02  0.000000000E+00  0.00000E+00  9.000E+00
      21    -1     0     0   514   511  0.000000000E+00  0.000000000E+00 -2.596277007E+00  2.596277007E+00  0.000000000E+00  0.00000E+00  9.000E+00
      -2     1     1     2     0   513 -7.054645008E+00 -8.240196707E+00  1.659669959E+02  1.663214402E+02  3.300000131E-01  0.00000E+00  9.000E+00
      21     1     1     2   513   512  4.597892051E+00  5.832110251E+00  9.800836916E+00  1.229676891E+01  1.192092896E-07  0.00000E+00  9.000E+00
      21     1     1     2   512   511  2.456752957E+00  2.408086456E+00  1.355302647E+00  3.697480323E+00  2.954040110E-07  0.00000E+00  9.000E+00
</event>
<event>
      5  10001  3.52971E+09  3.62206E+00 -1.00000E+00  2.74049E-01
      21    -1     0     0   515   513  0.000000000E+00  0.000000000E+00  9.505332798E+00  9.505332798E+00  0.000000000E+00  0.00000E+00  9.000E+00
      21    -1     0     0   514   515  0.000000000E+00  0.000000000E+00 -7.336630321E+01  7.336630321E+01  0.000000000E+00  0.00000E+00  9.000E+00
      21     1     1     2   514   511 -5.890192252E-01  1.176484362E+01 -6.720629953E+01  6.823082284E+01  9.536743164E-07  0.00000E+00  9.000E+00
      21     1     1     2   511   516  2.320313277E+00 -8.124389384E+00  5.488473510E+00  1.007536094E+01  7.839767002E-07  0.00000E+00  9.000E+00
      21     1     1     2   516   513 -1.731294052E+00 -3.640454238E+00 -2.143144390E+00  4.565452226E+00  7.884953353E-08  0.00000E+00  9.000E+00
</event>
<event>
      5  10001  3.52971E+09  3.36922E+00 -1.00000E+00  2.82355E-01
      21    -1     0     0   512   511  0.000000000E+00  0.000000000E+00  9.747877281E+00  9.747877281E+00  0.000000000E+00  0.00000E+00  9.000E+00
       2    -1     0     0   513     0  0.000000000E+00  0.000000000E+00 -5.095958039E+01  5.095958039E+01  0.000000000E+00  0.00000E+00  9.000E+00
       2     1     1     2   512     0 -1.623319618E+01  4.971217738E+00 -3.604795144E+01  3.984712495E+01  3.300000131E-01  0.00000E+00  9.000E+00
       3     1     1     2   513     0  1.288150743E+01 -4.646666552E+00 -8.474313079E+00  1.611175738E+01  5.000000000E-01  0.00000E+00  9.000E+00
      -3     1     1     2     0   511  3.351688749E+00 -3.245511859E-01  3.310561404E+00  4.748575339E+00  5.000000000E-01  0.00000E+00  9.000E+00
</event>
<event>
      5  10001  3.52971E+09  2.58273E+01 -1.00000E+00  1.57696E-01
       1    -1     0     0   512     0  0.000000000E+00  0.000000000E+00  5.042528989E+02  5.042528989E+02  0.000000000E+00  0.00000E+00  9.000E+00
      21    -1     0     0   515   513  0.000000000E+00  0.000000000E+00 -2.235858766E+01  2.235858766E+01  0.000000000E+00  0.00000E+00  9.000E+00
      21     1     1     2   515   514  3.723124820E+01 -8.732738282E+00  1.240254621E+00  3.826179285E+01  8.277859934E-07  0.00000E+00  9.000E+00
       1     1     1     2   514     0 -1.170401269E+01  4.807991222E+00  4.400219654E+02  4.402039750E+02  3.300000131E-01  0.00000E+00  9.000E+00
      21     1     1     2   512   513 -2.552723552E+01  3.924747060E+00  4.063209127E+01  4.814571874E+01  8.259061849E-07  0.00000E+00  9.000E+00
</event>
<event>
      5  10001  3.52971E+09  6.94737E+00 -1.00000E+00  2.16012E-01
      -1    -1     0     0     0   511  0.000000000E+00  0.000000000E+00  6.446414943E+01  6.446414943E+01  0.000000000E+00  0.00000E+00  9.000E+00
       2    -1     0     0   514     0  0.000000000E+00  0.000000000E+00 -3.983706950E+02  3.983706950E+02  0.000000000E+00  0.00000E+00  9.000E+00
      -1     1     1     2     0   512 -4.516473514E+00  6.629347720E+00  6.331779649E+01  6.382475253E+01  3.300000131E-01  0.00000E+00  9.000E+00
       2     1     1     2   512     0  1.070233653E+01 -9.791749766E+00 -3.820005432E+02  3.822760028E+02  3.300000131E-01  0.00000E+00  9.000E+00
      21     1     1     2   514   511 -6.185863017E+00  3.162402046E+00 -1.522379883E+01  1.673408912E+01  2.384185791E-07  0.00000E+00  9.000E+00
</event>
<event>
      5  10001  3.52971E+09  4.94789E+00 -1.00000E+00  2.43442E-01
      21    -1     0     0   513   512  0.000000000E+00  0.000000000E+00  6.357426507E+01  6.357426507E+01  0.000000000E+00  0.00000E+00  9.000E+00
      21    -1     0     0   515   511  0.000000000E+00  0.000000000E+00 -3.413944125E+01  3.413944125E+01  0.000000000E+00  0.00000E+00  9.000E+00
      21     1     1     2   513   511  6.425575834E+00  7.663181265E+00 -4.090815056E+00  1.080495903E+01  4.172325134E-07  0.00000E+00  9.000E+00
      21     1     1     2   514   512 -8.605682775E+00 -1.210489031E+01  5.906029150E+01  6.089913117E+01  1.168007728E-06  0.00000E+00  9.000E+00
      21     1     1     2   515   514  2.180106941E+00  4.441709043E+00 -2.553465262E+01  2.600961611E+01  0.000000000E+00  0.00000E+00  9.000E+00
</event>
<event>
      5  10001  3.52971E+09  3.63207E+00 -1.00000E+00  2.73743E-01
       3    -1     0     0   511     0  0.000000000E+00  0.000000000E+00  2.203107517E+00  2.203107517E+00  0.000000000E+00  0.00000E+00  9.000E+00
      21    -1     0     0   516   514  0.000000000E+00  0.000000000E+00 -5.189379267E+02  5.189379267E+02  0.000000000E+00  0.00000E+00  9.000E+00
      21     1     1     2   511   514  4.952079886E-01 -1.548173251E+01 -4.863095365E+02  4.865561576E+02  5.394796609E-06  0.00000E+00  9.000E+00
      21     1     1     2   516   512 -2.794620507E+00  1.125951380E+01 -2.200538002E+01  2.487615936E+01  4.129530925E-07  0.00000E+00  9.000E+00
       3     1     1     2   512     0  2.299412518E+00  4.222218710E+00 -8.419902733E+00  9.708717258E+00  5.000000000E-01  0.00000E+00  9.000E+00
</event>
<event>
      5  10001  3.52971E+09  3.75863E+01 -1.00000E+00  1.46534E-01
      21    -1     0     0   513   512  0.000000000E+00  0.000000000E+00  5.523392951E+01  5.523392951E+01  0.000000000E+00  0.00000E+00  9.000E+00
      21    -1     0     0   515   513  0.000000000E+00  0.000000000E+00 -4.446606344E+01  4.446606344E+01  0.000000000E+00  0.00000E+00  9.000E+00
      21     1     1     2   516   512 -1.831840361E+01 -6.282879090E+00  4.474304564E+01  4.875426764E+01  4.768371582E-07  0.00000E+00  9.000E+00
      21     1     1     2   511   516 -3.234229233E+00  1.435768206E+01 -1.602568772E+01  2.175835333E+01  4.129530925E-07  0.00000E+00  9.000E+00
      21     1     1     2   515   511  2.155263284E+01 -8.074802971E+00 -1.794949185E+01  2.918737198E+01  5.331201500E-07  0.00000E+00  9.000E+00
</event>
<event>
      5  10001  3.52971E+09  6.04416E+00 -1.00000E+00  2.24972E-01
      21    -1     0     0   514   511  0.000000000E+00  0.000000000E+00  6.222015550E+01  6.222015550E+01  0.000000000E+00  0.00000E+00  9.000E+00
      21    -1     0     0   512   517  0.000000000E+00  0.000000000E+00 -2.461641842E+00  2.461641842E+00  0.000000000E+00  0.00000E+00  9.000E+00
      21     1     1     2   514   517 -9.554660214E+00  1.633417840E+00  1.189911763E+01  1.534759219E+01  2.384185791E-07  0.00000E+00  9.000E+00
      21     1     1     2   513   511  5.130158597E+00 -4.384646504E+00  2.817601801E+01  2.897294675E+01  4.768371582E-07  0.00000E+00  9.000E+00
      21     1     1     2   512   513  4.424501617E+00  2.751228664E+00  1.968337801E+01  2.036125840E+01  3.371747881E-07  0.00000E+00  9.000E+00
</event>
<event>
      5  10001  3.52971E+09  8.15446E+00 -1.00000E+00  2.06585E-01
      21    -1     0     0   515   513  0.000000000E+00  0.000000000E+00  1.855714437E+01  1.855714437E+01  0.000000000E+00  0.00000E+00  9.000E+00
      21    -1     0     0   512   515  0.000000000E+00  0.000000000E+00 -7.033412481E+00  7.033412481E+00  0.000000000E+00  0.00000E+00  9.000E+00
      21     1     1     2   512   516  6.214280917E+00  5.892066474E+00  6.057660775E+00  1.048947037E+01  1.685873940E-07  0.00000E+00  9.000E+00
      21     1     1     2   516   511 -3.219938292E+00 -6.863859101E+00 -1.249864695E+00  7.683926478E+00  1.837138534E-07  0.00000E+00  9.000E+00
      21     1     1     2   511   513 -2.994342625E+00  9.717926277E-01  6.715935809E+00  7.417159999E+00  0.000000000E+00  0.00000E+00  9.000E+00
</event>
<event>
      5  10001  3.52971E+09  1.57168E+01 -1.00000E+00  1.75491E-01
      21    -1     0     0   512   513  0.000000000E+00  0.000000000E+00  6.167978260E+01  6.167978260E+01  0.000000000E+00  0.00000E+00  9.000E+00
      21    -1     0     0   513   514  0.000000000E+00  0.000000000E+00 -1.651367628E+01  1.651367628E+01  0.000000000E+00  0.00000E+00  9.000E+00
      -3     1     1     2     0   514 -1.506494869E+01 -3.922725650E+00 -8.704233698E+00  1.784248132E+01  5.000000000E-01  0.00000E+00  9.000E+00
       3     1     1     2   511     0  6.352387698E+00 -9.153958319E+00  1.778608002E+01  2.099386636E+01  5.000000000E-01  0.00000E+00  9.000E+00
      21     1     1     2   512   511  8.712560987E+00  1.307668397E+01  3.608426000E+01  3.935711120E+01  6.743495762E-07  0.00000E+00  9.000E+00
</event>
<event>
      5  10001  3.52971E+09  3.35730E+00 -1.00000E+00  2.82776E-01
      21    -1     0     0   515   511  0.000000000E+00  0.000000000E+00  2.605077541E+01  2.605077541E+01  0.000000000E+00  0.00000E+00  9.000E+00
      21    -1     0     0   513   516  0.000000000E+00  0.000000000E+00 -5.868644722E+00  5.868644722E+00  0.000000000E+00  0.00000E+00  9.000E+00
      21     1     1     2   515   516  9.137157121E+00  3.726890968E+00  1.386476827E+00  9.964922204E+00  2.686345037E-07  0.00000E+00  9.000E+00
      21     1     1     2   513   514 -7.195525142E+00 -8.920739402E-01  1.584612532E+01  1.742616038E+01  2.384185791E-07  0.00000E+00  9.000E+00
      21     1     1     2   514   511 -1.941631979E+00 -2.834817028E+00  2.949528545E+00  4.528337550E+00  7.300048300E-08  0.00000E+00  9.000E+00
</event>
<event>
      5  10001  3.52971E+09  4.51437E+00 -1.00000E+00  2.51668E-01
      21    -1     0     0   512   513  0.000000000E+00  0.000000000E+00  8.015485478E+00  8.015485478E+00  0.000000000E+00  0.00000E+00  9.000E+00
      21    -1     0     0   517   511  0.000000000E+00  0.000000000E+00 -4.114431314E+01  4.114431314E+01  0.000000000E+00  0.00000E+00  9.000E+00
      21     1     1     2   512   511 -3.068869660E+00 -1.626629769E+01 -2.287848661E+01  2.823890137E+01  4.768371582E-07  0.00000E+00  9.000E+00
      21     1     1     2   517   515  5.524568669E+00  1.254283055E+01 -8.512234580E+00  1.613386484E+01  3.371747881E-07  0.00000E+00  9.000E+00
      21     1     1     2   515   513 -2.455699009E+00  3.723467133E+00 -1.738106478E+00  4.787032405E+00  5.960464478E-08  0.00000E+00  9.000E+00
</event>
<event>
      5  10001  3.52971E+09  4.81390E+00 -1.00000E+00  2.45845E-01
      21    -1     0     0   514   512  0.000000000E+00  0.000000000E+00  5.328932327E+00  5.328932327E+00  0.000000000E+00  0.00000E+00  9.000E+00
      21    -1     0     0   516   513  0.000000000E+00  0.000000000E+00 -1.139992645E+02  1.139992645E+02  0.000000000E+00  0.00000E+00  9.000E+00
      21     1     1     2   514   513  2.099552622E+01  6.418359625E+00 -3.415940060E+01  4.060630629E+01  4.768371582E-07  0.00000E+00  9.000E+00
      21     1     1     2   516   511 -1.703436540E+01 -9.153845719E+00 -6.751384492E+01  7.022878151E+01  1.651812370E-06  0.00000E+00  9.000E+00
      21     1     1     2   511   512 -3.961160816E+00  2.735486093E+00 -6.997086602E+00  8.493108977E+00  8.429369702E-08  0.00000E+00  9.000E+00
</event>
<event>
      5  10001  3.52971E+09  9.02516E+00 -1.00000E+00  2.01047E-01
      21    -1     0     0   515   513  0.000000000E+00  0.000000000E+00  2.211430967E+02  2.211430967E+02  0.000000000E+00  0.00000E+00  9.000E+00
      21    -1     0     0   512   515  0.000000000E+00  0.000000000E+00 -2.328607370E+01  2.328607370E+01  0.000000000E+00  0.00000E+00  9.000E+00
      21     1     1     2   512   517 -3.085649523E+00 -9.402164521E+00 -2.176524118E+01  2.390915419E+01  9.830249847E-07  0.00000E+00  9.000E+00
       1     1     1     2   517     0  5.263992301E+00  1.180112518E+00  1.755546888E+02  1.756378659E+02  3.300000131E-01  0.00000E+00  9.000E+00
      -1     1     1     2     0   513 -2.178342778E+00  8.222052003E+00  4.406757539E+01  4.488215032E+01  3.300000131E-01  0.00000E+00  9.000E+00
</event>
<event>
      5  10001  3.52971E+09  3.82186E+01 -1.00000E+00  1.46075E-01
      21    -1     0     0   514   512  0.000000000E+00  0.000000000E+00  2.566433078E+01  2.566433078E+01  0.000000000E+00  0.00000E+00  9.000E+00
       2    -1     0     0   512     0  0.000000000E+00  0.000000000E+00 -1.068753792E+02  1.068753792E+02  0.000000000E+00  0.00000E+00  9.000E+00
      21     1     1     2   514   511 -2.029245590E+01 -1.159958329E+01  1.443022311E+01  2.746935453E+01  8.760057960E-07  0.00000E+00  9.000E+00
      21     1     1     2   511   515  2.389505397E+01 -5.006202912E+00 -3.971571414E+01  4.661945540E+01  0.000000000E+00  0.00000E+00  9.000E+00
       2     1     1     2   515     0 -3.602598068E+00  1.660578620E+01 -5.592555741E+01  5.845090007E+01  3.300000131E-01  0.00000E+00  9.000E+00
</event>
<event>
      5  10001  3.52971E+09  1.93056E+01 -1.00000E+00  1.67642E-01
      21    -1     0     0   513   511  0.000000000E+00  0.000000000E+00  3.352041640E+02  3.352041640E+02  0.000000000E+00  0.00000E+00  9.000E+00
      21    -1     0     0   512   516  0.000000000E+00  0.000000000E+00 -8.935272401E+00  8.935272401E+00  0.000000000E+00  0.00000E+00  9.000E+00
      21     1     1     2   513   516  6.933598686E+00 -7.049145048E+00  3.284838597E+02  3.286326388E+02  7.629394531E-06  0.00000E+00  9.000E+00
      21     1     1     2   514   511 -4.926401375E+00  5.842264065E+00  4.170041265E+00  8.705786814E+00  0.000000000E+00  0.00000E+00  9.000E+00
      21     1     1     2   512   514 -2.007197312E+00  1.206880983E+00 -6.385009352E+00  6.801010747E+00  7.052516679E-07  0.00000E+00  9.000E+00
</event>
<event>
      5  10001  3.52971E+09  9.08030E+00 -1.00000E+00  2.00724E-01
       2    -1     0     0   512     0  0.000000000E+00  0.000000000E+00  4.403744056E+01  4.403744056E+01  0.000000000E+00  0.00000E+00  9.000E+00
      21    -1     0     0   515   514  0.000000000E+00  0.000000000E+00 -1.948199636E+02  1.948199636E+02  0.000000000E+00  0.00000E+00  9.000E+00
      21     1     1     2   512   514  4.828802854E+00  9.838909770E+00 -1.861869187E+02  1.865092227E+02  2.697398305E-06  0.00000E+00  9.000E+00
       2     1     1     2   511     0 -4.734531204E+00 -4.875158415E+00  4.285680005E+01  4.339351525E+01  3.300000131E-01  0.00000E+00  9.000E+00
      21     1     1     2   515   511 -9.427165030E-02 -4.963751356E+00 -7.452404461E+00  8.954666209E+00  1.685873940E-07  0.00000E+00  9.000E+00
</event>
<event>
      5  10001  3.52971E+09  8.37061E+00 -1.00000E+00  2.05127E-01
      21    -1     0     0   513   511  0.000000000E+00  0.000000000E+00  4.244045534E+00  4.244045534E+00  0.000000000E+00  0.00000E+00  9.000E+00
      21    -1     0     0   515   516  0.000000000E+00  0.000000000E+00 -1.283259459E+02  1.283259459E+02  0.000000000E+00  0.00000E+00  9.000E+00
      21     1     1     2   513   516  1.359510123E+01 -7.002920060E+00 -1.022230078E+02  1.033605872E+02  2.336015456E-06  0.00000E+00  9.000E+00
      21     1     1     2   515   512 -5.546026714E+00  5.545006026E+00 -2.562154401E+00  8.250462976E+00  3.862822472E-07  0.00000E+00  9.000E+00
      21     1     1     2   512   511 -8.049074514E+00  1.457914034E+00 -1.929673812E+01  2.095894119E+01  0.000000000E+00  0.00000E+00  9.000E+00
</event>
<event>
      5  10001  3.52971E+09  5.69931E+00 -1.00000E+00  2.28990E-01
      21    -1     0     0   514   511  0.000000000E+00  0.000000000E+00  8.272577801E+00  8.272577801E+00  0.000000000E+00  0.00000E+00  9.000E+00
       1    -1     0     0   511     0  0.000000000E+00  0.000000000E+00 -2.090149166E+02  2.090149166E+02  0.000000000E+00  0.00000E+00  9.000E+00
      -5     1     1     2     0   512 -1.123659679E+01  1.545004515E+00 -3.356207181E+00  1.276527613E+01  4.800000191E+00  0.00000E+00  9.000E+00
       1     1     1     2   512     0  1.369931883E+01 -4.723629433E+00 -1.977210136E+02  1.982515880E+02  3.300000131E-01  0.00000E+00  9.000E+00
       5     1     1     2   514     0 -2.462722041E+00  3.178624918E+00  3.348820134E-01  6.270630272E+00  4.800000191E+00  0.00000E+00  9.000E+00
</event>
<event>
      5  10001  3.52971E+09  3.81830E+00 -1.00000E+00  2.68311E-01
       2    -1     0     0   512     0  0.000000000E+00  0.000000000E+00  2.064346728E+02  2.064346728E+02  0.000000000E+00  0.00000E+00  9.000E+00
      21    -1     0     0   513   514  0.000000000E+00  0.000000000E+00 -6.063449735E+00  6.063449735E+00  0.000000000E+00  0.00000E+00  9.000E+00
      21     1     1     2   512   511  7.509000358E+00  1.151858781E+01  3.128506985E+00  1.410143636E+01  9.424321831E-08  0.00000E+00  9.000E+00
       2     1     1     2   513     0 -1.053687112E+01 -1.152189938E+01  1.884743437E+02  1.891202447E+02  3.300000131E-01  0.00000E+00  9.000E+00
      21     1     1     2   511   514  3.027870763E+00  3.311568681E-03  8.768372319E+00  9.276441421E+00  1.192092896E-07  0.00000E+00  9.000E+00
</event>
<event>
      5  10001  3.52971E+09  8.03075E+00 -1.00000E+00  2.07448E-01
      21    -1     0     0   515   513  0.000000000E+00  0.000000000E+00  6.281865582E+01  6.281865582E+01  0.000000000E+00  0.00000E+00  9.000E+00
      21    -1     0     0   511   516  0.000000000E+00  0.000000000E+00 -3.354887418E+00  3.354887418E+00  0.000000000E+00  0.00000E+00  9.000E+00
      21     1     1     2   515   516 -2.746792909E+00 -8.648496662E+00  6.596852629E+00  1.121872677E+01  1.685873940E-07  0.00000E+00  9.000E+00
      21     1     1     2   512   513 -3.399027472E-01  5.190110721E+00  4.782034416E+01  4.810237103E+01  6.743495762E-07  0.00000E+00  9.000E+00
      21     1     1     2   511   512  3.086695656E+00  3.458385941E+00  5.046571616E+00  6.852445437E+00  1.576990671E-07  0.00000E+00  9.000E+00
</event>
<event>
      5  10001  3.52971E+09  3.17042E+00 -1.00000E+00  2.89762E-01
       2    -1     0     0   515     0  0.000000000E+00  0.000000000E+00  2.153710148E+02  2.153710148E+02  0.000000000E+00  0.00000E+00  9.000E+00
      21    -1     0     0   512   515  0.000000000E+00  0.000000000E+00 -1.633981717E+01  1.633981717E+01  0.000000000E+00  0.00000E+00  9.000E+00
      21     1     1     2   512   514  7.476985516E+00  9.256874039E+00 -1.383580452E+01  1.824895932E+01  5.591411304E-07  0.00000E+00  9.000E+00
       2     1     1     2   513     0 -6.637661884E+00 -5.881015213E+00  1.977813153E+02  1.979803083E+02  3.300000131E-01  0.00000E+00  9.000E+00
      21     1     1     2   514   513 -8.393236319E-01 -3.375858827E+00  1.508568688E+01  1.548156438E+01  1.685873940E-07  0.00000E+00  9.000E+00
</event>
<event>
      5  10001  3.52971E+09  5.15450E+00 -1.00000E+00  2.36223E-01
      21    -1     0     0   511   513  0.000000000E+00  0.000000000E+00  8.954772412E-01  8.954772412E-01  0.000000000E+00  0.00000E+00  9.000E+00
      21    -1     0     0   512   516  0.000000000E+00  0.000000000E+00 -1.304004721E+02  1.304004721E+02  0.000000000E+00  0.00000E+00  9.000E+00
      21     1     1     2   511   516 -7.512375280E+00  5.161743218E+00 -7.032938379E+01  7.091756904E+01  9.536743164E-07  0.00000E+00  9.000E+00
      21     1     1     2   512   515  5.699482620E+00 -6.252704678E+00 -5.546792175E+01  5.610945341E+01  0.000000000E+00  0.00000E+00  9.000E+00
      21     1     1     2   515   513  1.812892660E+00  1.090961461E+00 -3.707689318E+00  4.268926889E+00  1.576990671E-07  0.00000E+00  9.000E+00
</event>
<event>
      5  10001  3.52971E+09  3.58356E+00 -1.00000E+00  2.75243E-01
      21    -1     0     0   514   515  0.000000000E+00  0.000000000E+00  2.027694843E+01  2.027694843E+01  0.000000000E+00  0.00000E+00  9.000E+00
      -2    -1     0     0     0   514  0.000000000E+00  0.000000000E+00 -2.966804306E+02  2.966804306E+02  0.000000000E+00  0.00000E+00  9.000E+00
      21     1     1     2   512   515 -1.265844292E+01  6.981087852E-01  1.577633368E+01  2.023897818E+01  3.371747881E-07  0.00000E+00  9.000E+00
      21     1     1     2   513   512  1.033832825E+01  2.032983441E+00 -1.003436700E+01  1.455000254E+01  4.460403188E-07  0.00000E+00  9.000E+00
      -2     1     1     2     0   513  2.320114672E+00 -2.731092226E+00 -2.821454489E+02  2.821683983E+02  3.300000131E-01  0.00000E+00  9.000E+00
</event>
<event>
      5  10001  3.52971E+09  6.42755E+00 -1.00000E+00  2.20921E-01
      21    -1     0     0   511   513  0.000000000E+00  0.000000000E+00  1.663047717E+00  1.663047717E+00  0.000000000E+00  0.00000E+00  9.000E+00
       2    -1     0     0   516     0  0.000000000E+00  0.000000000E+00 -8.430412855E+02  8.430412855E+02  0.000000000E+00  0.00000E+00  9.000E+00
      21     1     1     2   516   517  9.414111537E+00 -3.490750912E+00 -2.010703219E+02  2.013208513E+02  3.814697266E-06  0.00000E+00  9.000E+00
      21     1     1     2   517   513 -1.541682153E+01  1.193231418E+00 -3.778997383E+01  4.083116836E+01  4.768371582E-07  0.00000E+00  9.000E+00
       2     1     1     2   511     0  6.002709997E+00  2.297519494E+00 -6.025179421E+02  6.025523135E+02  3.300000131E-01  0.00000E+00  9.000E+00
</event>
<event>
      5  10001  3.52971E+09  7.90355E+00 -1.00000E+00  2.08356E-01
      21    -1     0     0   512   516  0.000000000E+00  0.000000000E+00  1.111670631E+02  1.111670631E+02  0.000000000E+00  0.00000E+00  9.000E+00
      21    -1     0     0   514   512  0.000000000E+00  0.000000000E+00 -2.552513016E+00  2.552513016E+00  0.000000000E+00  0.00000E+00  9.000E+00
      21     1     1     2   514   515  9.642114864E+00 -1.286081388E+00  1.024268073E+01  1.412575283E+01  3.153981341E-07  0.00000E+00  9.000E+00
       5     1     1     2   515     0 -2.598298414E+00  2.931605676E+00  5.600732326E+01  5.634896385E+01  4.800000191E+00  0.00000E+00  9.000E+00
      -5     1     1     2     0   516 -7.043816451E+00 -1.645524288E+00  4.236454613E+01  4.324485947E+01  4.800000191E+00  0.00000E+00  9.000E+00
</event>
<event>
      5  10001  3.52971E+09  1.27034E+01 -1.00000E+00  1.84460E-01
      21    -1     0     0   512   514  0.000000000E+00  0.000000000E+00  2.032496632E+01  2.032496632E+01  0.000000000E+00  0.00000E+00  9.000E+00
      -2    -1     0     0     0   511  0.000000000E+00  0.000000000E+00 -3.994428694E+02  3.994428694E+02  0.000000000E+00  0.00000E+00  9.000E+00
      -2     1     1     2     0   514  4.105415151E+00  7.813308749E+00 -3.865761411E+02  3.866770280E+02  3.300000131E-01  0.00000E+00  9.000E+00
      21     1     1     2   513   511 -1.676521465E+01 -8.864651707E+00  1.398256203E+00  1.901603514E+01  3.548229009E-07  0.00000E+00  9.000E+00
      21     1     1     2   512   513  1.265979950E+01  1.051342958E+00  6.059981760E+00  1.407477262E+01  5.196212463E-07  0.00000E+00  9.000E+00
</event>
<event>
      5  10001  3.52971E+09  1.59940E+01 -1.00000E+00  1.74794E-01
      21    -1     0     0   515   513  0.000000000E+00  0.000000000E+00  5.051924739E+02  5.051924739E+02  0.000000000E+00  0.00000E+00  9.000E+00
      21    -1     0     0   514   516  0.000000000E+00  0.000000000E+00 -1.197515275E+00  1.197515275E+00  0.000000000E+00  0.00000E+00  9.000E+00
      21     1     1     2   515   516 -1.001406513E+01 -7.070571069E+00  3.398985143E+01  3.613287251E+01  1.719260824E-06  0.00000E+00  9.000E+00
      21     1     1     2   514   511 -8.861458080E-01  3.950703354E+00  1.177226441E+02  1.177922504E+02  1.907348633E-06  0.00000E+00  9.000E+00
      21     1     1     2   511   513  1.090021094E+01  3.119867714E+00  3.522824631E+02  3.524648663E+02  3.814697266E-06  0.00000E+00  9.000E+00
</event>
<event>
      5  10001  3.52971E+09  3.94801E+00 -1.00000E+00  2.64807E-01
      21    -1     0     0   512   515  0.000000000E+00  0.000000000E+00  4.749882049E+00  4.749882049E+00  0.000000000E+00  0.00000E+00  9.000E+00
      21    -1     0     0   513   512  0.000000000E+00  0.000000000E+00 -2.839818043E+02  2.839818043E+02  0.000000000E+00  0.00000E+00  9.000E+00
      21     1     1     2   514   511 -1.042831416E+01 -1.971580758E+00 -1.542703453E+01  1.872512380E+01  7.152557373E-07  0.00000E+00  9.000E+00
      21     1     1     2   513   514  8.305403143E+00  5.300254392E+00 -2.655195439E+02  2.657022781E+02  6.607249480E-06  0.00000E+00  9.000E+00
      21     1     1     2   511   515  2.122911018E+00 -3.328673634E+00  1.714656102E+00  4.304284482E+00  2.980232239E-08  0.00000E+00  9.000E+00
</event>
<event>
      5  10001  3.52971E+09  4.16798E+00 -1.00000E+00  2.59322E-01
      21    -1     0     0   516   512  0.000000000E+00  0.000000000E+00  1.397736517E+00  1.397736517E+00  0.000000000E+00  0.00000E+00  9.000E+00
      21    -1     0     0   511   515  0.000000000E+00  0.000000000E+00 -5.622067761E+02  5.622067761E+02  0.000000000E+00  0.00000E+00  9.000E+00
      21     1     1     2   516   515  5.270848659E+00 -1.100307379E+01 -5.059422599E+02  5.060893397E+02  9.344061824E-06  0.00000E+00  9.000E+00
      21     1     1     2   511   513 -6.721417700E+00  7.095658286E+00 -5.065654113E+01  5.159080327E+01  0.000000000E+00  0.00000E+00  9.000E+00
      21     1     1     2   513   512  1.450569041E+00  3.907415502E+00 -4.210238619E+00  5.924369643E+00  5.840038640E-07  0.00000E+00  9.000E+00
</event>
<event>
      5  10001  3.52971E+09  8.57342E+00 -1.00000E+00  2.03811E-01
      21    -1     0     0   514   511  0.000000000E+00  0.000000000E+00  1.270273371E+01  1.270273371E+01  0.000000000E+00  0.00000E+00  9.000E+00
      21    -1     0     0   517   512  0.000000000E+00  0.000000000E+00 -1.325783924E+02  1.325783924E+02  0.000000000E+00  0.00000E+00  9.000E+00
      21     1     1     2   514   512 -7.328727542E+00 -8.477343675E+00 -1.195137875E+02  1.200379982E+02  1.348699152E-06  0.00000E+00  9.000E+00
      21     1     1     2   517   515  8.737200967E+00  3.255509515E+00  9.927098601E+00  1.361926245E+01  6.529361695E-07  0.00000E+00  9.000E+00
      21     1     1     2   515   511 -1.408473425E+00  5.221834161E+00 -1.028896977E+01  1.162386547E+01  1.192092896E-07  0.00000E+00  9.000E+00
</event>
<event>
      5  10001  3.52971E+09  1.46051E+01 -1.00000E+00  1.78478E-01
      21    -1     0     0   515   511  0.000000000E+00  0.000000000E+00  6.361104758E+00  6.361104758E+00  0.000000000E+00  0.00000E+00  9.000E+00
      -2    -1     0     0     0   513  0.000000000E+00  0.000000000E+00 -6.125510027E+01  6.125510027E+01  0.000000000E+00  0.00000E+00  9.000E+00
      -2     1     1     2     0   512 -5.953841346E+00  4.377364232E+00 -4.879656817E+01  4.935406275E+01  3.300000131E-01  0.00000E+00  9.000E+00
      21     1     1     2   515   513  1.113905383E+01 -3.572424710E+00 -5.663908506E+00  1.299694572E+01  8.429369702E-08  0.00000E+00  9.000E+00
      21     1     1     2   512   511 -5.185212487E+00 -8.049395222E-01 -4.335188315E-01  5.265196554E+00  1.013388523E-07  0.00000E+00  9.000E+00
</event>
<event>
      5  10001  3.52971E+09  3.93561E+00 -1.00000E+00  2.65133E-01
      21    -1     0     0   514   515  0.000000000E+00  0.000000000E+00  5.827554638E+01  5.827554638E+01  0.000000000E+00  0.00000E+00  9.000E+00
      21    -1     0     0   511   514  0.000000000E+00  0.000000000E+00 -1.013770105E+02  1.013770105E+02  0.000000000E+00  0.00000E+00  9.000E+00
      21     1     1     2   516   513  9.653499396E+00  6.345585360E+00 -2.460005618E+00  1.181135605E+01  6.460989531E-07  0.00000E+00  9.000E+00
      21     1     1     2   511   516 -8.575343046E+00 -2.560534998E+00 -9.395616705E+01  9.438142918E+01  1.348699152E-06  0.00000E+00  9.000E+00
      21     1     1     2   513   515 -1.078156349E+00 -3.785050361E+00  5.331470859E+01  5.345977160E+01  6.743495762E-07  0.00000E+00  9.000E+00
</event>
<event>
      5  10001  3.52971E+09  1.03478E+01 -1.00000E+00  1.94052E-01
      21    -1     0     0   514   511  0.000000000E+00  0.000000000E+00  7.467781274E+02  7.467781274E+02  0.000000000E+00  0.00000E+00  9.000E+00
      21    -1     0     0   513   515  0.000000000E+00  0.000000000E+00 -1.448933175E+01  1.448933175E+01  0.000000000E+00  0.00000E+00  9.000E+00
      21     1     1     2   512   515  5.956096333E+00 -1.501711365E+01  1.041557683E+02  1.054011995E+02  0.000000000E+00  0.00000E+00  9.000E+00
      21     1     1     2   513   511  3.152044426E+00  1.010609409E+01 -1.179820102E+01  1.585137436E+01  5.057621821E-07  0.00000E+00  9.000E+00
      21     1     1     2   514   512 -9.108140760E+00  4.911019559E+00  6.399312283E+02  6.400148852E+02  0.000000000E+00  0.00000E+00  9.000E+00
</event>
<event>
      5  10001  3.52971E+09  3.03078E+00 -1.00000E+00  2.95519E-01
      21    -1     0     0   516   511  0.000000000E+00  0.000000000E+00  5.091867786E+02  5.091867786E+02  0.000000000E+00  0.00000E+00  9.000E+00
      -3    -1     0     0     0   512  0.000000000E+00  0.000000000E+00 -6.514945927E-01  6.514945927E-01  0.000000000E+00  0.00000E+00  9.000E+00
      -3     1     1     2     0   511  9.376310407E+00 -5.122867023E+00  4.989560600E+01  5.102921184E+01  5.000000000E-01  0.00000E+00  9.000E+00
      21     1     1     2   516   513 -6.074067405E+00  5.087842217E+00  3.985121616E+02  3.985909224E+02  5.394796609E-06  0.00000E+00  9.000E+00
      21     1     1     2   513   512 -3.302243002E+00  3.502480682E-02  6.012751638E+01  6.021813898E+01  6.743495762E-07  0.00000E+00  9.000E+00
</event>
<event>
      5  10001  3.52971E+09  7.04564E+00 -1.00000E+00  2.15150E-01
       2    -1     0     0   511     0  0.000000000E+00  0.000000000E+00  8.218873996E+02  8.218873996E+02  0.000000000E+00  0.00000E+00  9.000E+00
      21    -1     0     0   513   512  0.000000000E+00  0.000000000E+00 -1.120505201E+00  1.120505201E+00  0.000000000E+00  0.00000E+00  9.000E+00
      21     1     1     2   514   512 -1.446677822E+01 -1.639584571E+01  2.027024871E+02  2.038784190E+02  2.697398305E-06  0.00000E+00  9.000E+00
       2     1     1     2   513     0  7.718140482E+00  1.841887870E+01  1.977676498E+02  1.987736828E+02  3.300000131E-01  0.00000E+00  9.000E+00
      21     1     1     2   511   514  6.748637733E+00 -2.023032995E+00  4.202967575E+02  4.203558031E+02  5.394796609E-06  0.00000E+00  9.000E+00
</event>
<event>
      5  10001  3.52971E+09  7.96040E+00 -1.00000E+00  2.07947E-01
      21    -1     0     0   513   512  0.000000000E+00  0.000000000E+00  1.802123860E+02  1.802123860E+02  0.000000000E+00  0.00000E+00  9.000E+00
      21    -1     0     0   516   514  0.000000000E+00  0.000000000E+00 -1.084429166E+01  1.084429166E+01  0.000000000E+00  0.00000E+00  9.000E+00
      21     1     1     2   515   514 -1.038131586E+01 -6.719109669E-01  3.885527414E-01  1.041029090E+01  2.548490670E-07  0.00000E+00  9.000E+00
      21     1     1     2   516   512  9.626768156E+00 -7.252650509E+00  5.886038039E-01  1.206739653E+01  2.666641797E-07  0.00000E+00  9.000E+00
      21     1     1     2   513   515  7.545477032E-01  7.924561476E+00  1.683909378E+02  1.685789902E+02  0.000000000E+00  0.00000E+00  9.000E+00
</event>
<event>
      5  10001  3.52971E+09  2.53856E+00 -1.00000E+00  3.20755E-01
      21    -1     0     0   515   512  0.000000000E+00  0.000000000E+00  4.978289538E+01  4.978289538E+01  0.000000000E+00  0.00000E+00  9.000E+00
      21    -1     0     0   514   515  0.000000000E+00  0.000000000E+00 -3.415322529E+00  3.415322529E+00  0.000000000E+00  0.00000E+00  9.000E+00
      -1     1     1     2     0   512 -8.156355491E+00 -8.811902760E+00  2.740851334E+01  2.992509430E+01  3.300000131E-01  0.00000E+00  9.000E+00
       1     1     1     2   511     0  8.076225876E+00  6.275561165E+00  1.768836292E+01  2.043514559E+01  3.300000131E-01  0.00000E+00  9.000E+00
      21     1     1     2   514   511  8.012961506E-02  2.536341595E+00  1.270696590E+00  2.837978024E+00  5.372690075E-08  0.00000E+00  9.000E+00
</event>
<event>
      5  10001  3.52971E+09  5.23764E+00 -1.00000E+00  2.35039E-01
      -1    -1     0     0     0   511  0.000000000E+00  0.000000000E+00  1.723461498E+02  1.723461498E+02  0.000000000E+00  0.00000E+00  9.000E+00
      -1    -1     0     0     0   513  0.000000000E+00  0.000000000E+00 -3.675605410E+00  3.675605410E+00  0.000000000E+00  0.00000E+00  9.000E+00
      -1     1     1     2     0   513  3.039648043E+00  1.391007843E+01  1.449487008E+02  1.456467112E+02  3.300000131E-01  0.00000E+00  9.000E+00
      -1     1     1     2     0   512 -6.539269893E-01 -1.584947329E+01  1.920931539E+01  2.491465677E+01  3.300000131E-01  0.00000E+00  9.000E+00
      21     1     1     2   512   511 -2.385721054E+00  1.939394863E+00  4.512528282E+00  5.460387246E+00  8.429369702E-08  0.00000E+00  9.000E+00
</event>
<event>
      5  10001  3.52971E+09  5.57106E+00 -1.00000E+00  2.30587E-01
      21    -1     0     0   514   513  0.000000000E+00  0.000000000E+00  3.036188294E+02  3.036188294E+02  0.000000000E+00  0.00000E+00  9.000E+00
      21    -1     0     0   516   511  0.000000000E+00  0.000000000E+00 -2.162589239E+00  2.162589239E+00  0.000000000E+00  0.00000E+00  9.000E+00
      21     1     1     2   514   511  1.339011451E+00  9.941566285E+00  2.334626755E+02  2.336780875E+02  2.697398305E-06  0.00000E+00  9.000E+00
      21     1     1     2   515   513 -6.894382134E+00 -9.523821068E+00  6.442114460E+01  6.548526204E+01  1.651812370E-06  0.00000E+00  9.000E+00
      21     1     1     2   516   515  5.555370683E+00 -4.177452170E-01  3.572420063E+00  6.618069174E+00  2.384185791E-07  0.00000E+00  9.000E+00
</event>
<event>
      5  10001  3.52971E+09  2.64650E+00 -1.00000E+00  3.14420E-01
       1    -1     0     0   511     0  0.000000000E+00  0.000000000E+00  1.338860151E+02  1.338860151E+02  0.000000000E+00  0.00000E+00  9.000E+00
      21    -1     0     0   512   515  0.000000000E+00  0.000000000E+00 -4.238269790E+00  4.238269790E+00  0.000000000E+00  0.00000E+00  9.000E+00
      21     1     1     2   511   513 -8.551560823E-01  6.396891050E+00  2.282021319E+00  6.845372768E+00  2.043144286E-07  0.00000E+00  9.000E+00
       1     1     1     2   512     0 -3.749960370E-01 -1.275160029E+01  1.225465547E+02  1.232092159E+02  3.300000131E-01  0.00000E+00  9.000E+00
      21     1     1     2   513   515  1.230152119E+00  6.354709236E+00  4.819169356E+00  8.069696215E+00  8.429369702E-08  0.00000E+00  9.000E+00
</event>
<event>
      5  10001  3.52971E+09  5.09539E+00 -1.00000E+00  2.37084E-01
      21    -1     0     0   514   515  0.000000000E+00  0.000000000E+00  2.709814500E+02  2.709814500E+02  0.000000000E+00  0.00000E+00  9.000E+00
      21    -1     0     0   516   514  0.000000000E+00  0.000000000E+00 -3.262688255E+00  3.262688255E+00  0.000000000E+00  0.00000E+00  9.000E+00
      21     1     1     2   512   515 -1.529627226E+01 -3.691498800E+00  2.378850945E+02  2.384049524E+02  0.000000000E+00  0.00000E+00  9.000E+00
      21     1     1     2   516   511  1.142833521E+01  1.104551591E+00  9.273132042E+00  1.475865366E+01  8.344650269E-07  0.00000E+00  9.000E+00
      21     1     1     2   511   512  3.867937052E+00  2.586947209E+00  2.056053514E+01  2.108053221E+01  4.129530925E-07  0.00000E+00  9.000E+00
</event>
<event>
      5  10001  3.52971E+09  2.59617E+00 -1.00000E+00  3.17308E-01
      -2    -1     0     0     0   512  0.000000000E+00  0.000000000E+00  7.127650547E+01  7.127650547E+01  0.000000000E+00  0.00000E+00  9.000E+00
      -1    -1     0     0     0   511  0.000000000E+00  0.000000000E+00 -2.894402136E+00  2.894402136E+00  0.000000000E+00  0.00000E+00  9.000E+00
      -2     1     1     2     0   513 -8.093437662E+00 -1.766363660E+00  3.759198207E+01  3.849532166E+01  3.300000131E-01  0.00000E+00  9.000E+00
      -1     1     1     2     0   512  1.032030182E+01  4.581820499E+00  1.174788397E+01  1.629795651E+01  3.300000131E-01  0.00000E+00  9.000E+00
      21     1     1     2   513   511 -2.226864160E+00 -2.815456839E+00  1.904223729E+01  1.937762943E+01  3.371747881E-07  0.00000E+00  9.000E+00
</event>
<event>
      5  10001  3.52971E+09  2.11092E+00 -1.00000E+00  3.52460E-01
       2    -1     0     0   511     0  0.000000000E+00  0.000000000E+00  5.489766212E+02  5.489766212E+02  0.000000000E+00  0.00000E+00  9.000E+00
      21    -1     0     0   513   511  0.000000000E+00  0.000000000E+00 -3.677154285E+00  3.677154285E+00  0.000000000E+00  0.00000E+00  9.000E+00
      21     1     1     2   512   514  1.073108231E+01  6.541709750E+00  9.208758410E+00  1.558047899E+01  9.386548846E-07  0.00000E+00  9.000E+00
       2     1     1     2   514     0 -1.189693521E+01 -5.291338753E+00  5.347292223E+02  5.348878251E+02  3.300000131E-01  0.00000E+00  9.000E+00
      21     1     1     2   513   512  1.165852899E+00 -1.250370997E+00  1.361486185E+00  2.185471401E+00  1.908279728E-07  0.00000E+00  9.000E+00
</event>
<event>
      5  10001  3.52971E+09  1.04463E+01 -1.00000E+00  1.93586E-01
      21    -1     0     0   514   512  0.000000000E+00  0.000000000E+00  4.943622163E+00  4.943622163E+00  0.000000000E+00  0.00000E+00  9.000E+00
       2    -1     0     0   512     0  0.000000000E+00  0.000000000E+00 -8.021671416E+02  8.021671416E+02  0.000000000E+00  0.00000E+00  9.000E+00
      21     1     1     2   514   513 -8.740083494E+00  9.417013353E+00 -3.869488026E+00  1.341797815E+01  5.110033810E-07  0.00000E+00  9.000E+00
       2     1     1     2   511     0  1.167856052E+01 -1.173313292E+00 -6.259671013E+02  6.260772206E+02  3.300000131E-01  0.00000E+00  9.000E+00
      21     1     1     2   513   511 -2.938477023E+00 -8.243700062E+00 -1.673869301E+02  1.676155650E+02  1.907348633E-06  0.00000E+00  9.000E+00
</event>
<event>
      5  10001  3.52971E+09  2.24236E+01 -1.00000E+00  1.62369E-01
       3    -1     0     0   513     0  0.000000000E+00  0.000000000E+00  8.855526461E+00  8.855526461E+00  0.000000000E+00  0.00000E+00  9.000E+00
      21    -1     0     0   515   511  0.000000000E+00  0.000000000E+00 -3.144695812E+01  3.144695812E+01  0.000000000E+00  0.00000E+00  9.000E+00
      21     1     1     2   513   511 -1.050255649E+00 -5.932178056E+00 -6.706914959E+00  9.015347008E+00  2.230201594E-07  0.00000E+00  9.000E+00
       3     1     1     2   512     0 -6.828160264E+00  1.158674487E+01 -9.649902164E-01  1.349287351E+01  5.000000000E-01  0.00000E+00  9.000E+00
      21     1     1     2   515   512  7.878415913E+00 -5.654566816E+00 -1.491952649E+01  1.779426407E+01  2.920019320E-07  0.00000E+00  9.000E+00
</event>
<event>
      5  10001  3.52971E+09  7.91933E+00 -1.00000E+00  2.08242E-01
      21    -1     0     0   514   516  0.000000000E+00  0.000000000E+00  2.854503165E+01  2.854503165E+01  0.000000000E+00  0.00000E+00  9.000E+00
      21    -1     0     0   511   514  0.000000000E+00  0.000000000E+00 -1.963870194E+02  1.963870194E+02  0.000000000E+00  0.00000E+00  9.000E+00
      21     1     1     2   512   516 -6.690115547E+00 -1.447439070E-03  2.737844895E+01  2.818398686E+01  1.066240300E-06  0.00000E+00  9.000E+00
      21     1     1     2   515   512  1.401248075E+01  3.017850544E+00 -8.139447128E+01  8.264694183E+01  1.348699152E-06  0.00000E+00  9.000E+00
      21     1     1     2   511   515 -7.322365203E+00 -3.016403105E+00 -1.138259655E+02  1.141011224E+02  1.348699152E-06  0.00000E+00  9.000E+00
</event>
<event>
      5  10001  3.52971E+09  6.15064E+00 -1.00000E+00  2.23806E-01
      21    -1     0     0   513   515  0.000000000E+00  0.000000000E+00  6.439792561E+00  6.439792561E+00  0.000000000E+00  0.00000E+00  9.000E+00
      21    -1     0     0   512   517  0.000000000E+00  0.000000000E+00 -4.220994511E+02  4.220994511E+02  0.000000000E+00  0.00000E+00  9.000E+00
      21     1     1     2   513   517 -1.421924060E+01  5.934789045E+00 -1.596678296E+02  1.604095518E+02  0.000000000E+00  0.00000E+00  9.000E+00
      21     1     1     2   511   515  1.014977334E+01 -1.322865276E+00  1.690232786E+00  1.037423531E+01  2.411963650E-07  0.00000E+00  9.000E+00
      21     1     1     2   512   511  4.069467254E+00 -4.611923769E+00 -2.576820618E+02  2.577554565E+02  3.814697266E-06  0.00000E+00  9.000E+00
</event>
<event>
      5  10001  3.52971E+09  5.81514E+00 -1.00000E+00  2.27597E-01
      21    -1     0     0   514   515  0.000000000E+00  0.000000000E+00  1.545661412E+02  1.545661412E+02  0.000000000E+00  0.00000E+00  9.000E+00
      21    -1     0     0   512   514  0.000000000E+00  0.000000000E+00 -6.342106644E+00  6.342106644E+00  0.000000000E+00  0.00000E+00  9.000E+00
      21     1     1     2   511   515 -2.799943761E+00 -1.180031886E+01  1.472241626E+02  1.477228529E+02  2.697398305E-06  0.00000E+00  9.000E+00
      21     1     1     2   513   511 -1.638778295E-01  7.075160894E+00  2.330891399E+00  7.451027603E+00  0.000000000E+00  0.00000E+00  9.000E+00
      21     1     1     2   512   513  2.963821591E+00  4.725157967E+00 -1.331019444E+00  5.734367358E+00  3.538829710E-07  0.00000E+00  9.000E+00
</event>
<event>
      5  10001  3.52971E+09  1.10848E+01 -1.00000E+00  1.90721E-01
      21    -1     0     0   516   513  0.000000000E+00  0.000000000E+00  2.412717990E+01  2.412717990E+01  0.000000000E+00  0.00000E+00  9.000E+00
      21    -1     0     0   512   511  0.000000000E+00  0.000000000E+00 -4.562431190E+02  4.562431190E+02  0.000000000E+00  0.00000E+00  9.000E+00
      21     1     1     2   512   517  1.257213758E+01  6.127877903E+00 -1.339308506E+02  1.346591336E+02  1.907348633E-06  0.00000E+00  9.000E+00
      21     1     1     2   517   513 -5.155856675E+00 -1.436625328E+01  2.120594098E+01  2.612784003E+01  1.092571186E-06  0.00000E+00  9.000E+00
      21     1     1     2   516   511 -7.416280909E+00  8.238375382E+00 -3.193910295E+02  3.195833253E+02  3.814697266E-06  0.00000E+00  9.000E+00
</event>
<event>
      5  10001  3.52971E+09  5.06064E+00 -1.00000E+00  2.37598E-01
       2    -1     0     0   515     0  0.000000000E+00  0.000000000E+00  7.024175249E+02  7.024175249E+02  0.000000000E+00  0.00000E+00  9.000E+00
      21    -1     0     0   514   511  0.000000000E+00  0.000000000E+00 -6.447562598E-01  6.447562598E-01  0.000000000E+00  0.00000E+00  9.000E+00
      21     1     1     2   515   512  1.479553754E+01 -2.943531846E+00  4.478201506E+02  4.480741675E+02  5.394796609E-06  0.00000E+00  9.000E+00
       2     1     1     2   514     0 -1.779650678E+01  5.880566987E+00  2.105501747E+02  2.113830212E+02  3.300000131E-01  0.00000E+00  9.000E+00
      21     1     1     2   512   511  3.000969238E+00 -2.937035141E+00  4.340244338E+01  4.360509239E+01  8.259061849E-07  0.00000E+00  9.000E+00
</event>
<event>
      5  10001  3.52971E+09  1.53629E+01 -1.00000E+00  1.76407E-01
      21    -1     0     0   513   511  0.000000000E+00  0.000000000E+00  2.078422186E+02  2.078422186E+02  0.000000000E+00  0.00000E+00  9.000E+00
      21    -1     0     0   512   516  0.000000000E+00  0.000000000E+00 -2.199966151E+00  2.199966151E+00  0.000000000E+00  0.00000E+00  9.000E+00
      21     1     1     2   513   516 -8.980429840E+00 -7.908246333E+00  2.051000837E+01  2.374550323E+01  2.384185791E-07  0.00000E+00  9.000E+00
      21     1     1     2   512   514 -1.745772799E+00  8.473503090E+00  1.173703747E+02  1.176887965E+02  2.336015456E-06  0.00000E+00  9.000E+00
      21     1     1     2   514   511  1.072620264E+01 -5.652567576E-01  6.776186944E+01  6.860788503E+01  9.536743164E-07  0.00000E+00  9.000E+00
</event>
<event>
      5  10001  3.52971E+09  5.93595E+00 -1.00000E+00  2.26192E-01
      21    -1     0     0   515   512  0.000000000E+00  0.000000000E+00  7.005346740E-01  7.005346740E-01  0.000000000E+00  0.00000E+00  9.000E+00
      21    -1     0     0   517   511  0.000000000E+00  0.000000000E+00 -1.968449215E+02  1.968449215E+02  0.000000000E+00  0.00000E+00  9.000E+00
      21     1     1     2   515   511  3.113663115E+00 -1.044463670E+01 -1.096897606E+02  1.102298912E+02  1.348699152E-06  0.00000E+00  9.000E+00
      21     1     1     2   513   512 -1.013108108E+00  5.426838429E+00 -6.286185522E+01  6.310380182E+01  9.536743164E-07  0.00000E+00  9.000E+00
      21     1     1     2   517   513 -2.100555007E+00  5.017798272E+00 -2.359277098E+01  2.421176312E+01  3.371747881E-07  0.00000E+00  9.000E+00
</event>
<event>
      5  10001  3.52971E+09  4.54397E+00 -1.00000E+00  2.51062E-01
      21    -1     0     0   514   512  0.000000000E+00  0.000000000E+00  5.276541826E+00  5.276541826E+00  0.000000000E+00  0.00000E+00  9.000E+00
       3    -1     0     0   513     0  0.000000000E+00  0.000000000E+00 -2.805930672E+01  2.805930672E+01  0.000000000E+00  0.00000E+00  9.000E+00
      21     1     1     2   513   512 -9.603873262E+00  2.221739029E+00 -1.797481109E+01  2.050034975E+01  4.129530925E-07  0.00000E+00  9.000E+00
       3     1     1     2   511     0  7.999462472E+00 -3.471188654E+00 -5.887252645E+00  1.053329456E+01  5.000000000E-01  0.00000E+00  9.000E+00
      21     1     1     2   514   511  1.604410790E+00  1.249449625E+00  1.079298848E+00  2.302204238E+00  5.575503985E-08  0.00000E+00  9.000E+00
</event>
<event>
      5  10001  3.52971E+09  4.99721E+00 -1.00000E+00  2.42586E-01
       2    -1     0     0   515     0  0.000000000E+00  0.000000000E+00  8.703135690E+02  8.703135690E+02  0.000000000E+00  0.00000E+00  9.000E+00
      21    -1     0     0   514   511  0.000000000E+00  0.000000000E+00 -6.302338163E-01  6.302338163E-01  0.000000000E+00  0.00000E+00  9.000E+00
      21     1     1     2   515   511 -3.769395184E+00  1.786277014E+01  1.658033405E+02  1.668053794E+02  2.697398305E-06  0.00000E+00  9.000E+00
       2     1     1     2   512     0  2.611615322E+00 -8.117603168E+00  4.253440027E+02  4.254296011E+02  3.300000131E-01  0.00000E+00  9.000E+00
      21     1     1     2   514   512  1.157779861E+00 -9.745166977E+00  2.785359920E+02  2.787088222E+02  3.814697266E-06  0.00000E+00  9.000E+00
</event>
<event>
      5  10001  3.52971E+09  3.65276E+00 -1.00000E+00  2.73114E-01
      21    -1     0     0   514   512  0.000000000E+00  0.000000000E+00  2.026890559E+02  2.026890559E+02  0.000000000E+00  0.00000E+00  9.000E+00
      -3    -1     0     0     0   513  0.000000000E+00  0.000000000E+00 -5.115628159E-01  5.115628159E-01  0.000000000E+00  0.00000E+00  9.000E+00
      -3     1     1     2     0   511  1.427374754E+00  9.286014670E+00  1.106361417E+02  1.110354598E+02  5.000000000E-01  0.00000E+00  9.000E+00
      21     1     1     2   514   513 -2.665646582E+00 -8.283431639E+00  8.444432138E+01  8.489148558E+01  1.348699152E-06  0.00000E+00  9.000E+00
      21     1     1     2   511   512  1.238271828E+00 -1.002583031E+00  7.097029945E+00  7.273673342E+00  8.429369702E-08  0.00000E+00  9.000E+00
</event>
<event>
      5  10001  3.52971E+09  3.99629E+00 -1.00000E+00  2.63557E-01
      21    -1     0     0   515   511  0.000000000E+00  0.000000000E+00  3.030397402E+01  3.030397402E+01  0.000000000E+00  0.00000E+00  9.000E+00
       2    -1     0     0   512     0  0.000000000E+00  0.000000000E+00 -4.887270685E+01  4.887270685E+01  0.000000000E+00  0.00000E+00  9.000E+00
      21     1     1     2   512   516 -4.291768897E+00 -1.004386905E+01 -6.840385726E+00  1.288757008E+01  3.576278687E-07  0.00000E+00  9.000E+00
      21     1     1     2   516   511  8.253240198E+00  9.518194778E+00  2.571314876E+01  2.863351227E+01  4.768371582E-07  0.00000E+00  9.000E+00
       2     1     1     2   515     0 -3.961471301E+00  5.256742668E-01 -3.744149586E+01  3.765559853E+01  3.300000131E-01  0.00000E+00  9.000E+00
</event>
<event>
      5  10001  3.52971E+09  8.49926E+00 -1.00000E+00  2.04286E-01
       2    -1     0     0   515     0  0.000000000E+00  0.000000000E+00  9.538255645E+01  9.538255645E+01  0.000000000E+00  0.00000E+00  9.000E+00
      21    -1     0     0   511   514  0.000000000E+00  0.000000000E+00 -1.620723274E+02  1.620723274E+02  0.000000000E+00  0.00000E+00  9.000E+00
      21     1     1     2   515   514 -9.742195074E-02  1.425117179E+01  2.208009639E+00  1.442153581E+01  5.960464478E-08  0.00000E+00  9.000E+00
       2     1     1     2   513     0 -7.151454435E+00 -9.813726768E+00  8.652741495E+01  8.737594046E+01  3.300000131E-01  0.00000E+00  9.000E+00
      21     1     1     2   511   513  7.248876386E+00 -4.437445023E+00 -1.554251956E+02  1.556574076E+02  2.697398305E-06  0.00000E+00  9.000E+00
</event>
<event>
      5  10001  3.52971E+09  9.76990E+00 -1.00000E+00  1.96928E-01
      21    -1     0     0   512   513  0.000000000E+00  0.000000000E+00  2.102480606E+01  2.102480606E+01  0.000000000E+00  0.00000E+00  9.000E+00
      21    -1     0     0   511   516  0.000000000E+00  0.000000000E+00 -1.479707686E+01  1.479707686E+01  0.000000000E+00  0.00000E+00  9.000E+00
      21     1     1     2   512   516  1.045060611E+01 -8.362038075E+00 -4.530208624E+00  1.413016769E+01  1.884864366E-07  0.00000E+00  9.000E+00
      21     1     1     2   511   514 -7.078048841E+00  1.086531645E+01  3.710841404E+00  1.348792871E+01  8.429369702E-08  0.00000E+00  9.000E+00
      21     1     1     2   514   513 -3.372557266E+00 -2.503278378E+00  7.047096423E+00  8.203786513E+00  8.429369702E-08  0.00000E+00  9.000E+00
</event>
<event>
      5  10001  3.52971E+09  1.07908E+01 -1.00000E+00  1.92008E-01
      -3    -1     0     0     0   513  0.000000000E+00  0.000000000E+00  2.523791356E+01  2.523791356E+01  0.000000000E+00  0.00000E+00  9.000E+00
      21    -1     0     0   511   514  0.000000000E+00  0.000000000E+00 -6.188323790E+01  6.188323790E+01  0.000000000E+00  0.00000E+00  9.000E+00
      -3     1     1     2     0   514  1.104592140E+01 -2.280355034E+01  8.376595131E+00  2.669141498E+01  5.000000000E-01  0.00000E+00  9.000E+00
      21     1     1     2   512   513 -1.149808823E+01  1.202274860E+01 -2.823728649E+00  1.687382471E+01  3.195943026E-07  0.00000E+00  9.000E+00
      21     1     1     2   511   512  4.521668243E-01  1.078080174E+01 -4.219819082E+01  4.355591176E+01  4.768371582E-07  0.00000E+00  9.000E+00
</event>
<event>
      5  10001  3.52971E+09  7.25368E+00 -1.00000E+00  2.13386E-01
      21    -1     0     0   515   512  0.000000000E+00  0.000000000E+00  2.969400470E+00  2.969400470E+00  0.000000000E+00  0.00000E+00  9.000E+00
      21    -1     0     0   513   515  0.000000000E+00  0.000000000E+00 -1.973145141E+02  1.973145141E+02  0.000000000E+00  0.00000E+00  9.000E+00
      21     1     1     2   511   516  1.069963490E+01 -3.197551311E+00 -1.173202440E+02  1.178505247E+02  0.000000000E+00  0.00000E+00  9.000E+00
      21     1     1     2   516   512 -7.792485886E+00  9.843179001E+00 -1.327134545E+01  1.826854179E+01  5.331201500E-07  0.00000E+00  9.000E+00
      21     1     1     2   513   511 -2.907149015E+00 -6.645627689E+00 -6.375352421E+01  6.416484810E+01  9.536743164E-07  0.00000E+00  9.000E+00
</event>
<event>
      5  10001  3.52971E+09  7.97501E+00 -1.00000E+00  2.07843E-01
      21    -1     0     0   514   516  0.000000000E+00  0.000000000E+00  1.086829528E+01  1.086829528E+01  0.000000000E+00  0.00000E+00  9.000E+00
       2    -1     0     0   513     0  0.000000000E+00  0.000000000E+00 -9.084833988E+02  9.084833988E+02  0.000000000E+00  0.00000E+00  9.000E+00
      21     1     1     2   513   511  1.754963439E+01  1.066638093E+01 -8.562757867E+02  8.565220279E+02  0.000000000E+00  0.00000E+00  9.000E+00
      21     1     1     2   511   516 -1.000842317E+01 -8.072798459E+00  6.445094033E+00  1.438324881E+01  1.000932194E-06  0.00000E+00  9.000E+00
       2     1     1     2   514     0 -7.541211218E+00 -2.593582469E+00 -4.778441078E+01  4.844641731E+01  3.300000131E-01  0.00000E+00  9.000E+00
</event>
<event>
      5  10001  3.52971E+09  5.26111E+00 -1.00000E+00  2.34711E-01
       1    -1     0     0   511     0  0.000000000E+00  0.000000000E+00  1.298783471E+02  1.298783471E+02  0.000000000E+00  0.00000E+00  9.000E+00
      21    -1     0     0   513   514  0.000000000E+00  0.000000000E+00 -2.567576781E+00  2.567576781E+00  0.000000000E+00  0.00000E+00  9.000E+00
      21     1     1     2   511   514  1.256992652E+01  9.030847565E+00  4.895240300E+01  5.134098772E+01  0.000000000E+00  0.00000E+00  9.000E+00
       1     1     1     2   512     0 -7.374435671E+00 -8.206310961E+00  7.205195909E+01  7.289252053E+01  3.300000131E-01  0.00000E+00  9.000E+00
      21     1     1     2   513   512 -5.195490849E+00 -8.245366047E-01  6.306408248E+00  8.212415647E+00  1.460009660E-07  0.00000E+00  9.000E+00
</event>
<event>
      5  10001  3.52971E+09  1.06605E+01 -1.00000E+00  1.92595E-01
      21    -1     0     0   515   516  0.000000000E+00  0.000000000E+00  1.800409234E+01  1.800409234E+01  0.000000000E+00  0.00000E+00  9.000E+00
      21    -1     0     0   513   511  0.000000000E+00  0.000000000E+00 -3.255857574E+02  3.255857574E+02  0.000000000E+00  0.00000E+00  9.000E+00
      21     1     1     2   512   516 -6.257723607E+00 -6.362529939E+00  1.553778478E+01  1.791824902E+01  6.951036328E-07  0.00000E+00  9.000E+00
      21     1     1     2   513   512  1.690476290E+01  6.898821464E+00 -7.045516871E+01  7.278252224E+01  1.348699152E-06  0.00000E+00  9.000E+00
      21     1     1     2   515   511 -1.064703929E+01 -5.362915255E-01 -2.526642811E+02  2.528890784E+02  2.697398305E-06  0.00000E+00  9.000E+00
</event>
<event>
      5  10001  3.52971E+09  2.16873E+01 -1.00000E+00  1.63515E-01
      21    -1     0     0   514   513  0.000000000E+00  0.000000000E+00  2.201554869E+01  2.201554869E+01  0.000000000E+00  0.00000E+00  9.000E+00
      21    -1     0     0   517   514  0.000000000E+00  0.000000000E+00 -1.183422745E+01  1.183422745E+01  0.000000000E+00  0.00000E+00  9.000E+00
      21     1     1     2   517   511 -1.546088958E+00  7.139494310E+00  1.649166457E+00  7.488826348E+00  3.740161776E-07  0.00000E+00  9.000E+00
      21     1     1     2   511   512  7.437556086E+00 -5.387497697E+00  1.490489875E+01  1.750709510E+01  2.384185791E-07  0.00000E+00  9.000E+00
      21     1     1     2   512   513 -5.891467128E+00 -1.751996613E+00 -6.372743976E+00  8.853854688E+00  1.685873940E-07  0.00000E+00  9.000E+00
</event>
<event>
      5  10001  3.52971E+09  1.05339E+01 -1.00000E+00  1.93177E-01
      21    -1     0     0   514   513  0.000000000E+00  0.000000000E+00  3.011774045E+01  3.011774045E+01  0.000000000E+00  0.00000E+00  9.000E+00
       1    -1     0     0   511     0  0.000000000E+00  0.000000000E+00 -1.018558345E+02  1.018558345E+02  0.000000000E+00  0.00000E+00  9.000E+00
      21     1     1     2   511   513 -7.391517560E+00  4.503324835E+00 -8.245624748E+01  8.290927098E+01  9.536743164E-07  0.00000E+00  9.000E+00
       1     1     1     2   512     0  2.429049602E+00 -1.379475059E+01 -1.544929219E+01  2.085629294E+01  3.300000131E-01  0.00000E+00  9.000E+00
      21     1     1     2   514   512  4.962467958E+00  9.291425755E+00  2.616744558E+01  2.820801108E+01  6.743495762E-07  0.00000E+00  9.000E+00
</event>
<event>
      5  10001  3.52971E+09  1.11278E+01 -1.00000E+00  1.90536E-01
      21    -1     0     0   515   513  0.000000000E+00  0.000000000E+00  6.585266433E+00  6.585266433E+00  0.000000000E+00  0.00000E+00  9.000E+00
      21    -1     0     0   511   516  0.000000000E+00  0.000000000E+00 -7.760421889E+02  7.760421889E+02  0.000000000E+00  0.00000E+00  9.000E+00
      21     1     1     2   515   516  1.853416719E+01 -1.212572053E+01 -3.004694038E+02  3.012846014E+02  3.814697266E-06  0.00000E+00  9.000E+00
      21     1     1     2   511   512 -2.066908900E+01  1.204622037E+00 -4.697339697E+02  4.701900304E+02  7.629394531E-06  0.00000E+00  9.000E+00
      21     1     1     2   512   513  2.134921814E+00  1.092109849E+01  7.464510389E-01  1.115282352E+01  8.511289700E-07  0.00000E+00  9.000E+00
</event>
<event>
      5  10001  3.52971E+09  1.50884E+01 -1.00000E+00  1.77140E-01
      21    -1     0     0   514   512  0.000000000E+00  0.000000000E+00  4.430038163E+00  4.430038163E+00  0.000000000E+00  0.00000E+00  9.000E+00
      21    -1     0     0   513   514  0.000000000E+00  0.000000000E+00 -1.139354070E+03  1.139354070E+03  0.000000000E+00  0.00000E+00  9.000E+00
      21     1     1     2   511   512 -1.008234432E+01 -9.317236534E+00 -6.411588719E+00  1.515166768E+01  1.059555342E-06  0.00000E+00  9.000E+00
      21     1     1     2   515   511  6.007847397E+00  4.460190757E+00 -2.915979550E+02  2.916939405E+02  3.814697266E-06  0.00000E+00  9.000E+00
      21     1     1     2   513   515  4.074496926E+00  4.857045778E+00 -8.369144879E+02  8.369384999E+02  1.078959322E-05  0.00000E+00  9.000E+00
</event>
<event>
      5  10001  3.52971E+09  3.07542E+00 -1.00000E+00  2.93623E-01
      -4    -1     0     0     0   511  0.000000000E+00  0.000000000E+00  2.219111520E+01  2.219111520E+01  0.000000000E+00  0.00000E+00  9.000E+00
       2    -1     0     0   511     0  0.000000000E+00  0.000000000E+00 -6.740271488E+01  6.740271488E+01  0.000000000E+00  0.00000E+00  9.000E+00
      -4     1     1     2     0   513 -1.160252023E+01  5.590260225E+00  1.922731360E+01  2.319071093E+01  1.500000000E+00  0.00000E+00  9.000E+00
       2     1     1     2   512     0  8.382494899E+00 -5.898801491E+00 -6.021917952E+01  6.108617325E+01  3.300000131E-01  0.00000E+00  9.000E+00
      21     1     1     2   513   512  3.220025334E+00  3.085412662E-01 -4.219733759E+00  5.316945915E+00  5.960464478E-08  0.00000E+00  9.000E+00
</event>
<event>
      5  10001  3.52971E+09  1.82854E+01 -1.00000E+00  1.69643E-01
      21    -1     0     0   514   511  0.000000000E+00  0.000000000E+00  1.255236164E+02  1.255236164E+02  0.000000000E+00  0.00000E+00  9.000E+00
      -2    -1     0     0     0   516  0.000000000E+00  0.000000000E+00 -4.268635882E+02  4.268635882E+02  0.000000000E+00  0.00000E+00  9.000E+00
      -2     1     1     2     0   515 -1.088118683E+01  1.638304830E+01 -3.695537495E+02  3.700768666E+02  3.300000131E-01  0.00000E+00  9.000E+00
      21     1     1     2   515   511 -7.102068012E+00 -1.307282319E+01  1.233382373E+02  1.242322778E+02  1.907348633E-06  0.00000E+00  9.000E+00
      21     1     1     2   514   516  1.798325484E+01 -3.310225111E+00 -5.512445957E+01  5.807806030E+01  6.743495762E-07  0.00000E+00  9.000E+00
</event>
<event>
      5  10001  3.52971E+09  7.81961E+00 -1.00000E+00  2.08969E-01
       4    -1     0     0   514     0  0.000000000E+00  0.000000000E+00  1.019020911E+01  1.019020911E+01  0.000000000E+00  0.00000E+00  9.000E+00
      21    -1     0     0   512   513  0.000000000E+00  0.000000000E+00 -1.458165109E+01  1.458165109E+01  0.000000000E+00  0.00000E+00  9.000E+00
      21     1     1     2   514   513  9.431359642E+00  2.824519632E+00  1.373660763E+00  9.940593530E+00  2.053983324E-07  0.00000E+00  9.000E+00
       4     1     1     2   511     0 -4.353639074E+00 -4.933749946E+00 -6.394385605E+00  9.297001075E+00  1.500000000E+00  0.00000E+00  9.000E+00
      21     1     1     2   512   511 -5.077720568E+00  2.109230315E+00  6.292828616E-01  5.534265589E+00  5.819089469E-08  0.00000E+00  9.000E+00
</event>
<event>
      5  10001  3.52971E+09  7.41831E+00 -1.00000E+00  2.12046E-01
      21    -1     0     0   513   511  0.000000000E+00  0.000000000E+00  2.133278714E+01  2.133278714E+01  0.000000000E+00  0.00000E+00  9.000E+00
       1    -1     0     0   515     0  0.000000000E+00  0.000000000E+00 -3.371757945E+02  3.371757945E+02  0.000000000E+00  0.00000E+00  9.000E+00
      21     1     1     2   515   511 -1.619451657E+01  1.209938144E+01 -1.168481864E+02  1.185839621E+02  1.907348633E-06  0.00000E+00  9.000E+00
       1     1     1     2   512     0  1.798424257E+01 -1.929852091E+01 -2.179649168E+02  2.195556416E+02  3.300000131E-01  0.00000E+00  9.000E+00
      21     1     1     2   513   512 -1.789726003E+00  7.199139472E+00  1.897009584E+01  2.036897799E+01  1.369610464E-06  0.00000E+00  9.000E+00
</event>
<event>
      5  10001  3.52971E+09  1.78441E+01 -1.00000E+00  1.70559E-01
      21    -1     0     0   512   511  0.000000000E+00  0.000000000E+00  6.766051001E+01  6.766051001E+01  0.000000000E+00  0.00000E+00  9.000E+00
       2    -1     0     0   511     0  0.000000000E+00  0.000000000E+00 -3.145122851E+02  3.145122851E+02  0.000000000E+00  0.00000E+00  9.000E+00
      21     1     1     2   512   514 -1.436876570E+01 -1.055084362E+01  6.547905538E+01  6.786227540E+01  1.651812370E-06  0.00000E+00  9.000E+00
       2     1     1     2   515     0  1.003402990E+00  1.671776254E+01 -2.346673983E+02  2.352645046E+02  3.300000131E-01  0.00000E+00  9.000E+00
      21     1     1     2   514   515  1.336536271E+01 -6.166918919E+00 -7.766343215E+01  7.904601510E+01  9.536743164E-07  0.00000E+00  9.000E+00
</event>
<event>
      5  10001  3.52971E+09  1.06837E+01 -1.00000E+00  1.92490E-01
      21    -1     0     0   513   514  0.000000000E+00  0.000000000E+00  4.565082054E+02  4.565082054E+02  0.000000000E+00  0.00000E+00  9.000E+00
      21    -1     0     0   512   513  0.000000000E+00  0.000000000E+00 -8.557167767E+01  8.557167767E+01  0.000000000E+00  0.00000E+00  9.000E+00
      21     1     1     2   511   516 -1.232897621E+01 -1.083993631E+01 -8.209945007E+01  8.372471305E+01  3.015782986E-06  0.00000E+00  9.000E+00
      21     1     1     2   516   514  1.744702922E+00  1.229402978E+01  4.445181449E+02  4.446915429E+02  1.078959322E-05  0.00000E+00  9.000E+00
      21     1     1     2   512   511  1.058427329E+01 -1.454093467E+00  8.517832828E+00  1.366362708E+01  1.685873940E-07  0.00000E+00  9.000E+00
</event>
<event>
      5  10001  3.52971E+09  4.58104E+00 -1.00000E+00  2.50314E-01
      21    -1     0     0   511   513  0.000000000E+00  0.000000000E+00  2.168031970E+01  2.168031970E+01  0.000000000E+00  0.00000E+00  9.000E+00
      21    -1     0     0   516   511  0.000000000E+00  0.000000000E+00 -9.975460251E+01  9.975460251E+01  0.000000000E+00  0.00000E+00  9.000E+00
      21     1     1     2   516   515  1.470126096E+01 -3.948662666E+00 -9.497448603E+01  9.618665191E+01  0.000000000E+00  0.00000E+00  9.000E+00
       1     1     1     2   515     0 -1.014632065E+01  4.434789594E+00  4.380416454E+00  1.191268777E+01  3.300000131E-01  0.00000E+00  9.000E+00
      -1     1     1     2     0   513 -4.554940304E+00 -4.861269282E-01  1.251978676E+01  1.333558252E+01  3.300000131E-01  0.00000E+00  9.000E+00
</event>
<event>
      5  10001  3.52971E+09  3.82961E+00 -1.00000E+00  2.67997E-01
      21    -1     0     0   512   511  0.000000000E+00  0.000000000E+00  2.725632194E+01  2.725632194E+01  0.000000000E+00  0.00000E+00  9.000E+00
      21    -1     0     0   513   512  0.000000000E+00  0.000000000E+00 -8.544601767E+00  8.544601767E+00  0.000000000E+00  0.00000E+00  9.000E+00
      21     1     1     2   513   514 -6.249912940E+00 -8.251325240E+00 -5.455216648E-01  1.036548956E+01  6.322027277E-08  0.00000E+00  9.000E+00
      21     1     1     2   514   515  4.266440857E+00  1.152726555E+01  1.173191732E+01  1.699171129E+01  1.685873940E-07  0.00000E+00  9.000E+00
      21     1     1     2   515   511  1.983472082E+00 -3.275940314E+00  7.525324524E+00  8.443722854E+00  1.884864366E-07  0.00000E+00  9.000E+00
</event>
<event>
      5  10001  3.52971E+09  5.05820E+00 -1.00000E+00  2.37635E-01
      21    -1     0     0   512   511  0.000000000E+00  0.000000000E+00  1.699046200E-01  1.699046200E-01  0.000000000E+00  0.00000E+00  9.000E+00
       2    -1     0     0   513     0  0.000000000E+00  0.000000000E+00 -1.324583674E+03  1.324583674E+03  0.000000000E+00  0.00000E+00  9.000E+00
      -5     1     1     2     0   511 -1.134285861E+01  5.504028781E+00 -4.415921408E+02  4.417981594E+02  4.800000191E+00  0.00000E+00  9.000E+00
       5     1     1     2   513     0  6.757111744E+00 -6.655728348E+00 -6.070547180E+02  6.071477810E+02  4.800000191E+00  0.00000E+00  9.000E+00
       2     1     1     2   512     0  4.585746861E+00  1.151699568E+00 -2.757669100E+02  2.758076377E+02  3.300000131E-01  0.00000E+00  9.000E+00
</event>
<event>
      5  10001  3.52971E+09  6.07873E+00 -1.00000E+00  2.24590E-01
       2    -1     0     0   513     0  0.000000000E+00  0.000000000E+00  1.067645982E+02  1.067645982E+02  0.000000000E+00  0.00000E+00  9.000E+00
      21    -1     0     0   512   511  0.000000000E+00  0.000000000E+00 -2.986563180E+01  2.986563180E+01  0.000000000E+00  0.00000E+00  9.000E+00
      21     1     1     2   513   514  5.727455362E+00 -1.969331559E+01  1.927091495E+01  2.814246946E+01  2.384185791E-07  0.00000E+00  9.000E+00
       2     1     1     2   512     0 -3.660890016E+00  1.397672086E+01  8.205391092E+01  8.331688928E+01  3.300000131E-01  0.00000E+00  9.000E+00
      21     1     1     2   514   511 -2.066565346E+00  5.716594733E+00 -2.442585948E+01  2.517087124E+01  3.371747881E-07  0.00000E+00  9.000E+00
</event>
<event>
      5  10001  3.52971E+09  8.03856E+00 -1.00000E+00  2.07393E-01
      21    -1     0     0   515   511  0.000000000E+00  0.000000000E+00  3.044292541E+02  3.044292541E+02  0.000000000E+00  0.00000E+00  9.000E+00
      21    -1     0     0   514   512  0.000000000E+00  0.000000000E+00 -2.970356744E+01  2.970356744E+01  0.000000000E+00  0.00000E+00  9.000E+00
      21     1     1     2   515   516  1.079821097E+01 -3.357058759E+00  2.858234515E+02  2.860470532E+02  5.394796609E-06  0.00000E+00  9.000E+00
      21     1     1     2   514   511 -1.007422925E+01  1.136295477E+01  1.465720473E+01  2.110546106E+01  9.233911863E-07  0.00000E+00  9.000E+00
      21     1     1     2   516   512 -7.239817250E-01 -8.005896010E+00 -2.575496961E+01  2.698030726E+01  4.768371582E-07  0.00000E+00  9.000E+00
</event>
<event>
      5  10001  3.52971E+09  9.69735E+00 -1.00000E+00  1.97308E-01
      21    -1     0     0   513   512  0.000000000E+00  0.000000000E+00  3.033043646E+02  3.033043646E+02  0.000000000E+00  0.00000E+00  9.000E+00
      -5    -1     0     0     0   517  0.000000000E+00  0.000000000E+00 -2.939196602E+00  2.939196602E+00  0.000000000E+00  0.00000E+00  9.000E+00
      21     1     1     2   513   517  1.647400882E+01 -1.213241376E+01  1.861578780E+02  1.872787867E+02  3.814697266E-06  0.00000E+00  9.000E+00
      21     1     1     2   516   512 -8.149765882E+00  7.323499081E+00  1.024609410E+02  1.030451200E+02  0.000000000E+00  0.00000E+00  9.000E+00
      -5     1     1     2     0   516 -8.324242942E+00  4.808914684E+00  1.174634898E+01  1.591965443E+01  4.800000191E+00  0.00000E+00  9.000E+00
</event>
<event>
      5  10001  3.52971E+09  1.93728E+01 -1.00000E+00  1.67516E-01
      21    -1     0     0   514   512  0.000000000E+00  0.000000000E+00  3.899310627E-01  3.899310627E-01  0.000000000E+00  0.00000E+00  9.000E+00
       2    -1     0     0   512     0  0.000000000E+00  0.000000000E+00 -8.329770960E+02  8.329770960E+02  0.000000000E+00  0.00000E+00  9.000E+00
      21     1     1     2   514   513  8.289624090E+00 -3.162962925E+00 -2.411455691E+02  2.413087394E+02  3.814697266E-06  0.00000E+00  9.000E+00
       2     1     1     2   511     0 -1.121540080E+01 -8.667296844E+00 -3.814183804E+02  3.816818008E+02  3.300000131E-01  0.00000E+00  9.000E+00
      21     1     1     2   513   511  2.925776715E+00  1.183025977E+01 -2.100232154E+02  2.103764869E+02  3.814697266E-06  0.00000E+00  9.000E+00
</event>
<event>
      5  10001 -3.52971E+09  1.70722E+01 -1.00000E+00  1.72244E-01
      21    -1     0     0   515   511  0.000000000E+00  0.000000000E+00  2.218403693E+01  2.218403693E+01  0.000000000E+00  0.00000E+00  9.000E+00
      21    -1     0     0   512   516  0.000000000E+00  0.000000000E+00 -4.472928068E+02  4.472928068E+02  0.000000000E+00  0.00000E+00  9.000E+00
      21     1     1     2   515   516 -9.516784082E+00  6.347717181E+00  1.878757358E+01  2.199626363E+01  1.261592536E-06  0.00000E+00  9.000E+00
      21     1     1     2   512   514  4.466113967E+00 -2.203503848E+00 -4.396727602E+02  4.397009639E+02  5.394796609E-06  0.00000E+00  9.000E+00
      21     1     1     2   514   511  5.050670115E+00 -4.144213333E+00 -4.223583277E+00  7.779616215E+00  1.192092896E-07  0.00000E+00  9.000E+00
</event>
<event>
      5  10001  3.52971E+09  1.03455E+01 -1.00000E+00  1.94062E-01
      21    -1     0     0   513   512  0.000000000E+00  0.000000000E+00  9.770048503E+01  9.770048503E+01  0.000000000E+00  0.00000E+00  9.000E+00
      21    -1     0     0   517   511  0.000000000E+00  0.000000000E+00 -4.328012753E+01  4.328012753E+01  0.000000000E+00  0.00000E+00  9.000E+00
      21     1     1     2   513   511 -1.130291494E+01  2.885803734E+00 -4.197623814E+01  4.356705542E+01  4.768371582E-07  0.00000E+00  9.000E+00
      21     1     1     2   515   512  7.310263159E+00  8.095719905E-01  3.433250611E+01  3.511148430E+01  6.743495762E-07  0.00000E+00  9.000E+00
      21     1     1     2   517   515  3.992651782E+00 -3.695375724E+00  6.206408953E+01  6.230207284E+01  6.743495762E-07  0.00000E+00  9.000E+00
</event>
<event>
      5  10001  3.52971E+09  5.23125E+00 -1.00000E+00  2.35129E-01
      21    -1     0     0   514   511  0.000000000E+00  0.000000000E+00  1.756568135E+00  1.756568135E+00  0.000000000E+00  0.00000E+00  9.000E+00
      21    -1     0     0   516   514  0.000000000E+00  0.000000000E+00 -1.036799488E+02  1.036799488E+02  0.000000000E+00  0.00000E+00  9.000E+00
      21     1     1     2   516   517 -2.550719164E+00  1.031369221E+01 -7.440225714E+01  7.515699756E+01  1.348699152E-06  0.00000E+00  9.000E+00
       2     1     1     2   517     0 -7.839803640E-02 -5.669965362E+00 -6.703923866E+00  8.786702947E+00  3.300000131E-01  0.00000E+00  9.000E+00
      -2     1     1     2     0   511  2.629117200E+00 -4.643726845E+00 -2.081719969E+01  2.149281646E+01  3.300000131E-01  0.00000E+00  9.000E+00
</event>
<event>
      5  10001  3.52971E+09  7.50185E+00 -1.00000E+00  2.11384E-01
      21    -1     0     0   512   514  0.000000000E+00  0.000000000E+00  4.198861391E+01  4.198861391E+01  0.000000000E+00  0.00000E+00  9.000E+00
      21    -1     0     0   511   512  0.000000000E+00  0.000000000E+00 -2.142917264E+02  2.142917264E+02  0.000000000E+00  0.00000E+00  9.000E+00
      21     1     1     2   513   515 -7.087460831E+00 -1.464359406E+01  3.796963445E+01  4.130811166E+01  2.023048729E-06  0.00000E+00  9.000E+00
      21     1     1     2   511   513  3.570534820E-01  1.795710068E+01 -2.050412833E+02  2.058264143E+02  4.672030912E-06  0.00000E+00  9.000E+00
      21     1     1     2   515   514  6.730407349E+00 -3.313506621E+00 -5.231463667E+00  9.145814415E+00  1.332800375E-07  0.00000E+00  9.000E+00
</event>
<event>
      5  10001  3.52971E+09  6.21600E+00 -1.00000E+00  2.23106E-01
      21    -1     0     0   512   511  0.000000000E+00  0.000000000E+00  2.999577864E+01  2.999577864E+01  0.000000000E+00  0.00000E+00  9.000E+00
      -4    -1     0     0     0   516  0.000000000E+00  0.000000000E+00 -4.032967912E+01  4.032967912E+01  0.000000000E+00  0.00000E+00  9.000E+00
      -4     1     1     2     0   511 -1.522922447E+01 -7.361628834E+00 -1.228608831E+01  2.095998146E+01  1.500000000E+00  0.00000E+00  9.000E+00
      21     1     1     2   513   516  9.613892062E+00  1.001532238E+01 -2.122971239E+01  2.536600660E+01  6.307962682E-07  0.00000E+00  9.000E+00
      21     1     1     2   512   513  5.615332405E+00 -2.653693545E+00  2.318190023E+01  2.399946969E+01  0.000000000E+00  0.00000E+00  9.000E+00
</event>
<event>
      5  10001  3.52971E+09  4.69984E+00 -1.00000E+00  2.47985E-01
      -4    -1     0     0     0   514  0.000000000E+00  0.000000000E+00  5.007512838E+01  5.007512838E+01  0.000000000E+00  0.00000E+00  9.000E+00
      21    -1     0     0   512   513  0.000000000E+00  0.000000000E+00 -5.211293434E+00  5.211293434E+00  0.000000000E+00  0.00000E+00  9.000E+00
      21     1     1     2   511   513 -9.830174070E-01 -1.255120016E+00  4.868629878E+00  5.123007551E+00  0.000000000E+00  0.00000E+00  9.000E+00
      21     1     1     2   512   514  9.100733474E+00  6.029791517E+00  2.139151698E+00  1.112464406E+01  2.493441184E-07  0.00000E+00  9.000E+00
      -4     1     1     2     0   511 -8.117716067E+00 -4.774671501E+00  3.785605338E+01  3.903877021E+01  1.500000000E+00  0.00000E+00  9.000E+00
</event>
<event>
      5  10001  3.52971E+09  6.10199E+00 -1.00000E+00  2.24335E-01
      21    -1     0     0   515   513  0.000000000E+00  0.000000000E+00  6.134611733E+00  6.134611733E+00  0.000000000E+00  0.00000E+00  9.000E+00
      21    -1     0     0   516   511  0.000000000E+00  0.000000000E+00 -8.838156799E+01  8.838156799E+01  0.000000000E+00  0.00000E+00  9.000E+00
      21     1     1     2   515   511  1.282350285E+01  1.907391685E+00 -6.866488288E+01  6.987808318E+01  1.348699152E-06  0.00000E+00  9.000E+00
      21     1     1     2   516   512 -9.471562607E+00 -7.006293325E+00 -1.426154999E+01  1.849839054E+01  4.129530925E-07  0.00000E+00  9.000E+00
      21     1     1     2   512   513 -3.351940239E+00  5.098901640E+00  6.794766172E-01  6.139706000E+00  1.168577905E-07  0.00000E+00  9.000E+00
</event>
<event>
      5  10001  3.52971E+09  5.16398E+00 -1.00000E+00  2.36086E-01
      21    -1     0     0   512   513  0.000000000E+00  0.000000000E+00  4.668277444E+01  4.668277444E+01  0.000000000E+00  0.00000E+00  9.000E+00
      -1    -1     0     0     0   514  0.000000000E+00  0.000000000E+00 -5.951380653E+00  5.951380653E+00  0.000000000E+00  0.00000E+00  9.000E+00
      -1     1     1     2     0   513  5.113738095E+00  1.201914296E+01  6.021045869E+00  1.438652176E+01  3.300000131E-01  0.00000E+00  9.000E+00
       2     1     1     2   512     0 -9.787438754E-01 -1.153611105E+01  2.850140422E+01  3.076489460E+01  3.300000131E-01  0.00000E+00  9.000E+00
      -2     1     1     2     0   514 -4.134994220E+00 -4.830319149E-01  6.208943696E+00  7.482738728E+00  3.300000131E-01  0.00000E+00  9.000E+00
</event>
<event>
      5  10001  3.52971E+09  4.50043E+00 -1.00000E+00  2.51955E-01
      -1    -1     0     0     0   513  0.000000000E+00  0.000000000E+00  1.367517052E+00  1.367517052E+00  0.000000000E+00  0.00000E+00  9.000E+00
      21    -1     0     0   515   512  0.000000000E+00  0.000000000E+00 -1.259741063E+03  1.259741063E+03  0.000000000E+00  0.00000E+00  9.000E+00
      -1     1     1     2     0   512 -6.930013364E+00 -1.017220020E+01 -3.105943124E+01  3.341101482E+01  3.300000131E-01  0.00000E+00  9.000E+00
      21     1     1     2   515   511  2.574064903E+00  9.041325296E+00 -1.198268506E+03  1.198305380E+03  2.157918644E-05  0.00000E+00  9.000E+00
      21     1     1     2   511   513  4.355948461E+00  1.130874906E+00 -2.904560883E+01  2.939218531E+01  8.259061849E-07  0.00000E+00  9.000E+00
</event>
<event>
      5  10001  3.52971E+09  6.00796E+00 -1.00000E+00  2.25376E-01
      21    -1     0     0   514   512  0.000000000E+00  0.000000000E+00  4.463343032E+01  4.463343032E+01  0.000000000E+00  0.00000E+00  9.000E+00
      21    -1     0     0   516   513  0.000000000E+00  0.000000000E+00 -4.930617212E+01  4.930617212E+01  0.000000000E+00  0.00000E+00  9.000E+00
      21     1     1     2   514   513 -7.324049483E+00  6.492991257E+00  4.100053116E+01  4.215262971E+01  4.768371582E-07  0.00000E+00  9.000E+00
      21     1     1     2   515   512  5.031316421E+00 -6.145930790E+00 -4.791074032E+01  4.856465431E+01  9.536743164E-07  0.00000E+00  9.000E+00
      21     1     1     2   516   515  2.292733061E+00 -3.470604669E-01  2.237467358E+00  3.222318426E+00  5.960464478E-08  0.00000E+00  9.000E+00
</event>
<event>
      5  10001  3.52971E+09  5.89477E+00 -1.00000E+00  2.26666E-01
      21    -1     0     0   511   513  0.000000000E+00  0.000000000E+00  4.964687779E+02  4.964687779E+02  0.000000000E+00  0.00000E+00  9.000E+00
      21    -1     0     0   516   517  0.000000000E+00  0.000000000E+00 -1.043252844E+01  1.043252844E+01  0.000000000E+00  0.00000E+00  9.000E+00
      21     1     1     2   511   517 -8.608731477E+00 -8.247201597E+00 -6.638957796E+00  1.364559828E+01  1.377370359E-06  0.00000E+00  9.000E+00
      21     1     1     2   512   513  8.942893715E+00  3.207786239E+00  4.665542359E+02  4.666509619E+02  5.394796609E-06  0.00000E+00  9.000E+00
      21     1     1     2   516   512 -3.341622377E-01  5.039415357E+00  2.612097142E+01  2.660474618E+01  4.768371582E-07  0.00000E+00  9.000E+00
</event>
<event>
      5  10001  3.52971E+09  8.05763E+00 -1.00000E+00  2.07259E-01
       1    -1     0     0   511     0  0.000000000E+00  0.000000000E+00  9.620622313E+02  9.620622313E+02  0.000000000E+00  0.00000E+00  9.000E+00
      21    -1     0     0   512   513  0.000000000E+00  0.000000000E+00 -6.190602204E+00  6.190602204E+00  0.000000000E+00  0.00000E+00  9.000E+00
      21     1     1     2   512   514 -1.073997211E+01 -1.270153952E+01  1.211671579E+02  1.223035415E+02  3.568322551E-06  0.00000E+00  9.000E+00
       1     1     1     2   514     0  1.402563643E+01  5.344291955E+00  8.373377553E+02  8.374723311E+02  3.300000131E-01  0.00000E+00  9.000E+00
      21     1     1     2   511   513 -3.285664326E+00  7.357247567E+00 -2.633284109E+00  8.476960955E+00  5.179091453E-07  0.00000E+00  9.000E+00
</event>
<event>
      5  10001  3.52971E+09  1.06271E+01 -1.00000E+00  1.92748E-01
      -3    -1     0     0     0   512  0.000000000E+00  0.000000000E+00  1.820499158E+01  1.820499158E+01  0.000000000E+00  0.00000E+00  9.000E+00
       1    -1     0     0   512     0  0.000000000E+00  0.000000000E+00 -1.191810596E+02  1.191810596E+02  0.000000000E+00  0.00000E+00  9.000E+00
      -3     1     1     2     0   511 -9.562424991E+00 -1.918523600E+00  1.565792942E+01  1.845376542E+01  5.000000000E-01  0.00000E+00  9.000E+00
       1     1     1     2   514     0  6.642237613E+00 -6.062798889E+00 -9.844775304E+01  9.885821074E+01  3.300000131E-01  0.00000E+00  9.000E+00
      21     1     1     2   511   514  2.920187377E+00  7.981322488E+00 -1.818624442E+01  2.007407505E+01  2.384185791E-07  0.00000E+00  9.000E+00
</event>
<event>
      5  10001  3.52971E+09  7.91045E+00 -1.00000E+00  2.08307E-01
       1    -1     0     0   511     0  0.000000000E+00  0.000000000E+00  4.726270838E+02  4.726270838E+02  0.000000000E+00  0.00000E+00  9.000E+00
       2    -1     0     0   512     0  0.000000000E+00  0.000000000E+00 -2.430712583E+02  2.430712583E+02  0.000000000E+00  0.00000E+00  9.000E+00
      21     1     1     2   511   513  1.754724033E+00 -1.508416702E+01  7.961127166E+00  1.714615691E+01  1.000932194E-06  0.00000E+00  9.000E+00
       2     1     1     2   513     0 -9.266890536E-01  7.217179080E+00 -2.383890509E+02  2.385003038E+02  3.300000131E-01  0.00000E+00  9.000E+00
       1     1     1     2   512     0 -8.280349791E-01  7.866987943E+00  4.599837492E+02  4.600518814E+02  3.300000131E-01  0.00000E+00  9.000E+00
</event>
<event>
      5  10001  3.52971E+09  1.12234E+01 -1.00000E+00  1.90132E-01
      21    -1     0     0   514   513  0.000000000E+00  0.000000000E+00  1.316752838E+01  1.316752838E+01  0.000000000E+00  0.00000E+00  9.000E+00
      21    -1     0     0   512   515  0.000000000E+00  0.000000000E+00 -1.408015744E+01  1.408015744E+01  0.000000000E+00  0.00000E+00  9.000E+00
      21     1     1     2   514   515 -4.521673627E+00 -6.611131134E+00 -6.709118532E+00  1.044819883E+01  8.429369702E-08  0.00000E+00  9.000E+00
      21     1     1     2   512   511 -2.538681045E-01  2.894862840E+00  9.343777771E+00  9.785236988E+00  1.192092896E-07  0.00000E+00  9.000E+00
      21     1     1     2   511   513  4.775541731E+00  3.716268294E+00 -3.547288299E+00  7.014250006E+00  1.032382731E-07  0.00000E+00  9.000E+00
</event>
<event>
      5  10001  3.52971E+09  1.91554E+01 -1.00000E+00  1.67927E-01
       1    -1     0     0   512     0  0.000000000E+00  0.000000000E+00  5.159025155E+02  5.159025155E+02  0.000000000E+00  0.00000E+00  9.000E+00
      21    -1     0     0   514   516  0.000000000E+00  0.000000000E+00 -5.510137340E+01  5.510137340E+01  0.000000000E+00  0.00000E+00  9.000E+00
      21     1     1     2   512   516  8.227605786E+00  4.460572956E+00  5.695886392E+00  1.095597234E+01  1.137184145E-06  0.00000E+00  9.000E+00
       1     1     1     2   511     0 -2.544646701E+01 -1.285339027E+01  5.054131155E+02  5.062166123E+02  3.300000131E-01  0.00000E+00  9.000E+00
      21     1     1     2   514   511  1.721886122E+01  8.392817317E+00 -5.030785979E+01  5.383130429E+01  1.651812370E-06  0.00000E+00  9.000E+00
</event>
<event>
      5  10001  3.52971E+09  4.26084E+01 -1.00000E+00  1.43157E-01
      21    -1     0     0   513   511  0.000000000E+00  0.000000000E+00  9.480683156E+01  9.480683156E+01  0.000000000E+00  0.00000E+00  9.000E+00
      21    -1     0     0   514   515  0.000000000E+00  0.000000000E+00 -3.066986528E+01  3.066986528E+01  0.000000000E+00  0.00000E+00  9.000E+00
      21     1     1     2   513   515  9.832140810E+00 -1.726041637E+01 -2.464743492E+01  3.165578958E+01  8.259061849E-07  0.00000E+00  9.000E+00
      21     1     1     2   514   512 -1.047688760E+01  3.961064711E+00  1.434389885E+01  1.819897365E+01  2.920019320E-07  0.00000E+00  9.000E+00
      21     1     1     2   512   511  6.447467920E-01  1.329935165E+01  7.444050235E+01  7.562193361E+01  0.000000000E+00  0.00000E+00  9.000E+00
</event>
<event>
      5  10001  3.52971E+09  7.61553E+00 -1.00000E+00  2.10502E-01
      21    -1     0     0   516   514  0.000000000E+00  0.000000000E+00  1.932415234E+02  1.932415234E+02  0.000000000E+00  0.00000E+00  9.000E+00
      21    -1     0     0   517   511  0.000000000E+00  0.000000000E+00 -6.694202583E-01  6.694202583E-01  0.000000000E+00  0.00000E+00  9.000E+00
      21     1     1     2   516   511 -1.112287502E+00 -7.404078014E+00  1.035362418E+02  1.038066034E+02  1.348699152E-06  0.00000E+00  9.000E+00
      21     1     1     2   517   513  5.372885737E+00  7.801212976E+00  5.654670455E+01  5.733460230E+01  6.743495762E-07  0.00000E+00  9.000E+00
      21     1     1     2   513   514 -4.260598236E+00 -3.971349622E-01  3.248915688E+01  3.276973800E+01  6.743495762E-07  0.00000E+00  9.000E+00
</event>
<event>
      5  10001  3.52971E+09  4.93625E+00 -1.00000E+00  2.43647E-01
      21    -1     0     0   512   511  0.000000000E+00  0.000000000E+00  2.014374644E+01  2.014374644E+01  0.000000000E+00  0.00000E+00  9.000E+00
      21    -1     0     0   515   514  0.000000000E+00  0.000000000E+00 -7.363915587E+00  7.363915587E+00  0.000000000E+00  0.00000E+00  9.000E+00
      21     1     1     2   512   514  1.096354841E+01  3.819298985E+00  4.079278895E+00  1.230556601E+01  2.665600750E-07  0.00000E+00  9.000E+00
       3     1     1     2   515     0 -5.507627716E+00 -5.324189879E-01  1.901690329E+00  5.872295901E+00  5.000000000E-01  0.00000E+00  9.000E+00
      -3     1     1     2     0   511 -5.455920695E+00 -3.286879997E+00  6.798861626E+00  9.329800113E+00  5.000000000E-01  0.00000E+00  9.000E+00
</event>
<event>
      5  10001  3.52971E+09  1.78993E+01 -1.00000E+00  1.70443E-01
      21    -1     0     0   513   516  0.000000000E+00  0.000000000E+00  2.697904802E+00  2.697904802E+00  0.000000000E+00  0.00000E+00  9.000E+00
      21    -1     0     0   511   513  0.000000000E+00  0.000000000E+00 -1.344778949E+02  1.344778949E+02  0.000000000E+00  0.00000E+00  9.000E+00
      21     1     1     2   515   516 -2.039044653E+00 -9.081653825E+00 -7.229513129E+00  1.178558439E+01  3.674277069E-07  0.00000E+00  9.000E+00
      21     1     1     2   511   512  3.503968035E+00  4.507264709E+00 -2.204444838E+01  2.277171341E+01  2.384185791E-07  0.00000E+00  9.000E+00
      21     1     1     2   512   515 -1.464923382E+00  4.574389116E+00 -1.025060286E+02  1.026185019E+02  1.348699152E-06  0.00000E+00  9.000E+00
</event>
<event>
      5  10001  3.52971E+09  7.45116E+00 -1.00000E+00  2.11784E-01
      21    -1     0     0   514   511  0.000000000E+00  0.000000000E+00  5.977624608E+01  5.977624608E+01  0.000000000E+00  0.00000E+00  9.000E+00
      21    -1     0     0   517   514  0.000000000E+00  0.000000000E+00 -2.158139125E+01  2.158139125E+01  0.000000000E+00  0.00000E+00  9.000E+00
      21     1     1     2   517   515 -9.594110064E+00  2.704538732E+00 -1.905863616E+01  2.150797735E+01  7.907449699E-07  0.00000E+00  9.000E+00
       2     1     1     2   515     0  3.326662353E+00 -5.123812916E+00  4.811635239E+01  4.850373602E+01  3.300000131E-01  0.00000E+00  9.000E+00
      -2     1     1     2     0   511  6.267447711E+00  2.419274184E+00  9.137138602E+00  1.134592395E+01  3.300000131E-01  0.00000E+00  9.000E+00
</event>
<event>
      5  10001  3.52971E+09  1.93579E+01 -1.00000E+00  1.67543E-01
      21    -1     0     0   513   511  0.000000000E+00  0.000000000E+00  3.586261659E+02  3.586261659E+02  0.000000000E+00  0.00000E+00  9.000E+00
      -2    -1     0     0     0   512  0.000000000E+00  0.000000000E+00 -1.224440720E+01  1.224440720E+01  0.000000000E+00  0.00000E+00  9.000E+00
      -2     1     1     2     0   514 -9.233642189E+00  1.978712835E+00 -3.134731709E+00  9.955445518E+00  3.300000131E-01  0.00000E+00  9.000E+00
      21     1     1     2   513   512  1.199679927E+01 -2.142977564E+01  3.363940194E+02  3.372893339E+02  3.814697266E-06  0.00000E+00  9.000E+00
      21     1     1     2   514   511 -2.763157078E+00  1.945106281E+01  1.312247101E+01  2.362579367E+01  5.591411304E-07  0.00000E+00  9.000E+00
</event>
<event>
      5  10001  3.52971E+09  8.17945E+00 -1.00000E+00  2.06414E-01
      21    -1     0     0   515   512  0.000000000E+00  0.000000000E+00  7.057677620E+01  7.057677620E+01  0.000000000E+00  0.00000E+00  9.000E+00
      21    -1     0     0   514   511  0.000000000E+00  0.000000000E+00 -1.602175776E+02  1.602175776E+02  0.000000000E+00  0.00000E+00  9.000E+00
      21     1     1     2   515   511 -7.205610090E+00  9.541963112E+00 -1.479378049E+02  1.484202277E+02  1.907348633E-06  0.00000E+00  9.000E+00
      21     1     1     2   514   516 -9.616634503E-01 -9.988053610E+00 -9.658931882E+00  1.392770536E+01  5.840038640E-07  0.00000E+00  9.000E+00
      21     1     1     2   516   512  8.167273541E+00  4.460904988E-01  6.795593539E+01  6.844642071E+01  1.348699152E-06  0.00000E+00  9.000E+00
</event>
<event>
      5  10001  3.52971E+09  9.88752E+00 -1.00000E+00  1.96322E-01
      21    -1     0     0   513   514  0.000000000E+00  0.000000000E+00  4.162479904E+00  4.162479904E+00  0.000000000E+00  0.00000E+00  9.000E+00
      21    -1     0     0   517   512  0.000000000E+00  0.000000000E+00 -1.347658263E+02  1.347658263E+02  0.000000000E+00  0.00000E+00  9.000E+00
      21     1     1     2   513   512  1.428597100E+01  1.895278671E+00 -6.823744937E+01  6.974260209E+01  1.348699152E-06  0.00000E+00  9.000E+00
      21     1     1     2   517   511 -1.133038687E+01 -1.133072351E+01 -5.369432530E+01  5.603430674E+01  6.743495762E-07  0.00000E+00  9.000E+00
      21     1     1     2   511   514 -2.955584132E+00  9.435444834E+00 -8.671571697E+00  1.315139736E+01  2.665600750E-07  0.00000E+00  9.000E+00
</event>
<event>
      5  10001  3.52971E+09  1.45417E+01 -1.00000E+00  1.78659E-01
      21    -1     0     0   515   512  0.000000000E+00  0.000000000E+00  2.006449404E+02  2.006449404E+02  0.000000000E+00  0.00000E+00  9.000E+00
      21    -1     0     0   513   514  0.000000000E+00  0.000000000E+00 -8.918032034E+02  8.918032034E+02  0.000000000E+00  0.00000E+00  9.000E+00
      21     1     1     2   515   514 -1.330594765E+01 -1.375726589E+01  7.874754963E+01  8.104003443E+01  9.536743164E-07  0.00000E+00  9.000E+00
      21     1     1     2   516   512  2.680799820E+01  1.915687960E+01  1.184428234E+02  1.229404621E+02  1.348699152E-06  0.00000E+00  9.000E+00
      21     1     1     2   513   516 -1.350205055E+01 -5.399613712E+00 -8.883486361E+02  8.884676473E+02  0.000000000E+00  0.00000E+00  9.000E+00
</event>
<event>
      5  10001  3.52971E+09  5.81704E+00 -1.00000E+00  2.27575E-01
      21    -1     0     0   511   514  0.000000000E+00  0.000000000E+00  1.794923699E+02  1.794923699E+02  0.000000000E+00  0.00000E+00  9.000E+00
      21    -1     0     0   513   512  0.000000000E+00  0.000000000E+00 -1.092289270E+02  1.092289270E+02  0.000000000E+00  0.00000E+00  9.000E+00
      21     1     1     2   513   517  1.037535093E+01  9.215896678E+00 -1.104470518E+01  1.773601339E+01  9.078709013E-07  0.00000E+00  9.000E+00
      21     1     1     2   517   514 -4.881665550E+00 -1.112831764E+01  1.758476290E+02  1.762670098E+02  3.303624740E-06  0.00000E+00  9.000E+00
      21     1     1     2   511   512 -5.493685381E+00  1.912420964E+00 -9.453948085E+01  9.471827370E+01  1.348699152E-06  0.00000E+00  9.000E+00
</event>
<event>
      5  10001  3.52971E+09  7.82184E+00 -1.00000E+00  2.08952E-01
      21    -1     0     0   515   513  0.000000000E+00  0.000000000E+00  1.426419443E+01  1.426419443E+01  0.000000000E+00  0.00000E+00  9.000E+00
      21    -1     0     0   516   515  0.000000000E+00  0.000000000E+00 -2.031513218E+02  2.031513218E+02  0.000000000E+00  0.00000E+00  9.000E+00
      21     1     1     2   512   513  2.889689073E+01  6.726456737E+00 -3.900097948E+00  2.992467674E+01  4.420398764E-07  0.00000E+00  9.000E+00
      21     1     1     2   514   512 -1.348185592E+01  4.802159124E-01 -8.607866994E+01  8.712937774E+01  1.348699152E-06  0.00000E+00  9.000E+00
      21     1     1     2   516   514 -1.541503481E+01 -7.206672649E+00 -9.890835945E+01  1.003614617E+02  1.348699152E-06  0.00000E+00  9.000E+00
</event>
<event>
      5  10001  3.52971E+09  2.14028E+01 -1.00000E+00  1.63973E-01
      -3    -1     0     0     0   511  0.000000000E+00  0.000000000E+00  6.285735846E+00  6.285735846E+00  0.000000000E+00  0.00000E+00  9.000E+00
       3    -1     0     0   511     0  0.000000000E+00  0.000000000E+00 -1.047751517E+02  1.047751517E+02  0.000000000E+00  0.00000E+00  9.000E+00
      21     1     1     2   513   512  2.484890638E+00 -2.969680731E+00 -4.495690347E+00  5.933373140E+00  1.032382731E-07  0.00000E+00  9.000E+00
       3     1     1     2   512     0 -4.228865981E-01  9.987188919E+00 -9.677147281E+01  9.728766996E+01  5.000000000E-01  0.00000E+00  9.000E+00
      -3     1     1     2     0   513 -2.062004039E+00 -7.017508188E+00  2.777747260E+00  7.839844492E+00  5.000000000E-01  0.00000E+00  9.000E+00
</event>
<event>
      5  10001  3.52971E+09  7.83564E+00 -1.00000E+00  2.08851E-01
      21    -1     0     0   514   512  0.000000000E+00  0.000000000E+00  5.261862463E+00  5.261862463E+00  0.000000000E+00  0.00000E+00  9.000E+00
      21    -1     0     0   511   513  0.000000000E+00  0.000000000E+00 -2.245792564E+01  2.245792564E+01  0.000000000E+00  0.00000E+00  9.000E+00
      21     1     1     2   514   513 -6.064857730E+00  6.421492869E+00 -3.253621364E+00  9.412976253E+00  1.397852826E-07  0.00000E+00  9.000E+00
      21     1     1     2   511   515  3.502134186E+00 -1.168408623E+00 -1.130846702E+01  1.189586268E+01  2.064765462E-07  0.00000E+00  9.000E+00
      21     1     1     2   515   512  2.562723544E+00 -5.253084246E+00 -2.633974794E+00  6.410949171E+00  1.397852826E-07  0.00000E+00  9.000E+00
</event>
<event>
      5  10001  3.52971E+09  2.84729E+00 -1.00000E+00  3.03916E-01
      21    -1     0     0   511   513  0.000000000E+00  0.000000000E+00  1.292217759E+03  1.292217759E+03  0.000000000E+00  0.00000E+00  9.000E+00
       2    -1     0     0   512     0  0.000000000E+00  0.000000000E+00 -4.333304382E+01  4.333304382E+01  0.000000000E+00  0.00000E+00  9.000E+00
      21     1     1     2   511   515 -1.124526228E+01 -1.168718216E+01  1.754882732E+01  2.389576303E+01  3.371747881E-07  0.00000E+00  9.000E+00
       2     1     1     2   515     0  8.420181915E+00  1.204213423E+01 -3.881315815E+01  4.150280239E+01  3.300000131E-01  0.00000E+00  9.000E+00
      21     1     1     2   512   513  2.825080370E+00 -3.549520714E-01  1.270149046E+03  1.270152238E+03  3.051757813E-05  0.00000E+00  9.000E+00
</event>
<event>
      5  10001  3.52971E+09  7.24123E+00 -1.00000E+00  2.13489E-01
      -5    -1     0     0     0   513  0.000000000E+00  0.000000000E+00  7.392508832E+00  7.392508832E+00  0.000000000E+00  0.00000E+00  9.000E+00
      21    -1     0     0   511   514  0.000000000E+00  0.000000000E+00 -3.401665945E+01  3.401665945E+01  0.000000000E+00  0.00000E+00  9.000E+00
      -5     1     1     2     0   514 -1.014157056E+01 -1.858700002E+00  7.435958487E-01  1.139733108E+01  4.800000191E+00  0.00000E+00  9.000E+00
      21     1     1     2   515   513  6.528064281E+00  2.900903208E+00 -1.030078882E+01  1.253543430E+01  0.000000000E+00  0.00000E+00  9.000E+00
      21     1     1     2   511   515  3.613506282E+00 -1.042203205E+00 -1.706695764E+01  1.747640290E+01  0.000000000E+00  0.00000E+00  9.000E+00
</event>
<event>
      5  10001  3.52971E+09  1.94572E+01 -1.00000E+00  1.67358E-01
      21    -1     0     0   512   514  0.000000000E+00  0.000000000E+00  1.544765608E+01  1.544765608E+01  0.000000000E+00  0.00000E+00  9.000E+00
      21    -1     0     0   511   516  0.000000000E+00  0.000000000E+00 -8.446826792E+01  8.446826792E+01  0.000000000E+00  0.00000E+00  9.000E+00
      21     1     1     2   512   516 -1.402448994E+01 -2.181513352E+01 -1.416359563E-01  2.593465692E+01  6.996259821E-07  0.00000E+00  9.000E+00
      21     1     1     2   513   514 -5.610182035E-01  2.520466161E+00 -9.997083412E+00  1.032517156E+01  1.192092896E-07  0.00000E+00  9.000E+00
      21     1     1     2   511   513  1.458550814E+01  1.929466736E+01 -5.888189247E+01  6.365609552E+01  0.000000000E+00  0.00000E+00  9.000E+00
</event>
<event>
      5  10001  3.52971E+09  8.94337E+00 -1.00000E+00  2.01531E-01
      21    -1     0     0   515   513  0.000000000E+00  0.000000000E+00  5.026571324E+02  5.026571324E+02  0.000000000E+00  0.00000E+00  9.000E+00
      21    -1     0     0   513   514  0.000000000E+00  0.000000000E+00 -1.979370384E+00  1.979370384E+00  0.000000000E+00  0.00000E+00  9.000E+00
      -4     1     1     2     0   512 -1.278208498E+01 -9.489020642E+00  9.656987326E+01  9.788469559E+01  1.500000000E+00  0.00000E+00  9.000E+00
       4     1     1     2   515     0  8.527603637E+00  1.640577548E+00  3.897177924E+02  3.898174178E+02  1.500000000E+00  0.00000E+00  9.000E+00
      21     1     1     2   512   514  4.254481340E+00  7.848443093E+00  1.439009633E+01  1.693438936E+01  5.057621821E-07  0.00000E+00  9.000E+00
</event>
<event>
      5  10001  3.52971E+09  4.19519E+00 -1.00000E+00  2.58680E-01
      21    -1     0     0   512   513  0.000000000E+00  0.000000000E+00  9.491623281E-01  9.491623281E-01  0.000000000E+00  0.00000E+00  9.000E+00
       1    -1     0     0   513     0  0.000000000E+00  0.000000000E+00 -1.842561516E+02  1.842561516E+02  0.000000000E+00  0.00000E+00  9.000E+00
      21     1     1     2   512   511 -5.530436202E+00 -8.551808189E+00 -4.395339370E+01  4.511784531E+01  6.743495762E-07  0.00000E+00  9.000E+00
       1     1     1     2   515     0  7.068941763E+00  8.571629428E+00 -1.352319770E+02  1.356880219E+02  3.300000131E-01  0.00000E+00  9.000E+00
      21     1     1     2   511   515 -1.538505561E+00 -1.982123853E-02 -4.121618575E+00  4.399446774E+00  5.960464478E-08  0.00000E+00  9.000E+00
</event>
<event>
      5  10001  3.52971E+09  6.06413E+00 -1.00000E+00  2.24751E-01
      21    -1     0     0   514   511  0.000000000E+00  0.000000000E+00  6.056670186E+01  6.056670186E+01  0.000000000E+00  0.00000E+00  9.000E+00
      21    -1     0     0   513   512  0.000000000E+00  0.000000000E+00 -8.361773076E+00  8.361773076E+00  0.000000000E+00  0.00000E+00  9.000E+00
      21     1     1     2   513   516  1.469329900E+01  2.205349916E+00  4.570063624E+00  1.554484111E+01  2.384185791E-07  0.00000E+00  9.000E+00
      21     1     1     2   516   511 -1.000101567E+01  1.636026775E+00  4.599992303E+01  4.710297036E+01  6.743495762E-07  0.00000E+00  9.000E+00
      21     1     1     2   514   512 -4.692283332E+00 -3.841376691E+00  1.634942127E+00  6.280663461E+00  1.397852826E-07  0.00000E+00  9.000E+00
</event>
<event>
      5  10001  3.52971E+09  4.45570E+00 -1.00000E+00  2.52889E-01
      21    -1     0     0   515   511  0.000000000E+00  0.000000000E+00  1.639123734E+02  1.639123734E+02  0.000000000E+00  0.00000E+00  9.000E+00
      21    -1     0     0   517   515  0.000000000E+00  0.000000000E+00 -1.845915930E+00  1.845915930E+00  0.000000000E+00  0.00000E+00  9.000E+00
      21     1     1     2   517   512  9.918740847E+00  4.934062106E+00  2.201386251E+01  2.464419874E+01  7.152557373E-07  0.00000E+00  9.000E+00
      21     1     1     2   512   513 -8.821479971E+00 -9.252543931E+00  9.970686140E+01  1.005230635E+02  1.907348633E-06  0.00000E+00  9.000E+00
      21     1     1     2   513   511 -1.097260876E+00  4.318481825E+00  4.034573352E+01  4.059102709E+01  4.768371582E-07  0.00000E+00  9.000E+00
</event>
<event>
      5  10001  3.52971E+09  4.72648E+00 -1.00000E+00  2.47477E-01
      21    -1     0     0   515   512  0.000000000E+00  0.000000000E+00  1.419744698E+02  1.419744698E+02  0.000000000E+00  0.00000E+00  9.000E+00
      21    -1     0     0   516   511  0.000000000E+00  0.000000000E+00 -9.955388942E+00  9.955388942E+00  0.000000000E+00  0.00000E+00  9.000E+00
      21     1     1     2   514   511 -1.221551484E+01 -6.029003373E+00  2.484678892E+01  2.833603014E+01  3.371747881E-07  0.00000E+00  9.000E+00
      21     1     1     2   516   512  9.377814332E+00  2.249178440E+00 -5.312205452E+00  1.101007412E+01  2.598106231E-07  0.00000E+00  9.000E+00
      21     1     1     2   515   514  2.837700510E+00  3.779824933E+00  1.124844974E+02  1.125837545E+02  1.907348633E-06  0.00000E+00  9.000E+00
</event>
<event>
      5  10001  3.52971E+09  1.73205E+01 -1.00000E+00  1.71690E-01
      21    -1     0     0   513   511  0.000000000E+00  0.000000000E+00  6.389877938E-01  6.389877938E-01  0.000000000E+00  0.00000E+00  9.000E+00
       2    -1     0     0   515     0  0.000000000E+00  0.000000000E+00 -9.260484730E+02  9.260484730E+02  0.000000000E+00  0.00000E+00  9.000E+00
      21     1     1     2   515   512  1.223979520E+01  1.181333563E+01 -4.596335880E+02  4.599482609E+02  0.000000000E+00  0.00000E+00  9.000E+00
       2     1     1     2   513     0 -9.605991853E+00  5.304028997E+00 -2.615476210E+02  2.617779111E+02  3.300000131E-01  0.00000E+00  9.000E+00
      21     1     1     2   512   511 -2.633803347E+00 -1.711736462E+01 -2.042282762E+02  2.049612887E+02  2.697398305E-06  0.00000E+00  9.000E+00
</event>
<event>
      5  10001  3.52971E+09  5.44653E+00 -1.00000E+00  2.32197E-01
      21    -1     0     0   514   513  0.000000000E+00  0.000000000E+00  5.367533172E+01  5.367533172E+01  0.000000000E+00  0.00000E+00  9.000E+00
      -4    -1     0     0     0   514  0.000000000E+00  0.000000000E+00 -1.667925669E+02  1.667925669E+02  0.000000000E+00  0.00000E+00  9.000E+00
      -4     1     1     2     0   515  8.354486514E+00 -7.948580386E+00 -1.576087801E+02  1.580371948E+02  1.500000000E+00  0.00000E+00  9.000E+00
      21     1     1     2   515   511 -1.274755859E+01  4.729618882E+00 -3.573231247E+00  1.405836144E+01  3.551356580E-07  0.00000E+00  9.000E+00
      21     1     1     2   511   513  4.393072081E+00  3.218961504E+00  4.806477618E+01  4.837234236E+01  0.000000000E+00  0.00000E+00  9.000E+00
</event>
<event>
      5  10001  3.52971E+09  5.16655E+00 -1.00000E+00  2.36049E-01
       3    -1     0     0   514     0  0.000000000E+00  0.000000000E+00  1.253820018E+01  1.253820018E+01  0.000000000E+00  0.00000E+00  9.000E+00
      21    -1     0     0   511   512  0.000000000E+00  0.000000000E+00 -6.803340056E+01  6.803340056E+01  0.000000000E+00  0.00000E+00  9.000E+00
      21     1     1     2   514   515 -4.985105663E+00  4.847613695E+00 -6.062692294E+01  6.102437564E+01  9.536743164E-07  0.00000E+00  9.000E+00
       3     1     1     2   511     0  7.823072816E+00 -7.808507197E+00  8.727916057E+00  1.409254312E+01  5.000000000E-01  0.00000E+00  9.000E+00
      21     1     1     2   515   512 -2.837967153E+00  2.960893502E+00 -3.596193492E+00  5.454681982E+00  4.214684851E-08  0.00000E+00  9.000E+00
</event>
<event>
      5  10001  3.52971E+09  2.62404E+00 -1.00000E+00  3.15695E-01
      21    -1     0     0   513   511  0.000000000E+00  0.000000000E+00  4.868277849E-01  4.868277849E-01  0.000000000E+00  0.00000E+00  9.000E+00
      21    -1     0     0   515   516  0.000000000E+00  0.000000000E+00 -4.303016192E+02  4.303016192E+02  0.000000000E+00  0.00000E+00  9.000E+00
      21     1     1     2   513   516 -1.289115343E+01  1.795943196E+00 -1.309509935E+02  1.315962384E+02  2.697398305E-06  0.00000E+00  9.000E+00
       3     1     1     2   515     0  9.902281824E+00 -2.662015956E+00 -2.592699810E+02  2.594731480E+02  5.000000000E-01  0.00000E+00  9.000E+00
      -3     1     1     2     0   511  2.988871609E+00  8.660727606E-01 -3.959381691E+01  3.971906058E+01  5.000000000E-01  0.00000E+00  9.000E+00
</event>
<event>
      5  10001  3.52971E+09  5.18730E+00 -1.00000E+00  2.35752E-01
      21    -1     0     0   514   511  0.000000000E+00  0.000000000E+00  1.114513807E+00  1.114513807E+00  0.000000000E+00  0.00000E+00  9.000E+00
      -1    -1     0     0     0   513  0.000000000E+00  0.000000000E+00 -2.933163226E+02  2.933163226E+02  0.000000000E+00  0.00000E+00  9.000E+00
      -1     1     1     2     0   511 -4.528222217E+00  1.407385533E+01 -9.004486078E+01  9.125110439E+01  3.300000131E-01  0.00000E+00  9.000E+00
      21     1     1     2   514   512  4.749629980E+00 -8.891789954E+00 -5.405347281E+01  5.498546023E+01  6.743495762E-07  0.00000E+00  9.000E+00
      21     1     1     2   512   513 -2.214077629E-01 -5.182065373E+00 -1.481034752E+02  1.481942718E+02  0.000000000E+00  0.00000E+00  9.000E+00
</event>
<event>
      5  10001  3.52971E+09  8.50002E+00 -1.00000E+00  2.04281E-01
      -3    -1     0     0     0   512  0.000000000E+00  0.000000000E+00  9.642354667E+00  9.642354667E+00  0.000000000E+00  0.00000E+00  9.000E+00
       2    -1     0     0   512     0  0.000000000E+00  0.000000000E+00 -1.586620552E+03  1.586620552E+03  0.000000000E+00  0.00000E+00  9.000E+00
      -3     1     1     2     0   513  7.610788944E+00 -1.268802457E+01  3.825115787E+00  1.529024482E+01  5.000000000E-01  0.00000E+00  9.000E+00
       2     1     1     2   511     0 -9.436639646E+00  4.341007412E+00 -1.294894554E+03  1.294936257E+03  3.300000131E-01  0.00000E+00  9.000E+00
      21     1     1     2   513   511  1.825850702E+00  8.347017154E+00 -2.859087590E+02  2.860364049E+02  0.000000000E+00  0.00000E+00  9.000E+00
</event>
<event>
      5  10001  3.52971E+09  1.84375E+00 -1.00000E+00  3.80384E-01
       2    -1     0     0   511     0  0.000000000E+00  0.000000000E+00  1.740917421E+01  1.740917421E+01  0.000000000E+00  0.00000E+00  9.000E+00
      -2    -1     0     0     0   512  0.000000000E+00  0.000000000E+00 -2.028496053E+01  2.028496053E+01  0.000000000E+00  0.00000E+00  9.000E+00
      21     1     1     2   511   515  1.221352050E+01 -1.113934303E+00  1.165370228E+01  1.691802913E+01  1.685873940E-07  0.00000E+00  9.000E+00
      21     1     1     2   515   514 -1.048913091E+01  4.613220438E-01 -6.090200231E+00  1.213776026E+01  2.665600750E-07  0.00000E+00  9.000E+00
      21     1     1     2   514   512 -1.724389595E+00  6.526122593E-01 -8.439288369E+00  8.638345351E+00  1.685873940E-07  0.00000E+00  9.000E+00
</event>
<event>
      5  10001  3.52971E+09  5.42607E+00 -1.00000E+00  2.32468E-01
      21    -1     0     0   514   515  0.000000000E+00  0.000000000E+00  7.715168248E+00  7.715168248E+00  0.000000000E+00  0.00000E+00  9.000E+00
       1    -1     0     0   511     0  0.000000000E+00  0.000000000E+00 -8.744789781E+02  8.744789781E+02  0.000000000E+00  0.00000E+00  9.000E+00
      21     1     1     2   514   513  1.432789226E+01 -8.401434036E-01  8.697461118E-01  1.437883151E+01  5.092623082E-07  0.00000E+00  9.000E+00
       1     1     1     2   513     0 -1.108730561E+01 -3.511917347E+00 -4.665326411E+02  4.666777003E+02  3.300000131E-01  0.00000E+00  9.000E+00
      21     1     1     2   511   515 -3.240586648E+00  4.352060751E+00 -4.011009149E+02  4.011376145E+02  5.394796609E-06  0.00000E+00  9.000E+00
</event>
<event>
      5  10001  3.52971E+09  8.66841E+00 -1.00000E+00  2.03211E-01
      -1    -1     0     0     0   512  0.000000000E+00  0.000000000E+00  3.058828064E+00  3.058828064E+00  0.000000000E+00  0.00000E+00  9.000E+00
      21    -1     0     0   514   515  0.000000000E+00  0.000000000E+00 -5.669817375E+01  5.669817375E+01  0.000000000E+00  0.00000E+00  9.000E+00
      -1     1     1     2     0   513  1.609623393E+00  2.111662790E+00 -2.631883977E+01  2.645449365E+01  3.300000131E-01  0.00000E+00  9.000E+00
      21     1     1     2   514   512 -9.394906857E+00 -1.953308297E+00 -8.074938881E+00  1.254130480E+01  2.064765462E-07  0.00000E+00  9.000E+00
      21     1     1     2   513   515  7.785283464E+00 -1.583544932E-01 -1.924556703E+01  2.076120336E+01  0.000000000E+00  0.00000E+00  9.000E+00
</event>
<event>
      5  10001  3.52971E+09  6.25784E+00 -1.00000E+00  2.22665E-01
      21    -1     0     0   511   514  0.000000000E+00  0.000000000E+00  9.073730452E+00  9.073730452E+00  0.000000000E+00  0.00000E+00  9.000E+00
      21    -1     0     0   513   516  0.000000000E+00  0.000000000E+00 -8.782346038E+01  8.782346038E+01  0.000000000E+00  0.00000E+00  9.000E+00
      21     1     1     2   511   516  9.513216218E-01 -9.443607353E+00  5.292970423E+00  1.086748676E+01  2.308477966E-07  0.00000E+00  9.000E+00
      21     1     1     2   512   514 -4.627641469E+00  1.114583933E+01 -7.669888696E+01  7.764254028E+01  9.536743164E-07  0.00000E+00  9.000E+00
      21     1     1     2   513   512  3.676319847E+00 -1.702231975E+00 -7.343813389E+00  8.387163788E+00  1.884864366E-07  0.00000E+00  9.000E+00
</event>
<event>
      5  10001  3.52971E+09  8.70169E+00 -1.00000E+00  2.03003E-01
      21    -1     0     0   515   512  0.000000000E+00  0.000000000E+00  1.853255228E+01  1.853255228E+01  0.000000000E+00  0.00000E+00  9.000E+00
      21    -1     0     0   513   515  0.000000000E+00  0.000000000E+00 -6.078200667E+00  6.078200667E+00  0.000000000E+00  0.00000E+00  9.000E+00
      21     1     1     2   513   517  8.090406503E+00  4.729786852E-01  1.995058254E+00  8.346175391E+00  1.632340424E-07  0.00000E+00  9.000E+00
      21     1     1     2   511   512 -3.357326379E+00 -5.785190136E-01  1.098506380E+01  1.150121521E+01  1.192092896E-07  0.00000E+00  9.000E+00
      21     1     1     2   517   511 -4.733080124E+00  1.055403284E-01 -5.257704446E-01  4.763362340E+00  1.580506819E-07  0.00000E+00  9.000E+00
</event>
<event>
      5  10001  3.52971E+09  1.32603E+01 -1.00000E+00  1.82576E-01
      21    -1     0     0   514   512  0.000000000E+00  0.000000000E+00  2.796583542E+02  2.796583542E+02  0.000000000E+00  0.00000E+00  9.000E+00
      21    -1     0     0   516   514  0.000000000E+00  0.000000000E+00 -9.915486067E+00  9.915486067E+00  0.000000000E+00  0.00000E+00  9.000E+00
      21     1     1     2   511   512 -4.520327804E+00  2.401223091E+01  2.350858030E+02  2.363521850E+02  2.697398305E-06  0.00000E+00  9.000E+00
      21     1     1     2   513   511 -3.195835065E+00 -2.228794286E+01  5.730047136E+00  2.323357912E+01  8.172577143E-07  0.00000E+00  9.000E+00
      21     1     1     2   516   513  7.716162869E+00 -1.724288055E+00  2.892701798E+01  2.998807609E+01  0.000000000E+00  0.00000E+00  9.000E+00
</event>
<event>
      5  10001  3.52971E+09  2.77359E+00 -1.00000E+00  3.07596E-01
      21    -1     0     0   515   513  0.000000000E+00  0.000000000E+00  5.623670925E+00  5.623670925E+00  0.000000000E+00  0.00000E+00  9.000E+00
      21    -1     0     0   512   511  0.000000000E+00  0.000000000E+00 -7.169422457E+01  7.169422457E+01  0.000000000E+00  0.00000E+00  9.000E+00
      21     1     1     2   515   517 -8.838925390E+00  2.030769197E+00 -6.309342047E+00  1.104800537E+01  8.429369702E-08  0.00000E+00  9.000E+00
      21     1     1     2   512   513  1.130802363E+01 -7.672994993E-01 -6.761496423E+00  1.319765058E+01  2.528810911E-07  0.00000E+00  9.000E+00
      21     1     1     2   517   511 -2.469098239E+00 -1.263469697E+00 -5.299971517E+01  5.307223954E+01  9.536743164E-07  0.00000E+00  9.000E+00
</event>
<event>
      5  10001  3.52971E+09  8.74186E+00 -1.00000E+00  2.02754E-01
      21    -1     0     0   514   512  0.000000000E+00  0.000000000E+00  2.422557101E+01  2.422557101E+01  0.000000000E+00  0.00000E+00  9.000E+00
       2    -1     0     0   513     0  0.000000000E+00  0.000000000E+00 -4.802326121E+02  4.802326121E+02  0.000000000E+00  0.00000E+00  9.000E+00
      21     1     1     2   513   515 -5.153493784E+00  1.179678561E+00  1.628004034E+01  1.711694637E+01  1.283923342E-06  0.00000E+00  9.000E+00
       2     1     1     2   514     0  1.042196774E+01  6.432594246E+00 -4.768589015E+02  4.770162644E+02  3.300000131E-01  0.00000E+00  9.000E+00
      21     1     1     2   515   512 -5.268473954E+00 -7.612272807E+00  4.571820058E+00  1.032497234E+01  7.275674114E-07  0.00000E+00  9.000E+00
</event>
<event>
      5  10001  3.52971E+09  7.28173E+00 -1.00000E+00  2.13154E-01
      21    -1     0     0   511   514  0.000000000E+00  0.000000000E+00  7.234062603E+01  7.234062603E+01  0.000000000E+00  0.00000E+00  9.000E+00
      21    -1     0     0   512   511  0.000000000E+00  0.000000000E+00 -9.384275307E+01  9.384275307E+01  0.000000000E+00  0.00000E+00  9.000E+00
      21     1     1     2   516   513  5.350995229E+00  5.948809973E+00  2.025484507E+00  8.253731128E+00  2.580956828E-07  0.00000E+00  9.000E+00
      21     1     1     2   512   516 -3.006535307E+00 -1.284279961E+01 -9.004951222E+01  9.101039175E+01  1.348699152E-06  0.00000E+00  9.000E+00
      21     1     1     2   513   514 -2.344459922E+00  6.893989638E+00  6.652190067E+01  6.691925623E+01  1.651812370E-06  0.00000E+00  9.000E+00
</event>
<event>
      5  10001  3.52971E+09  5.13726E+00 -1.00000E+00  2.36472E-01
      21    -1     0     0   511   512  0.000000000E+00  0.000000000E+00  8.511642530E-01  8.511642530E-01  0.000000000E+00  0.00000E+00  9.000E+00
       1    -1     0     0   513     0  0.000000000E+00  0.000000000E+00 -1.386873024E+03  1.386873024E+03  0.000000000E+00  0.00000E+00  9.000E+00
      21     1     1     2   513   512 -1.032688470E+01  1.932115664E+00 -3.906705199E+02  3.908117612E+02  1.321449896E-05  0.00000E+00  9.000E+00
       1     1     1     2   515     0  1.129990703E+01 -6.976227706E+00 -9.871214744E+02  9.872108537E+02  3.300000131E-01  0.00000E+00  9.000E+00
      21     1     1     2   511   515 -9.730223347E-01  5.044112043E+00 -8.229865692E+00  9.701573485E+00  9.078709013E-07  0.00000E+00  9.000E+00
</event>
<event>
      5  10001  3.52971E+09  5.92539E+00 -1.00000E+00  2.26313E-01
      -3    -1     0     0     0   513  0.000000000E+00  0.000000000E+00  1.162783330E+00  1.162783330E+00  0.000000000E+00  0.00000E+00  9.000E+00
       2    -1     0     0   513     0  0.000000000E+00  0.000000000E+00 -1.050305933E+03  1.050305933E+03  0.000000000E+00  0.00000E+00  9.000E+00
      -3     1     1     2     0   512 -4.037111284E+00  8.251409771E+00 -2.468577295E+01  2.634428623E+01  5.000000000E-01  0.00000E+00  9.000E+00
       2     1     1     2   511     0 -1.721595157E-01 -1.005768448E+01 -1.007758074E+03  1.007808331E+03  3.300000131E-01  0.00000E+00  9.000E+00
      21     1     1     2   512   511  4.209270800E+00  1.806274711E+00 -1.669930200E+01  1.731609876E+01  5.840038640E-07  0.00000E+00  9.000E+00
</event>
<event>
      5  10001  3.52971E+09  4.50204E+00 -1.00000E+00  2.51922E-01
      21    -1     0     0   514   511  0.000000000E+00  0.000000000E+00  8.073156018E+01  8.073156018E+01  0.000000000E+00  0.00000E+00  9.000E+00
      21    -1     0     0   512   515  0.000000000E+00  0.000000000E+00 -3.586734020E+01  3.586734020E+01  0.000000000E+00  0.00000E+00  9.000E+00
      21     1     1     2   514   515 -5.633771564E+00  8.576333125E+00  7.898150615E+01  7.964528351E+01  1.651812370E-06  0.00000E+00  9.000E+00
      21     1     1     2   513   511  7.939798342E+00 -5.421410195E+00 -2.874633311E+01  3.031144591E+01  3.371747881E-07  0.00000E+00  9.000E+00
      21     1     1     2   512   513 -2.306026778E+00 -3.154922929E+00 -5.370953059E+00  6.642170951E+00  8.429369702E-08  0.00000E+00  9.000E+00
</event>
<event>
      5  10001  3.52971E+09  7.03251E+00 -1.00000E+00  2.15264E-01
      21    -1     0     0   514   512  0.000000000E+00  0.000000000E+00  1.160564283E+01  1.160564283E+01  0.000000000E+00  0.00000E+00  9.000E+00
      -1    -1     0     0     0   516  0.000000000E+00  0.000000000E+00 -2.802605179E+02  2.802605179E+02  0.000000000E+00  0.00000E+00  9.000E+00
      -1     1     1     2     0   511 -8.084664266E+00  1.102798045E+00 -2.629145348E+02  2.630413265E+02  3.300000131E-01  0.00000E+00  9.000E+00
      21     1     1     2   511   512  1.134721068E+01 -7.332648923E+00  6.279969985E+00  1.489848830E+01  6.743495762E-07  0.00000E+00  9.000E+00
      21     1     1     2   514   516 -3.262546419E+00  6.229850878E+00 -1.202031028E+01  1.392634591E+01  2.384185791E-07  0.00000E+00  9.000E+00
</event>
<event>
      5  10001  3.52971E+09  7.23865E+00 -1.00000E+00  2.13511E-01
       2    -1     0     0   511     0  0.000000000E+00  0.000000000E+00  1.548872985E+03  1.548872985E+03  0.000000000E+00  0.00000E+00  9.000E+00
      -2    -1     0     0     0   513  0.000000000E+00  0.000000000E+00 -2.150614025E-01  2.150614025E-01  0.000000000E+00  0.00000E+00  9.000E+00
      21     1     1     2   511   514 -7.337958221E+00  6.555722045E+00  1.122468635E+03  1.122511764E+03  1.525878906E-05  0.00000E+00  9.000E+00
      -2     1     1     2     0   513  5.494182170E+00 -8.670618357E+00  1.412034848E+02  1.415764764E+02  3.300000131E-01  0.00000E+00  9.000E+00
       2     1     1     2   514     0  1.843776050E+00  2.114896313E+00  2.849858042E+02  2.849998067E+02  3.300000131E-01  0.00000E+00  9.000E+00
</event>
<event>
      5  10001  3.52971E+09  2.62733E+00 -1.00000E+00  3.15507E-01
      21    -1     0     0   512   514  0.000000000E+00  0.000000000E+00  2.190409744E+01  2.190409744E+01  0.000000000E+00  0.00000E+00  9.000E+00
      21    -1     0     0   515   512  0.000000000E+00  0.000000000E+00 -1.520721188E+01  1.520721188E+01  0.000000000E+00  0.00000E+00  9.000E+00
      21     1     1     2   515   516  1.453430021E+00 -9.987324212E+00 -1.202069417E+01  1.569573802E+01  3.371747881E-07  0.00000E+00  9.000E+00
      21     1     1     2   511   514 -1.729637781E+00  5.373848009E+00  8.533526755E+00  1.023186044E+01  1.685873940E-07  0.00000E+00  9.000E+00
      21     1     1     2   516   511  2.762077601E-01  4.613476203E+00  1.018405298E+01  1.118371085E+01  0.000000000E+00  0.00000E+00  9.000E+00
</event>
<event>
      5  10001  3.52971E+09  2.68245E+01 -1.00000E+00  1.56490E-01
      21    -1     0     0   511   514  0.000000000E+00  0.000000000E+00  3.120040238E+00  3.120040238E+00  0.000000000E+00  0.00000E+00  9.000E+00
      21    -1     0     0   513   511  0.000000000E+00  0.000000000E+00 -6.578385806E+01  6.578385806E+01  0.000000000E+00  0.00000E+00  9.000E+00
      -2     1     1     2     0   514 -5.236711162E+00 -5.004962996E+00 -1.098707921E+01  1.316425494E+01  3.300000131E-01  0.00000E+00  9.000E+00
       2     1     1     2   512     0 -2.574716425E-01 -4.692243517E+00 -2.534586764E+00  5.349436507E+00  3.300000131E-01  0.00000E+00  9.000E+00
      21     1     1     2   513   512  5.494182805E+00  9.697206513E+00 -4.914215185E+01  5.039020686E+01  6.743495762E-07  0.00000E+00  9.000E+00
</event>
<event>
      5  10001  3.52971E+09  5.54629E+00 -1.00000E+00  2.30903E-01
       3    -1     0     0   512     0  0.000000000E+00  0.000000000E+00  2.804016026E+01  2.804016026E+01  0.000000000E+00  0.00000E+00  9.000E+00
      21    -1     0     0   514   511  0.000000000E+00  0.000000000E+00 -3.035455193E+02  3.035455193E+02  0.000000000E+00  0.00000E+00  9.000E+00
      21     1     1     2   512   511 -1.049183113E+01 -1.575795891E+00  4.255114136E-01  1.061803716E+01  3.092215355E-07  0.00000E+00  9.000E+00
       3     1     1     2   515     0  9.588552633E+00 -3.896391296E+00  2.129909386E+01  2.368593688E+01  5.000000000E-01  0.00000E+00  9.000E+00
      21     1     1     2   514   515  9.032785012E-01  5.472187187E+00 -2.972299643E+02  2.972817055E+02  0.000000000E+00  0.00000E+00  9.000E+00
</event>
<event>
      5  10001  3.52971E+09  1.05651E+01 -1.00000E+00  1.93033E-01
      21    -1     0     0   513   511  0.000000000E+00  0.000000000E+00  4.295429714E+01  4.295429714E+01  0.000000000E+00  0.00000E+00  9.000E+00
      21    -1     0     0   514   516  0.000000000E+00  0.000000000E+00 -1.056868630E+03  1.056868630E+03  0.000000000E+00  0.00000E+00  9.000E+00
      21     1     1     2   513   516  2.053887378E+01 -1.836315907E+01 -1.041492828E+03  1.041857170E+03  1.525878906E-05  0.00000E+00  9.000E+00
      21     1     1     2   512   511 -2.151117664E+01  8.661976901E+00  3.747734910E+01  4.407167185E+01  3.371747881E-06  0.00000E+00  9.000E+00
      21     1     1     2   514   512  9.723028644E-01  9.701182169E+00 -9.898853904E+00  1.389408568E+01  3.153981341E-07  0.00000E+00  9.000E+00
</event>
<event>
      5  10001  3.52971E+09  5.59094E+00 -1.00000E+00  2.30336E-01
      21    -1     0     0   515   512  0.000000000E+00  0.000000000E+00  1.050262228E+02  1.050262228E+02  0.000000000E+00  0.00000E+00  9.000E+00
      21    -1     0     0   514   511  0.000000000E+00  0.000000000E+00 -9.158519333E+00  9.158519333E+00  0.000000000E+00  0.00000E+00  9.000E+00
      21     1     1     2   514   517  1.191444979E+01  9.562393107E-01  6.216069985E+00  1.347249173E+01  1.460009660E-07  0.00000E+00  9.000E+00
      21     1     1     2   517   512 -8.670934601E+00  3.597678141E+00  9.347102319E+01  9.394126128E+01  0.000000000E+00  0.00000E+00  9.000E+00
      21     1     1     2   515   511 -3.243515187E+00 -4.553917452E+00 -3.819389756E+00  6.770989073E+00  1.788139343E-07  0.00000E+00  9.000E+00
</event>
<event>
      5  10001  3.52971E+09  1.07436E+01 -1.00000E+00  1.92219E-01
      21    -1     0     0   513   514  0.000000000E+00  0.000000000E+00  1.377648330E+02  1.377648330E+02  0.000000000E+00  0.00000E+00  9.000E+00
      21    -1     0     0   516   513  0.000000000E+00  0.000000000E+00 -1.819027887E+00  1.819027887E+00  0.000000000E+00  0.00000E+00  9.000E+00
      21     1     1     2   516   511  9.757568217E+00 -5.992365269E+00  2.477317046E+01  2.729154729E+01  8.920806376E-07  0.00000E+00  9.000E+00
      21     1     1     2   511   512 -8.265528221E+00 -1.233148939E+00  5.327457479E+01  5.392605986E+01  6.743495762E-07  0.00000E+00  9.000E+00
      21     1     1     2   512   514 -1.492039996E+00  7.225514208E+00  5.789805991E+01  5.836625378E+01  0.000000000E+00  0.00000E+00  9.000E+00
</event>
<event>
      5  10001  3.52971E+09  1.75928E+01 -1.00000E+00  1.71096E-01
      21    -1     0     0   515   511  0.000000000E+00  0.000000000E+00  4.083327182E+01  4.083327182E+01  0.000000000E+00  0.00000E+00  9.000E+00
      21    -1     0     0   516   513  0.000000000E+00  0.000000000E+00 -5.719962008E+02  5.719962008E+02  0.000000000E+00  0.00000E+00  9.000E+00
      21     1     1     2   515   514  3.339988437E+01 -1.651821882E+01 -2.103693932E+02  2.136438284E+02  2.697398305E-06  0.00000E+00  9.000E+00
      21     1     1     2   516   511 -2.636148181E+01  3.947442201E-01  3.452028760E+01  4.343654915E+01  1.066240300E-06  0.00000E+00  9.000E+00
      21     1     1     2   514   513 -7.038402554E+00  1.612347460E+01 -3.553138235E+02  3.557490951E+02  5.394796609E-06  0.00000E+00  9.000E+00
</event>
<event>
      5  10001  3.52971E+09  1.09458E+01 -1.00000E+00  1.91323E-01
      21    -1     0     0   515   511  0.000000000E+00  0.000000000E+00  8.568504273E-01  8.568504273E-01  0.000000000E+00  0.00000E+00  9.000E+00
       1    -1     0     0   514     0  0.000000000E+00  0.000000000E+00 -1.519979592E+03  1.519979592E+03  0.000000000E+00  0.00000E+00  9.000E+00
      21     1     1     2   514   511 -1.617490522E+01  6.045823094E-02 -2.399642412E+02  2.405087697E+02  0.000000000E+00  0.00000E+00  9.000E+00
       1     1     1     2   512     0  5.240369485E+00  4.289173923E-01 -1.228003059E+03  1.228014360E+03  3.300000131E-01  0.00000E+00  9.000E+00
      21     1     1     2   515   512  1.093453573E+01 -4.893756233E-01 -5.115544097E+01  5.231331285E+01  3.090257978E-06  0.00000E+00  9.000E+00
</event>
<event>
      5  10001  3.52971E+09  2.90940E+00 -1.00000E+00  3.00958E-01
      21    -1     0     0   514   512  0.000000000E+00  0.000000000E+00  4.765365057E+01  4.765365057E+01  0.000000000E+00  0.00000E+00  9.000E+00
      21    -1     0     0   511   513  0.000000000E+00  0.000000000E+00 -2.359445191E+01  2.359445191E+01  0.000000000E+00  0.00000E+00  9.000E+00
      -4     1     1     2     0   512  6.993426240E-01  9.190148832E+00 -1.278373536E+01  1.583103931E+01  1.500000000E+00  0.00000E+00  9.000E+00
      21     1     1     2   514   513 -3.247055542E+00 -1.058215357E+01  4.515173386E+01  4.648875578E+01  6.743495762E-07  0.00000E+00  9.000E+00
       4     1     1     2   511     0  2.547712918E+00  1.392004737E+00 -8.308799826E+00  8.928307390E+00  1.500000000E+00  0.00000E+00  9.000E+00
</event>
<event>
      5  10001  3.52971E+09  6.25471E+00 -1.00000E+00  2.22698E-01
      21    -1     0     0   515   513  0.000000000E+00  0.000000000E+00  5.672721100E+01  5.672721100E+01  0.000000000E+00  0.00000E+00  9.000E+00
      21    -1     0     0   512   515  0.000000000E+00  0.000000000E+00 -1.251803570E+01  1.251803570E+01  0.000000000E+00  0.00000E+00  9.000E+00
      21     1     1     2   516   513  6.794362322E+00  1.266845096E+01  4.329039914E+01  4.561481850E+01  4.768371582E-07  0.00000E+00  9.000E+00
      21     1     1     2   511   516 -2.450280588E+00 -1.716849212E+01  2.984420014E-01  1.734502996E+01  2.318974509E-07  0.00000E+00  9.000E+00
      21     1     1     2   512   511 -4.344081734E+00  4.500041162E+00  6.203341580E-01  6.285398240E+00  1.307571588E-07  0.00000E+00  9.000E+00
</event>
<event>
      5  10001  3.52971E+09  6.98712E+00 -1.00000E+00  2.15661E-01
      21    -1     0     0   514   513  0.000000000E+00  0.000000000E+00  1.890530886E+02  1.890530886E+02  0.000000000E+00  0.00000E+00  9.000E+00
      21    -1     0     0   512   517  0.000000000E+00  0.000000000E+00 -2.756652340E+00  2.756652340E+00  0.000000000E+00  0.00000E+00  9.000E+00
      21     1     1     2   514   517  8.054505873E+00  9.677947431E+00  2.106491091E+01  2.454115325E+01  4.129530925E-07  0.00000E+00  9.000E+00
      21     1     1     2   512   511 -1.468094840E+01 -1.189383214E+01  1.123913797E+02  1.139684857E+02  0.000000000E+00  0.00000E+00  9.000E+00
      21     1     1     2   511   513  6.626442524E+00  2.215884709E+00  5.284014561E+01  5.330010200E+01  1.168007728E-06  0.00000E+00  9.000E+00
</event>
<event>
      5  10001  3.52971E+09  5.43068E+00 -1.00000E+00  2.32407E-01
       2    -1     0     0   514     0  0.000000000E+00  0.000000000E+00  1.620862218E+03  1.620862218E+03  0.000000000E+00  0.00000E+00  9.000E+00
      21    -1     0     0   512   514  0.000000000E+00  0.000000000E+00 -3.639040529E+00  3.639040529E+00  0.000000000E+00  0.00000E+00  9.000E+00
      21     1     1     2   515   511  8.134183795E+00 -1.132687201E+01  8.827389572E+01  8.936858307E+01  2.132480600E-06  0.00000E+00  9.000E+00
       2     1     1     2   511     0 -3.088375960E+00  9.318938865E+00  1.529628210E+03  1.529659750E+03  3.300000131E-01  0.00000E+00  9.000E+00
      21     1     1     2   512   515 -5.045807835E+00  2.007933141E+00 -6.789281276E-01  5.472925690E+00  1.145719073E-06  0.00000E+00  9.000E+00
</event>
<event>
      5  10001  3.52971E+09  1.07707E+01 -1.00000E+00  1.92098E-01
      21    -1     0     0   513   511  0.000000000E+00  0.000000000E+00  3.626629857E+01  3.626629857E+01  0.000000000E+00  0.00000E+00  9.000E+00
      21    -1     0     0   512   513  0.000000000E+00  0.000000000E+00 -5.076481433E+01  5.076481433E+01  0.000000000E+00  0.00000E+00  9.000E+00
      21     1     1     2   512   515  1.239616834E+01  2.486131662E+00 -4.834406761E+01  4.996993809E+01  9.536743164E-07  0.00000E+00  9.000E+00
      21     1     1     2   514   511 -6.764389890E+00  2.349079691E+00  1.183418148E+01  1.383195566E+01  3.371747881E-07  0.00000E+00  9.000E+00
      21     1     1     2   515   514 -5.631778448E+00 -4.835211353E+00  2.201137036E+01  2.322921915E+01  6.743495762E-07  0.00000E+00  9.000E+00
</event>
<event>
      5  10001  3.52971E+09  1.70422E+01 -1.00000E+00  1.72312E-01
      21    -1     0     0   516   512  0.000000000E+00  0.000000000E+00  2.006318778E+01  2.006318778E+01  0.000000000E+00  0.00000E+00  9.000E+00
      21    -1     0     0   517   516  0.000000000E+00  0.000000000E+00 -1.322381251E+02  1.322381251E+02  0.000000000E+00  0.00000E+00  9.000E+00
      21     1     1     2   514   511 -1.137228210E+01  5.262703608E+00  1.114939977E+01  1.677301298E+01  7.725644944E-07  0.00000E+00  9.000E+00
      21     1     1     2   517   514  8.051636229E+00 -2.197830798E+01 -1.134346034E+02  1.158243675E+02  2.336015456E-06  0.00000E+00  9.000E+00
      21     1     1     2   511   512  3.320645870E+00  1.671560437E+01 -9.889733703E+00  1.970393238E+01  1.192092896E-07  0.00000E+00  9.000E+00
</event>
<event>
      5  10001  3.52971E+09  4.11571E+00 -1.00000E+00  2.60578E-01
      21    -1     0     0   513   515  0.000000000E+00  0.000000000E+00  2.950698956E+00  2.950698956E+00  0.000000000E+00  0.00000E+00  9.000E+00
      21    -1     0     0   514   512  0.000000000E+00  0.000000000E+00 -2.696665023E+02  2.696665023E+02  0.000000000E+00  0.00000E+00  9.000E+00
      21     1     1     2   513   512  2.452702572E+01 -3.442441538E+00 -7.836041332E+01  8.218138336E+01  1.348699152E-06  0.00000E+00  9.000E+00
      21     1     1     2   511   515 -2.091131219E+01  5.408565867E+00 -1.180279901E+02  1.199880911E+02  0.000000000E+00  0.00000E+00  9.000E+00
      21     1     1     2   514   511 -3.615713529E+00 -1.966124330E+00 -7.032739993E+01  7.044772680E+01  1.348699152E-06  0.00000E+00  9.000E+00
</event>
<event>
      5  10001  3.52971E+09  8.21971E+00 -1.00000E+00  2.06139E-01
      21    -1     0     0   516   511  0.000000000E+00  0.000000000E+00  7.817932639E+01  7.817932639E+01  0.000000000E+00  0.00000E+00  9.000E+00
      21    -1     0     0   514   512  0.000000000E+00  0.000000000E+00 -4.331029918E+01  4.331029918E+01  0.000000000E+00  0.00000E+00  9.000E+00
      21     1     1     2   514   517 -4.591265967E+00  8.939401550E+00  1.325469114E+01  1.663368451E+01  0.000000000E+00  0.00000E+00  9.000E+00
      21     1     1     2   517   511  1.105213293E+01 -3.857979712E+00  6.227861388E+01  6.336923067E+01  0.000000000E+00  0.00000E+00  9.000E+00
      21     1     1     2   516   512 -6.460866963E+00 -5.081421838E+00 -4.066427780E+01  4.148671039E+01  0.000000000E+00  0.00000E+00  9.000E+00
</event>
<event>
      5  10001  3.52971E+09  3.70389E+00 -1.00000E+00  2.71588E-01
      21    -1     0     0   513   511  0.000000000E+00  0.000000000E+00  2.969819447E-01  2.969819447E-01  0.000000000E+00  0.00000E+00  9.000E+00
      -2    -1     0     0     0   512  0.000000000E+00  0.000000000E+00 -3.899389819E+02  3.899389819E+02  0.000000000E+00  0.00000E+00  9.000E+00
      -2     1     1     2     0   511  2.480730227E+00  9.595683495E+00 -1.677387976E+02  1.680316764E+02  3.300000131E-01  0.00000E+00  9.000E+00
      21     1     1     2   514   512 -3.691029730E+00 -7.375341930E+00 -1.270635091E+02  1.273308867E+02  2.697398305E-06  0.00000E+00  9.000E+00
      21     1     1     2   513   514  1.210299502E+00 -2.220341565E+00 -9.483969331E+01  9.487340075E+01  1.348699152E-06  0.00000E+00  9.000E+00
</event>
<event>
      5  10001  3.52971E+09  5.28463E+00 -1.00000E+00  2.34384E-01
       4    -1     0     0   514     0  0.000000000E+00  0.000000000E+00  5.297928772E+00  5.297928772E+00  0.000000000E+00  0.00000E+00  9.000E+00
      21    -1     0     0   513   511  0.000000000E+00  0.000000000E+00 -1.532580374E+02  1.532580374E+02  0.000000000E+00  0.00000E+00  9.000E+00
      21     1     1     2   514   512 -1.002439025E+01 -7.401229057E+00 -1.250097177E+02  1.256292008E+02  0.000000000E+00  0.00000E+00  9.000E+00
       4     1     1     2   513     0  1.234343497E+01  2.656996410E+00 -4.113663570E+00  1.336384095E+01  1.500000000E+00  0.00000E+00  9.000E+00
      21     1     1     2   512   511 -2.319044729E+00  4.744232647E+00 -1.883672740E+01  1.956292439E+01  2.384185791E-07  0.00000E+00  9.000E+00
</event>
<event>
      5  10001  3.52971E+09  1.04371E+01 -1.00000E+00  1.93629E-01
      21    -1     0     0   515   513  0.000000000E+00  0.000000000E+00  5.347270621E+02  5.347270621E+02  0.000000000E+00  0.00000E+00  9.000E+00
      21    -1     0     0   516   515  0.000000000E+00  0.000000000E+00 -1.342391376E+02  1.342391376E+02  0.000000000E+00  0.00000E+00  9.000E+00
      21     1     1     2   511   513 -2.066304860E+00 -1.132160986E+01  5.256593362E+02  5.257853042E+02  7.629394531E-06  0.00000E+00  9.000E+00
      21     1     1     2   514   511  7.454770055E+00  9.774846064E+00 -1.329917755E+02  1.335587270E+02  6.031565972E-06  0.00000E+00  9.000E+00
      21     1     1     2   516   514 -5.388465195E+00  1.546763793E+00  7.820363828E+00  9.622168456E+00  0.000000000E+00  0.00000E+00  9.000E+00
</event>
<event>
      5  10001  3.52971E+09  3.44308E+00 -1.00000E+00  2.79811E-01
      -1    -1     0     0     0   514  0.000000000E+00  0.000000000E+00  2.513676507E+01  2.513676507E+01  0.000000000E+00  0.00000E+00  9.000E+00
       2    -1     0     0   513     0  0.000000000E+00  0.000000000E+00 -1.226686649E+03  1.226686649E+03  0.000000000E+00  0.00000E+00  9.000E+00
      21     1     1     2   513   514  3.866463651E+00  8.768881941E+00 -3.751250312E+00  1.029148729E+01  1.121454699E-06  0.00000E+00  9.000E+00
       2     1     1     2   512     0 -5.338471097E+00 -1.188142469E+01 -1.219493479E+03  1.219563087E+03  3.300000131E-01  0.00000E+00  9.000E+00
      -1     1     1     2     0   512  1.472007446E+00  3.112542750E+00  2.169484541E+01  2.196884033E+01  3.300000131E-01  0.00000E+00  9.000E+00
</event>
<event>
      5  10001  3.52971E+09  1.42483E+01 -1.00000E+00  1.79509E-01
      21    -1     0     0   512   513  0.000000000E+00  0.000000000E+00  3.814739855E+01  3.814739855E+01  0.000000000E+00  0.00000E+00  9.000E+00
       1    -1     0     0   513     0  0.000000000E+00  0.000000000E+00 -4.869498803E+01  4.869498803E+01  0.000000000E+00  0.00000E+00  9.000E+00
      21     1     1     2   512   511  1.032778948E+01  9.821102886E+00  3.160231287E+01  3.466732577E+01  4.768371582E-07  0.00000E+00  9.000E+00
       1     1     1     2   514     0 -8.110750577E+00 -1.851014200E+01 -3.605065976E+01  4.132999638E+01  3.300000131E-01  0.00000E+00  9.000E+00
      21     1     1     2   511   514 -2.217038899E+00  8.689039112E+00 -6.099242595E+00  1.084506443E+01  1.192092896E-07  0.00000E+00  9.000E+00
</event>
<event>
      5  10001  3.52971E+09  6.93484E+00 -1.00000E+00  2.16124E-01
      21    -1     0     0   515   516  0.000000000E+00  0.000000000E+00  1.832854189E+02  1.832854189E+02  0.000000000E+00  0.00000E+00  9.000E+00
      21    -1     0     0   512   515  0.000000000E+00  0.000000000E+00 -3.475179336E+00  3.475179336E+00  0.000000000E+00  0.00000E+00  9.000E+00
      21     1     1     2   514   516 -4.748746192E+00 -1.354758675E+01  1.034715011E+02  1.044626212E+02  1.348699152E-06  0.00000E+00  9.000E+00
      21     1     1     2   513   514 -2.164842722E+00  1.300510222E+01  7.371290931E+01  7.488265638E+01  0.000000000E+00  0.00000E+00  9.000E+00
      21     1     1     2   512   513  6.913588913E+00  5.424845340E-01  2.625829163E+00  7.415320622E+00  3.332000937E-07  0.00000E+00  9.000E+00
</event>
<event>
      5  10001  3.52971E+09  6.47438E+00 -1.00000E+00  2.20453E-01
      21    -1     0     0   511   513  0.000000000E+00  0.000000000E+00  2.581052696E+01  2.581052696E+01  0.000000000E+00  0.00000E+00  9.000E+00
      21    -1     0     0   512   514  0.000000000E+00  0.000000000E+00 -6.849619182E+01  6.849619182E+01  0.000000000E+00  0.00000E+00  9.000E+00
      21     1     1     2   512   517  3.717516210E+00 -8.855746574E+00 -5.562089192E+01  5.644402353E+01  9.536743164E-07  0.00000E+00  9.000E+00
      21     1     1     2   517   513 -2.882349227E+00  1.527603124E+01  2.186794002E+01  2.683042803E+01  3.371747881E-07  0.00000E+00  9.000E+00
      21     1     1     2   511   514 -8.351669826E-01 -6.420284666E+00 -8.932712963E+00  1.103226722E+01  0.000000000E+00  0.00000E+00  9.000E+00
</event>
<event>
      5  10001  3.52971E+09  7.38381E+00 -1.00000E+00  2.12323E-01
      21    -1     0     0   513   514  0.000000000E+00  0.000000000E+00  6.764108309E+01  6.764108309E+01  0.000000000E+00  0.00000E+00  9.000E+00
      21    -1     0     0   512   516  0.000000000E+00  0.000000000E+00 -1.994112309E+02  1.994112309E+02  0.000000000E+00  0.00000E+00  9.000E+00
      21     1     1     2   515   516  1.950025391E+00  9.718313265E+00 -8.516764842E+01  8.574250142E+01  1.348699152E-06  0.00000E+00  9.000E+00
      21     1     1     2   512   514  4.773082976E+00 -1.277126163E+01 -1.133440192E+02  1.141610885E+02  1.348699152E-06  0.00000E+00  9.000E+00
      21     1     1     2   513   515 -6.723108367E+00  3.052948369E+00  6.674151979E+01  6.714872407E+01  0.000000000E+00  0.00000E+00  9.000E+00
</event>
<event>
      5  10001  3.52971E+09  3.52327E+00 -1.00000E+00  2.77162E-01
      -4    -1     0     0     0   511  0.000000000E+00  0.000000000E+00  1.726112270E+01  1.726112270E+01  0.000000000E+00  0.00000E+00  9.000E+00
      -1    -1     0     0     0   512  0.000000000E+00  0.000000000E+00 -1.113079248E+01  1.113079248E+01  0.000000000E+00  0.00000E+00  9.000E+00
      -4     1     1     2     0   513 -2.733388465E+00  1.228769398E+01  4.010169636E+00  1.329625122E+01  1.500000000E+00  0.00000E+00  9.000E+00
      -1     1     1     2     0   511  5.440017032E+00 -1.005071327E+01  1.535140595E+00  1.153586491E+01  3.300000131E-01  0.00000E+00  9.000E+00
      21     1     1     2   513   512 -2.706628567E+00 -2.236980709E+00  5.850199892E-01  3.559799050E+00  5.161913656E-08  0.00000E+00  9.000E+00
</event>
<event>
      5  10001  3.52971E+09  4.95212E+00 -1.00000E+00  2.43368E-01
       1    -1     0     0   514     0  0.000000000E+00  0.000000000E+00  1.221447496E+02  1.221447496E+02  0.000000000E+00  0.00000E+00  9.000E+00
      21    -1     0     0   513   515  0.000000000E+00  0.000000000E+00 -1.159596148E+01  1.159596148E+01  0.000000000E+00  0.00000E+00  9.000E+00
      21     1     1     2   514   515  3.173497000E+00  1.148143692E+01 -6.331998733E+00  1.349031819E+01  1.192092896E-07  0.00000E+00  9.000E+00
      21     1     1     2   513   512 -6.770276514E+00 -8.077685539E+00  1.547530076E+01  1.872353015E+01  2.384185791E-07  0.00000E+00  9.000E+00
       1     1     1     2   512     0  3.596779514E+00 -3.403751380E+00  1.014054861E+02  1.015268628E+02  3.300000131E-01  0.00000E+00  9.000E+00
</event>
<event>
      5  10001  3.52971E+09  5.97082E+00 -1.00000E+00  2.25795E-01
      21    -1     0     0   511   513  0.000000000E+00  0.000000000E+00  5.356274266E+01  5.356274266E+01  0.000000000E+00  0.00000E+00  9.000E+00
      21    -1     0     0   517   516  0.000000000E+00  0.000000000E+00 -4.042617597E+00  4.042617597E+00  0.000000000E+00  0.00000E+00  9.000E+00
      21     1     1     2   511   516  2.608088206E+00 -9.574422108E+00  4.301447599E+01  4.414427288E+01  0.000000000E+00  0.00000E+00  9.000E+00
      21     1     1     2   514   513 -1.028026458E+00  7.461669153E+00  7.511617230E+00  1.063756261E+01  1.460009660E-07  0.00000E+00  9.000E+00
      21     1     1     2   517   514 -1.580061748E+00  2.112752955E+00 -1.005968160E+00  2.823524768E+00  6.143906155E-08  0.00000E+00  9.000E+00
</event>
<event>
      5  10001  3.52971E+09  4.16455E+01 -1.00000E+00  1.43760E-01
      21    -1     0     0   512   514  0.000000000E+00  0.000000000E+00  4.883718390E+01  4.883718390E+01  0.000000000E+00  0.00000E+00  9.000E+00
      21    -1     0     0   517   515  0.000000000E+00  0.000000000E+00 -2.954688275E+01  2.954688275E+01  0.000000000E+00  0.00000E+00  9.000E+00
      21     1     1     2   512   515  1.318107490E-01  1.742636238E+01  3.900791457E+01  4.272368054E+01  8.259061849E-07  0.00000E+00  9.000E+00
      21     1     1     2   517   511  2.729939365E+00 -1.005940854E+01  3.609716589E+00  1.103060846E+01  2.493441184E-07  0.00000E+00  9.000E+00
      21     1     1     2   511   514 -2.861750114E+00 -7.366953836E+00 -2.332733000E+01  2.462977766E+01  7.539457465E-07  0.00000E+00  9.000E+00
</event>
<event>
      5  10001  3.52971E+09  6.18239E+00 -1.00000E+00  2.23465E-01
      21    -1     0     0   513   511  0.000000000E+00  0.000000000E+00  9.950732785E+02  9.950732785E+02  0.000000000E+00  0.00000E+00  9.000E+00
      21    -1     0     0   514   512  0.000000000E+00  0.000000000E+00 -5.443196276E+01  5.443196276E+01  0.000000000E+00  0.00000E+00  9.000E+00
      21     1     1     2   516   511  3.419111036E+00 -1.342277885E+01  8.946759707E+02  8.947831881E+02  1.078959322E-05  0.00000E+00  9.000E+00
      21     1     1     2   514   516  1.523175632E+00  1.713704007E+01  9.942678431E+01  1.009043292E+02  3.303624740E-06  0.00000E+00  9.000E+00
      21     1     1     2   513   512 -4.942286668E+00 -3.714261218E+00 -5.346143920E+01  5.381772399E+01  1.168007728E-06  0.00000E+00  9.000E+00
</event>
<event>
      5  10001  3.52971E+09  5.49115E+00 -1.00000E+00  2.31614E-01
       1    -1     0     0   512     0  0.000000000E+00  0.000000000E+00  1.529714970E+02  1.529714970E+02  0.000000000E+00  0.00000E+00  9.000E+00
      21    -1     0     0   511   512  0.000000000E+00  0.000000000E+00 -3.766516781E+01  3.766516781E+01  0.000000000E+00  0.00000E+00  9.000E+00
      21     1     1     2   515   513 -1.502773499E+01 -2.149323687E+00 -9.421819849E+00  1.786681562E+01  8.259061849E-07  0.00000E+00  9.000E+00
       1     1     1     2   513     0  1.647631827E+01  7.445928655E+00  1.478770132E+02  1.489786255E+02  3.300000131E-01  0.00000E+00  9.000E+00
      21     1     1     2   511   515 -1.448583287E+00 -5.296604968E+00 -2.314886411E+01  2.379122375E+01  4.768371582E-07  0.00000E+00  9.000E+00
</event>
<event>
      5  10001  3.52971E+09  1.37743E+01 -1.00000E+00  1.80940E-01
      21    -1     0     0   512   513  0.000000000E+00  0.000000000E+00  1.610579941E+02  1.610579941E+02  0.000000000E+00  0.00000E+00  9.000E+00
      21    -1     0     0   511   515  0.000000000E+00  0.000000000E+00 -5.321589996E+02  5.321589996E+02  0.000000000E+00  0.00000E+00  9.000E+00
      21     1     1     2   514   515  1.163353125E+01  1.610204342E+01  9.976704613E+01  1.017255049E+02  2.697398305E-06  0.00000E+00  9.000E+00
      21     1     1     2   511   513 -2.285609555E-01 -8.378107496E+00 -5.303597621E+02  5.304259818E+02  1.078959322E-05  0.00000E+00  9.000E+00
      21     1     1     2   512   514 -1.140497029E+01 -7.723935921E+00  5.949171043E+01  6.106550698E+01  1.348699152E-06  0.00000E+00  9.000E+00
</event>
<event>
      5  10001  3.52971E+09  2.36621E+00 -1.00000E+00  3.32095E-01
       2    -1     0     0   511     0  0.000000000E+00  0.000000000E+00  2.001370082E+01  2.001370082E+01  0.000000000E+00  0.00000E+00  9.000E+00
      -4    -1     0     0     0   512  0.000000000E+00  0.000000000E+00 -6.657823829E+01  6.657823829E+01  0.000000000E+00  0.00000E+00  9.000E+00
      -4     1     1     2     0   513 -5.896717865E+00 -1.961529588E+01 -5.792797893E+01  6.146081562E+01  1.500000000E+00  0.00000E+00  9.000E+00
       2     1     1     2   513     0  3.532348234E+00  1.955504623E+01  9.104062499E+00  2.186024179E+01  3.300000131E-01  0.00000E+00  9.000E+00
      21     1     1     2   511   512  2.364369632E+00  6.024965347E-02  2.259378961E+00  3.270881695E+00  4.214684851E-08  0.00000E+00  9.000E+00
</event>
<event>
      5  10001  3.52971E+09  1.48103E+01 -1.00000E+00  1.77902E-01
      21    -1     0     0   514   516  0.000000000E+00  0.000000000E+00  1.809570364E+02  1.809570364E+02  0.000000000E+00  0.00000E+00  9.000E+00
      21    -1     0     0   515   514  0.000000000E+00  0.000000000E+00 -1.481154580E+01  1.481154580E+01  0.000000000E+00  0.00000E+00  9.000E+00
      21     1     1     2   512   516  1.110939238E+01  6.574064072E+00  1.755486268E+02  1.760226045E+02  2.697398305E-06  0.00000E+00  9.000E+00
      21     1     1     2   515   513 -7.956060470E+00 -6.387371322E+00 -4.065159276E-01  1.021090916E+01  5.742991425E-07  0.00000E+00  9.000E+00
      21     1     1     2   513   512 -3.153331906E+00 -1.866927501E-01 -8.996620265E+00  9.535068562E+00  1.004475328E-06  0.00000E+00  9.000E+00
</event>
<event>
      5  10001  3.52971E+09  1.31229E+01 -1.00000E+00  1.83030E-01
      21    -1     0     0   514   512  0.000000000E+00  0.000000000E+00  5.348704279E+01  5.348704279E+01  0.000000000E+00  0.00000E+00  9.000E+00
       2    -1     0     0   512     0  0.000000000E+00  0.000000000E+00 -2.794054609E+02  2.794054609E+02  0.000000000E+00  0.00000E+00  9.000E+00
      21     1     1     2   513   511 -5.784521949E+00  1.123846079E+01  4.555457235E+00  1.343562004E+01  6.107658604E-07  0.00000E+00  9.000E+00
       2     1     1     2   511     0 -7.149875629E+00 -9.022126588E+00 -2.738740659E+02  2.741160928E+02  3.300000131E-01  0.00000E+00  9.000E+00
      21     1     1     2   514   513  1.293439758E+01 -2.216334207E+00  4.340019050E+01  4.534079084E+01  0.000000000E+00  0.00000E+00  9.000E+00
</event>
<event>
      5  10001  3.52971E+09  6.27056E+00 -1.00000E+00  2.22531E-01
      21    -1     0     0   515   511  0.000000000E+00  0.000000000E+00  1.069182814E+02  1.069182814E+02  0.000000000E+00  0.00000E+00  9.000E+00
      21    -1     0     0   512   513  0.000000000E+00  0.000000000E+00 -1.519530089E+01  1.519530089E+01  0.000000000E+00  0.00000E+00  9.000E+00
      21     1     1     2   515   513  2.851629995E+00 -9.833480509E+00 -1.312625114E+01  1.664714995E+01  6.307962682E-07  0.00000E+00  9.000E+00
      21     1     1     2   512   516 -2.300456750E+00  1.728588567E+00  4.129196705E+01  4.139210870E+01  4.768371582E-07  0.00000E+00  9.000E+00
      21     1     1     2   516   511 -5.511732450E-01  8.104891942E+00  6.355726464E+01  6.407432367E+01  6.743495762E-07  0.00000E+00  9.000E+00
</event>
<event>
      5  10001  3.52971E+09  6.36448E+00 -1.00000E+00  2.21560E-01
      21    -1     0     0   514   513  0.000000000E+00  0.000000000E+00  6.589193841E+01  6.589193841E+01  0.000000000E+00  0.00000E+00  9.000E+00
      21    -1     0     0   511   514  0.000000000E+00  0.000000000E+00 -2.658616762E+02  2.658616762E+02  0.000000000E+00  0.00000E+00  9.000E+00
      21     1     1     2   512   516  5.730263223E-01  9.710130827E+00  1.117924972E+01  1.481859049E+01  7.052516679E-07  0.00000E+00  9.000E+00
      21     1     1     2   511   512  5.781773214E+00 -1.006100107E+01 -2.637225032E+02  2.639776721E+02  3.814697266E-06  0.00000E+00  9.000E+00
      21     1     1     2   516   513 -6.354799537E+00  3.508702469E-01  5.257351569E+01  5.295735208E+01  1.507891493E-06  0.00000E+00  9.000E+00
</event>
<event>
      5  10001  3.52971E+09  6.92134E+00 -1.00000E+00  2.16244E-01
      21    -1     0     0   515   511  0.000000000E+00  0.000000000E+00  2.925995722E+02  2.925995722E+02  0.000000000E+00  0.00000E+00  9.000E+00
      21    -1     0     0   516   513  0.000000000E+00  0.000000000E+00 -3.744448742E-01  3.744448742E-01  0.000000000E+00  0.00000E+00  9.000E+00
      21     1     1     2   515   513 -7.907376547E+00  2.274001720E+00  1.038601124E+02  1.041855107E+02  1.348699152E-06  0.00000E+00  9.000E+00
       1     1     1     2   516     0  7.791471363E+00  1.833300917E+00  1.471378645E+02  1.473557875E+02  3.300000131E-01  0.00000E+00  9.000E+00
      -1     1     1     2     0   511  1.159051841E-01 -4.107302637E+00  4.122715038E+01  4.143271892E+01  3.300000131E-01  0.00000E+00  9.000E+00
</event>
<event>
      5  10001  3.52971E+09  8.65377E+00 -1.00000E+00  2.03303E-01
      21    -1     0     0   512   513  0.000000000E+00  0.000000000E+00  1.857306663E+01  1.857306663E+01  0.000000000E+00  0.00000E+00  9.000E+00
      21    -1     0     0   514   511  0.000000000E+00  0.000000000E+00 -4.091333870E+01  4.091333870E+01  0.000000000E+00  0.00000E+00  9.000E+00
      21     1     1     2   512   511 -8.970306731E+00  4.647355055E+00 -3.776161541E+01  3.908969059E+01  0.000000000E+00  0.00000E+00  9.000E+00
      21     1     1     2   514   515  2.572381313E+00  1.301861844E+00  9.280278124E+00  9.717795632E+00  2.920019320E-07  0.00000E+00  9.000E+00
      21     1     1     2   515   513  6.397925418E+00 -5.949216898E+00  6.141065213E+00  1.067891911E+01  3.039252468E-07  0.00000E+00  9.000E+00
</event>
<event>
      5  10001  3.52971E+09  1.14102E+01 -1.00000E+00  1.89355E-01
      21    -1     0     0   516   515  0.000000000E+00  0.000000000E+00  4.320997146E+00  4.320997146E+00  0.000000000E+00  0.00000E+00  9.000E+00
      21    -1     0     0   513   516  0.000000000E+00  0.000000000E+00 -7.468374565E+01  7.468374565E+01  0.000000000E+00  0.00000E+00  9.000E+00
      21     1     1     2   514   515  9.681661123E+00 -4.060038434E+00 -9.194434955E+00  1.395550459E+01  0.000000000E+00  0.00000E+00  9.000E+00
      21     1     1     2   513   511 -1.129417847E+01  3.104886403E+00 -6.192870320E+01  6.302668536E+01  0.000000000E+00  0.00000E+00  9.000E+00
      21     1     1     2   511   514  1.612517344E+00  9.551520314E-01  7.603896572E-01  2.022552847E+00  7.146345859E-08  0.00000E+00  9.000E+00
</event>
<event>
      5  10001  3.52971E+09  6.70847E+00 -1.00000E+00  2.18193E-01
      21    -1     0     0   513   512  0.000000000E+00  0.000000000E+00  1.638663155E+01  1.638663155E+01  0.000000000E+00  0.00000E+00  9.000E+00
      -3    -1     0     0     0   514  0.000000000E+00  0.000000000E+00 -3.352159266E+01  3.352159266E+01  0.000000000E+00  0.00000E+00  9.000E+00
      -3     1     1     2     0   512  1.640484958E+01  8.860281554E+00 -1.416322166E+01  2.341944762E+01  5.000000000E-01  0.00000E+00  9.000E+00
      -1     1     1     2     0   514 -1.781398835E+01 -2.303931169E+00  2.081363694E+00  1.808555376E+01  3.300000131E-01  0.00000E+00  9.000E+00
       1     1     1     2   513     0  1.409138771E+00 -6.556350384E+00 -5.053103144E+00  8.403222824E+00  3.300000131E-01  0.00000E+00  9.000E+00
</event>
<event>
      5  10001  3.52971E+09  5.16650E+00 -1.00000E+00  2.36050E-01
      21    -1     0     0   511   512  0.000000000E+00  0.000000000E+00  5.010118534E+00  5.010118534E+00  0.000000000E+00  0.00000E+00  9.000E+00
      21    -1     0     0   514   511  0.000000000E+00  0.000000000E+00 -1.102945892E+02  1.102945892E+02  0.000000000E+00  0.00000E+00  9.000E+00
      21     1     1     2   515   516  1.186265611E+01  3.533260167E-01 -4.299946672E+00  1.262287569E+01  2.920019320E-07  0.00000E+00  9.000E+00
      21     1     1     2   516   512 -1.199296173E+01  4.811533214E+00 -6.019347166E+01  6.156489271E+01  6.743495762E-07  0.00000E+00  9.000E+00
      21     1     1     2   514   515  1.303056160E-01 -5.164859231E+00 -4.079105229E+01  4.111693930E+01  4.768371582E-07  0.00000E+00  9.000E+00
</event>
<event>
      5  10001  3.52971E+09  1.02394E+01 -1.00000E+00  1.94572E-01
       2    -1     0     0   511     0  0.000000000E+00  0.000000000E+00  6.961888874E+02  6.961888874E+02  0.000000000E+00  0.00000E+00  9.000E+00
       3    -1     0     0   513     0  0.000000000E+00  0.000000000E+00 -6.367999528E-01  6.367999528E-01  0.000000000E+00  0.00000E+00  9.000E+00
       2     1     1     2   512     0 -9.450580531E+00  7.812502422E-01  3.554170120E+02  3.555436473E+02  3.300000131E-01  0.00000E+00  9.000E+00
       3     1     1     2   511     0  1.020505622E+01  6.541271740E+00  6.977953899E+01  7.082630493E+01  5.000000000E-01  0.00000E+00  9.000E+00
      21     1     1     2   513   512 -7.544756867E-01 -7.322521982E+00  2.703555365E+02  2.704557352E+02  0.000000000E+00  0.00000E+00  9.000E+00
</event>
<event>
      5  10001  3.52971E+09  1.05499E+01 -1.00000E+00  1.93103E-01
       2    -1     0     0   513     0  0.000000000E+00  0.000000000E+00  1.074159320E+02  1.074159320E+02  0.000000000E+00  0.00000E+00  9.000E+00
      21    -1     0     0   514   511  0.000000000E+00  0.000000000E+00 -2.799778802E+01  2.799778802E+01  0.000000000E+00  0.00000E+00  9.000E+00
      21     1     1     2   515   511 -1.014432155E+01  3.210943581E+00 -2.476227258E+01  2.695157810E+01  3.371747881E-07  0.00000E+00  9.000E+00
       2     1     1     2   514     0  5.811462872E+00 -8.996607865E+00  9.897807396E+01  9.955641656E+01  3.300000131E-01  0.00000E+00  9.000E+00
      21     1     1     2   513   515  4.332858678E+00  5.785664284E+00  5.202342590E+00  8.905725346E+00  1.460009660E-07  0.00000E+00  9.000E+00
</event>
<event>
      5  10001  3.52971E+09  6.60880E+00 -1.00000E+00  2.19139E-01
      21    -1     0     0   512   511  0.000000000E+00  0.000000000E+00  6.098419342E+01  6.098419342E+01  0.000000000E+00  0.00000E+00  9.000E+00
      21    -1     0     0   514   515  0.000000000E+00  0.000000000E+00 -1.478486213E+02  1.478486213E+02  0.000000000E+00  0.00000E+00  9.000E+00
      21     1     1     2   512   515 -1.515539716E+00  1.447654431E+01 -8.327018195E+01  8.453277706E+01  0.000000000E+00  0.00000E+00  9.000E+00
      21     1     1     2   516   511  8.010977390E+00 -1.325770103E+01  5.918266165E+01  6.117621952E+01  1.348699152E-06  0.00000E+00  9.000E+00
      21     1     1     2   514   516 -6.495437674E+00 -1.218843286E+00 -6.277690761E+01  6.312381815E+01  0.000000000E+00  0.00000E+00  9.000E+00
</event>
<event>
      5  10001  3.52971E+09  6.52301E+00 -1.00000E+00  2.19973E-01
       1    -1     0     0   512     0  0.000000000E+00  0.000000000E+00  1.275238121E+03  1.275238121E+03  0.000000000E+00  0.00000E+00  9.000E+00
      21    -1     0     0   516   511  0.000000000E+00  0.000000000E+00 -8.351377575E+01  8.351377575E+01  0.000000000E+00  0.00000E+00  9.000E+00
      21     1     1     2   516   513  1.008737583E+01 -2.121619063E+01 -7.926752059E+01  8.267539971E+01  3.693564745E-06  0.00000E+00  9.000E+00
       1     1     1     2   513     0 -7.751831039E+00  1.512563996E+01  1.269197300E+03  1.269311141E+03  3.300000131E-01  0.00000E+00  9.000E+00
      21     1     1     2   512   511 -2.335544790E+00  6.090550673E+00  1.794565123E+00  6.765355937E+00  9.884312124E-08  0.00000E+00  9.000E+00
</event>
<event>
      5  10001  3.52971E+09  2.93224E+00 -1.00000E+00  2.99901E-01
      21    -1     0     0   516   515  0.000000000E+00  0.000000000E+00  8.431534519E+00  8.431534519E+00  0.000000000E+00  0.00000E+00  9.000E+00
       3    -1     0     0   515     0  0.000000000E+00  0.000000000E+00 -1.119361246E+02  1.119361246E+02  0.000000000E+00  0.00000E+00  9.000E+00
      21     1     1     2   513   514  8.639543825E+00 -5.972666957E+00  3.091430600E+00  1.094858033E+01  1.737759082E-07  0.00000E+00  9.000E+00
       3     1     1     2   514     0 -7.317064026E+00  8.589516775E+00 -1.057721641E+02  1.063734926E+02  5.000000000E-01  0.00000E+00  9.000E+00
      21     1     1     2   516   513 -1.322479799E+00 -2.616849818E+00 -8.238565986E-01  3.045586230E+00  5.053229617E-08  0.00000E+00  9.000E+00
</event>
<event>
      5  10001  3.52971E+09  9.65407E+00 -1.00000E+00  1.97537E-01
      -5    -1     0     0     0   511  0.000000000E+00  0.000000000E+00  1.171065317E+00  1.171065317E+00  0.000000000E+00  0.00000E+00  9.000E+00
       2    -1     0     0   511     0  0.000000000E+00  0.000000000E+00 -1.045218701E+02  1.045218701E+02  0.000000000E+00  0.00000E+00  9.000E+00
      21     1     1     2   514   512  6.628161479E+00 -3.976820270E+00 -5.331344234E+01  5.387087115E+01  0.000000000E+00  0.00000E+00  9.000E+00
       2     1     1     2   512     0 -6.863268537E+00  4.315063209E-01 -3.442057506E+01  3.510235804E+01  3.300000131E-01  0.00000E+00  9.000E+00
      -5     1     1     2     0   514  2.351070580E-01  3.545313949E+00 -1.561678740E+01  1.671970625E+01  4.800000191E+00  0.00000E+00  9.000E+00
</event>
<event>
      5  10001  3.52971E+09  4.92617E+00 -1.00000E+00  2.43824E-01
      21    -1     0     0   512   511  0.000000000E+00  0.000000000E+00  1.122219188E+02  1.122219188E+02  0.000000000E+00  0.00000E+00  9.000E+00
      -3    -1     0     0     0   513  0.000000000E+00  0.000000000E+00 -1.158267890E+02  1.158267890E+02  0.000000000E+00  0.00000E+00  9.000E+00
      -3     1     1     2     0   511  1.177809157E+01 -5.144553256E+00 -1.055108449E+02  1.062919483E+02  5.000000000E-01  0.00000E+00  9.000E+00
      21     1     1     2   514   513 -7.134025183E+00  6.787577030E+00 -7.413839999E+00  1.232601074E+01  3.153981341E-07  0.00000E+00  9.000E+00
      21     1     1     2   512   514 -4.644066385E+00 -1.643023773E+00  1.093198147E+02  1.094307488E+02  1.348699152E-06  0.00000E+00  9.000E+00
</event>
<event>
      5  10001  3.52971E+09  4.37318E+00 -1.00000E+00  2.54657E-01
      21    -1     0     0   515   514  0.000000000E+00  0.000000000E+00  6.694041816E+02  6.694041816E+02  0.000000000E+00  0.00000E+00  9.000E+00
      21    -1     0     0   511   513  0.000000000E+00  0.000000000E+00 -2.268206012E+01  2.268206012E+01  0.000000000E+00  0.00000E+00  9.000E+00
      21     1     1     2   515   516 -1.646665942E+01  2.124220429E+01  4.769188944E+02  4.776756367E+02  1.078959322E-05  0.00000E+00  9.000E+00
      21     1     1     2   511   514  1.212774282E+01 -2.178855142E+01  1.910743160E+02  1.926946220E+02  6.607249480E-06  0.00000E+00  9.000E+00
      21     1     1     2   516   513  4.338916601E+00  5.463471342E-01 -2.127108891E+01  2.171598296E+01  9.233911863E-07  0.00000E+00  9.000E+00
</event>
<event>
      5  10001  3.52971E+09  5.58461E+00 -1.00000E+00  2.30416E-01
      21    -1     0     0   512   511  0.000000000E+00  0.000000000E+00  4.225587194E+01  4.225587194E+01  0.000000000E+00  0.00000E+00  9.000E+00
      21    -1     0     0   517   512  0.000000000E+00  0.000000000E+00 -3.519100445E+02  3.519100445E+02  0.000000000E+00  0.00000E+00  9.000E+00
      21     1     1     2   517   513  1.236418655E+01 -2.096040912E+00 -3.487300815E+02  3.489554932E+02  3.814697266E-06  0.00000E+00  9.000E+00
      21     1     1     2   513   514 -1.039273079E+01 -2.905278589E+00  3.828492259E+01  3.977668657E+01  1.719260824E-06  0.00000E+00  9.000E+00
      21     1     1     2   514   511 -1.971455754E+00  5.001319501E+00  7.909863772E-01  5.433736651E+00  2.125701698E-07  0.00000E+00  9.000E+00
</event>
<event>
      5  10001  3.52971E+09  9.39899E+00 -1.00000E+00  1.98916E-01
      21    -1     0     0   514   511  0.000000000E+00  0.000000000E+00  5.650943087E+00  5.650943087E+00  0.000000000E+00  0.00000E+00  9.000E+00
      21    -1     0     0   512   515  0.000000000E+00  0.000000000E+00 -4.194988936E+02  4.194988936E+02  0.000000000E+00  0.00000E+00  9.000E+00
      -4     1     1     2     0   511 -1.590525298E+01 -1.018392340E+01 -1.184014849E+02  1.199076770E+02  1.500000000E+00  0.00000E+00  9.000E+00
      21     1     1     2   514   515  6.846892435E+00  1.265920065E+01 -5.924236609E+00  1.556380019E+01  3.039252468E-07  0.00000E+00  9.000E+00
       4     1     1     2   512     0  9.058360542E+00 -2.475277251E+00 -2.895222290E+02  2.896783595E+02  1.500000000E+00  0.00000E+00  9.000E+00
</event>
<event>
      5  10001  3.52971E+09  2.11724E+01 -1.00000E+00  1.64350E-01
      -1    -1     0     0     0   513  0.000000000E+00  0.000000000E+00  7.173629997E+00  7.173629997E+00  0.000000000E+00  0.00000E+00  9.000E+00
      21    -1     0     0   516   514  0.000000000E+00  0.000000000E+00 -2.716406644E+01  2.716406644E+01  0.000000000E+00  0.00000E+00  9.000E+00
      21     1     1     2   511   514  5.682463930E-01  8.705329736E-01 -2.563437347E+01  2.565544454E+01  0.000000000E+00  0.00000E+00  9.000E+00
      21     1     1     2   516   513 -2.588448800E+00 -1.528106808E+00  4.223925154E-01  3.035390098E+00  2.763251500E-07  0.00000E+00  9.000E+00
      -1     1     1     2     0   511  2.020202407E+00  6.575738344E-01  5.221544507E+00  5.646861798E+00  3.300000131E-01  0.00000E+00  9.000E+00
</event>
<event>
      5  10001  3.52971E+09  1.05764E+01 -1.00000E+00  1.92981E-01
      21    -1     0     0   512   514  0.000000000E+00  0.000000000E+00  1.317562492E+01  1.317562492E+01  0.000000000E+00  0.00000E+00  9.000E+00
      21    -1     0     0   515   511  0.000000000E+00  0.000000000E+00 -1.691723796E+01  1.691723796E+01  0.000000000E+00  0.00000E+00  9.000E+00
      21     1     1     2   512   511 -1.101337083E+01 -4.393381457E+00  3.292883891E+00  1.230606444E+01  1.192092896E-07  0.00000E+00  9.000E+00
      21     1     1     2   515   513  3.780614155E+00  7.485746568E+00 -4.530428954E+00  9.531748610E+00  1.032382731E-07  0.00000E+00  9.000E+00
      21     1     1     2   513   514  7.232756678E+00 -3.092365111E+00 -2.504067981E+00  8.255049824E+00  2.064765462E-07  0.00000E+00  9.000E+00
</event>
<event>
      5  10001  3.52971E+09  1.11403E+01 -1.00000E+00  1.90483E-01
      21    -1     0     0   516   511  0.000000000E+00  0.000000000E+00  1.749406794E+01  1.749406794E+01  0.000000000E+00  0.00000E+00  9.000E+00
      21    -1     0     0   517   514  0.000000000E+00  0.000000000E+00 -1.026186306E+01  1.026186306E+01  0.000000000E+00  0.00000E+00  9.000E+00
      21     1     1     2   516   514  3.417457830E+00  9.939040259E+00  1.133153886E+01  1.545533281E+01  1.685873940E-07  0.00000E+00  9.000E+00
      21     1     1     2   512   511 -1.902738726E+00 -1.190552067E+00  5.027365657E-01  2.300124548E+00  3.161013638E-08  0.00000E+00  9.000E+00
      21     1     1     2   517   512 -1.514719104E+00 -8.748488192E+00 -4.602070559E+00  1.000047364E+01  1.788139343E-07  0.00000E+00  9.000E+00
</event>
<event>
      5  10001  3.52971E+09  5.18800E+00 -1.00000E+00  2.35742E-01
      21    -1     0     0   513   511  0.000000000E+00  0.000000000E+00  1.080139703E-01  1.080139703E-01  0.000000000E+00  0.00000E+00  9.000E+00
       2    -1     0     0   512     0  0.000000000E+00  0.000000000E+00 -1.299039367E+03  1.299039367E+03  0.000000000E+00  0.00000E+00  9.000E+00
      21     1     1     2   512   511 -1.061105518E+01 -7.670826440E-01 -4.442106501E+02  4.443380296E+02  5.394796609E-06  0.00000E+00  9.000E+00
       2     1     1     2   514     0  5.830775209E+00 -5.989225114E-01 -6.567256018E+02  6.567518417E+02  3.300000131E-01  0.00000E+00  9.000E+00
      21     1     1     2   513   514  4.780279967E+00  1.366005155E+00 -1.979951012E+02  1.980575097E+02  2.697398305E-06  0.00000E+00  9.000E+00
</event>
<event>
      5  10001  3.52971E+09  2.13466E+01 -1.00000E+00  1.64064E-01
      21    -1     0     0   512   514  0.000000000E+00  0.000000000E+00  3.403434736E+01  3.403434736E+01  0.000000000E+00  0.00000E+00  9.000E+00
      -2    -1     0     0     0   515  0.000000000E+00  0.000000000E+00 -8.955106676E+00  8.955106676E+00  0.000000000E+00  0.00000E+00  9.000E+00
      21     1     1     2   511   514 -3.751115552E+00 -5.882636716E+00  2.350646854E+01  2.451999889E+01  4.768371582E-07  0.00000E+00  9.000E+00
      21     1     1     2   512   515  4.604125558E+00 -4.991118485E+00 -1.841467866E+00  7.035640681E+00  1.724934116E-07  0.00000E+00  9.000E+00
      -2     1     1     2     0   511 -8.530100062E-01  1.087375520E+01  3.414240011E+00  1.143381446E+01  3.300000131E-01  0.00000E+00  9.000E+00
</event>
<event>
      5  10001  3.52971E+09  2.57768E+00 -1.00000E+00  3.18397E-01
      21    -1     0     0   513   512  0.000000000E+00  0.000000000E+00  8.122018584E+00  8.122018584E+00  0.000000000E+00  0.00000E+00  9.000E+00
      21    -1     0     0   514   511  0.000000000E+00  0.000000000E+00 -4.510279361E+01  4.510279361E+01  0.000000000E+00  0.00000E+00  9.000E+00
      21     1     1     2   513   511 -5.259941082E+00  9.089277010E+00 -3.869836493E+01  4.009794739E+01  0.000000000E+00  0.00000E+00  9.000E+00
      21     1     1     2   514   516  6.803445549E+00 -7.024811987E+00  3.025137264E+00  1.023651846E+01  3.264680848E-07  0.00000E+00  9.000E+00
      21     1     1     2   516   512 -1.543504468E+00 -2.064465023E+00 -1.307547363E+00  2.890346342E+00  2.980232239E-08  0.00000E+00  9.000E+00
</event>
<event>
      5  10001  3.52971E+09  9.67304E+00 -1.00000E+00  1.97436E-01
      21    -1     0     0   515   516  0.000000000E+00  0.000000000E+00  2.156072830E+02  2.156072830E+02  0.000000000E+00  0.00000E+00  9.000E+00
      21    -1     0     0   512   515  0.000000000E+00  0.000000000E+00 -2.484153066E+00  2.484153066E+00  0.000000000E+00  0.00000E+00  9.000E+00
      21     1     1     2   514   516  3.493215687E-01  8.500597376E+00  1.739627565E+02  1.741706715E+02  3.303624740E-06  0.00000E+00  9.000E+00
      21     1     1     2   512   511  4.784952396E+00 -5.831176923E+00  4.505850336E+00  8.786414569E+00  4.655271575E-07  0.00000E+00  9.000E+00
      21     1     1     2   511   514 -5.134273964E+00 -2.669420453E+00  3.465452317E+01  3.513435001E+01  0.000000000E+00  0.00000E+00  9.000E+00
</event>
<event>
      5  10001  3.52971E+09  1.82619E+01 -1.00000E+00  1.69691E-01
      21    -1     0     0   512   513  0.000000000E+00  0.000000000E+00  5.273487306E-01  5.273487306E-01  0.000000000E+00  0.00000E+00  9.000E+00
       1    -1     0     0   513     0  0.000000000E+00  0.000000000E+00 -2.684164033E+02  2.684164033E+02  0.000000000E+00  0.00000E+00  9.000E+00
      21     1     1     2   512   511 -3.162744317E+00 -2.771297607E+00 -3.338846044E+01  3.365222626E+01  4.768371582E-07  0.00000E+00  9.000E+00
      21     1     1     2   511   515  7.275820674E+00  8.977893783E-01 -3.598222428E+01  3.672143865E+01  1.066240300E-06  0.00000E+00  9.000E+00
       1     1     1     2   515     0 -4.113076357E+00  1.873508228E+00 -1.985183698E+02  1.985700871E+02  3.300000131E-01  0.00000E+00  9.000E+00
</event>
<event>
      5  10001  3.52971E+09  5.07572E+00 -1.00000E+00  2.37374E-01
      21    -1     0     0   514   511  0.000000000E+00  0.000000000E+00  8.742253359E+01  8.742253359E+01  0.000000000E+00  0.00000E+00  9.000E+00
      21    -1     0     0   513   512  0.000000000E+00  0.000000000E+00 -2.047339494E+01  2.047339494E+01  0.000000000E+00  0.00000E+00  9.000E+00
      21     1     1     2   514   516  9.609131327E+00 -1.332844885E+01  8.001871320E+01  8.168829424E+01  1.348699152E-06  0.00000E+00  9.000E+00
      21     1     1     2   513   511 -5.284429332E+00  1.598549995E+01 -1.275476981E+01  2.112215792E+01  6.951036328E-07  0.00000E+00  9.000E+00
      21     1     1     2   516   512 -4.324701995E+00 -2.657051104E+00 -3.148047393E-01  5.085476373E+00  1.128092701E-07  0.00000E+00  9.000E+00
</event>
<event>
      5  10001  3.52971E+09  2.54355E+00 -1.00000E+00  3.20450E-01
      21    -1     0     0   513   511  0.000000000E+00  0.000000000E+00  8.501184960E+01  8.501184960E+01  0.000000000E+00  0.00000E+00  9.000E+00
       2    -1     0     0   514     0  0.000000000E+00  0.000000000E+00 -9.399550373E+01  9.399550373E+01  0.000000000E+00  0.00000E+00  9.000E+00
      21     1     1     2   513   515  1.535071136E+01 -1.483838896E+01  8.196350427E+01  8.469851331E+01  0.000000000E+00  0.00000E+00  9.000E+00
       2     1     1     2   515     0 -1.402054758E+01  1.700639924E+01 -7.544138295E+01  7.859583024E+01  3.300000131E-01  0.00000E+00  9.000E+00
      21     1     1     2   514   511 -1.330163773E+00 -2.168010282E+00 -1.550577545E+01  1.571300978E+01  0.000000000E+00  0.00000E+00  9.000E+00
</event>
<event>
      5  10001  3.52971E+09  4.82224E+00 -1.00000E+00  2.45692E-01
      -1    -1     0     0     0   511  0.000000000E+00  0.000000000E+00  2.293507233E+01  2.293507233E+01  0.000000000E+00  0.00000E+00  9.000E+00
       2    -1     0     0   511     0  0.000000000E+00  0.000000000E+00 -4.137323797E+01  4.137323797E+01  0.000000000E+00  0.00000E+00  9.000E+00
      21     1     1     2   513   512  7.432785748E-01 -1.364322627E+01  1.534163765E+01  2.054399990E+01  0.000000000E+00  0.00000E+00  9.000E+00
       2     1     1     2   512     0  1.744522338E-01  1.192231206E+01 -3.760852566E+01  3.945481036E+01  3.300000131E-01  0.00000E+00  9.000E+00
      -1     1     1     2     0   513 -9.177308087E-01  1.720914213E+00  3.828722369E+00  4.309500035E+00  3.300000131E-01  0.00000E+00  9.000E+00
</event>
<event>
      5  10001  3.52971E+09  7.30042E+00 -1.00000E+00  2.13001E-01
       3    -1     0     0   511     0  0.000000000E+00  0.000000000E+00  5.694810246E+00  5.694810246E+00  0.000000000E+00  0.00000E+00  9.000E+00
      21    -1     0     0   514   515  0.000000000E+00  0.000000000E+00 -3.467330682E+02  3.467330682E+02  0.000000000E+00  0.00000E+00  9.000E+00
      21     1     1     2   512   515  8.790615568E+00 -9.085864472E+00 -3.029240054E+02  3.031876992E+02  7.629394531E-06  0.00000E+00  9.000E+00
       3     1     1     2   514     0 -1.454111651E+01  1.358301040E+01 -1.478364666E+01  2.479412127E+01  5.000000000E-01  0.00000E+00  9.000E+00
      21     1     1     2   511   512  5.750500942E+00 -4.497145929E+00 -2.333060586E+01  2.444605802E+01  3.371747881E-07  0.00000E+00  9.000E+00
</event>
<event>
      5  10001  3.52971E+09  7.90394E+00 -1.00000E+00  2.08354E-01
      21    -1     0     0   513   514  0.000000000E+00  0.000000000E+00  3.596290475E+00  3.596290475E+00  0.000000000E+00  0.00000E+00  9.000E+00
      21    -1     0     0   516   512  0.000000000E+00  0.000000000E+00 -9.927174974E+01  9.927174974E+01  0.000000000E+00  0.00000E+00  9.000E+00
      21     1     1     2   513   512  6.305634858E+00 -7.275554859E+00 -6.048332300E+00  1.137000673E+01  3.039252468E-07  0.00000E+00  9.000E+00
      21     1     1     2   516   515 -3.083353767E+00  9.255344877E+00 -8.483159228E+01  8.539067588E+01  9.536743164E-07  0.00000E+00  9.000E+00
      21     1     1     2   515   514 -3.222281090E+00 -1.979790018E+00 -4.795534691E+00  6.107357605E+00  1.332800375E-07  0.00000E+00  9.000E+00
</event>
<event>
      5  10001  3.52971E+09  3.93783E+00 -1.00000E+00  2.65075E-01
      21    -1     0     0   511   512  0.000000000E+00  0.000000000E+00  6.029663943E+01  6.029663943E+01  0.000000000E+00  0.00000E+00  9.000E+00
      21    -1     0     0   517   513  0.000000000E+00  0.000000000E+00 -1.172220633E+01  1.172220633E+01  0.000000000E+00  0.00000E+00  9.000E+00
      21     1     1     2   511   514  9.178160834E+00  2.272870984E+01  1.374232573E+01  2.810132388E+01  8.085167388E-07  0.00000E+00  9.000E+00
      21     1     1     2   517   512 -8.634609080E+00 -1.882857919E+01  3.412049874E+01  3.991591541E+01  1.168007728E-06  0.00000E+00  9.000E+00
      21     1     1     2   514   513 -5.435517542E-01 -3.900130647E+00  7.116086327E-01  4.001606479E+00  1.005138275E-07  0.00000E+00  9.000E+00
</event>
<event>
      5  10001  3.52971E+09  1.88148E+01 -1.00000E+00  1.68585E-01
      21    -1     0     0   515   514  0.000000000E+00  0.000000000E+00  3.174375054E+00  3.174375054E+00  0.000000000E+00  0.00000E+00  9.000E+00
      21    -1     0     0   516   515  0.000000000E+00  0.000000000E+00 -5.186416892E+02  5.186416892E+02  0.000000000E+00  0.00000E+00  9.000E+00
      21     1     1     2   516   513  1.451762662E+01  3.155761185E+00 -4.376879766E+02  4.379400475E+02  0.000000000E+00  0.00000E+00  9.000E+00
      21     1     1     2   513   511 -3.246499774E-01 -3.666868583E+00  1.009720328E+00  3.817179319E+00  3.689354182E-07  0.00000E+00  9.000E+00
      21     1     1     2   511   514 -1.419297664E+01  5.111073978E-01 -7.878905788E+01  8.005883747E+01  1.651812370E-06  0.00000E+00  9.000E+00
</event>
<event>
      5  10001  3.52971E+09  3.13104E+00 -1.00000E+00  2.91335E-01
      21    -1     0     0   512   513  0.000000000E+00  0.000000000E+00  3.772724489E+02  3.772724489E+02  0.000000000E+00  0.00000E+00  9.000E+00
       1    -1     0     0   516     0  0.000000000E+00  0.000000000E+00 -5.926556214E+02  5.926556214E+02  0.000000000E+00  0.00000E+00  9.000E+00
      21     1     1     2   512   514  8.015222622E+00  4.490399788E+00  3.759562093E+02  3.760684496E+02  0.000000000E+00  0.00000E+00  9.000E+00
      21     1     1     2   516   513 -1.051843603E+01 -6.371181041E+00 -2.885254642E+01  3.136397423E+01  1.617033478E-06  0.00000E+00  9.000E+00
       1     1     1     2   514     0  2.503213408E+00  1.880781252E+00 -5.624868354E+02  5.624956464E+02  3.300000131E-01  0.00000E+00  9.000E+00
</event>
<event>
      5  10001  3.52971E+09  4.79148E+00 -1.00000E+00  2.46259E-01
      21    -1     0     0   511   516  0.000000000E+00  0.000000000E+00  1.954780687E+02  1.954780687E+02  0.000000000E+00  0.00000E+00  9.000E+00
      21    -1     0     0   512   515  0.000000000E+00  0.000000000E+00 -2.865183443E+01  2.865183443E+01  0.000000000E+00  0.00000E+00  9.000E+00
      21     1     1     2   511   515 -9.297376192E+00  1.869566096E+00  1.076717061E+02  1.080885414E+02  1.348699152E-06  0.00000E+00  9.000E+00
      21     1     1     2   514   516  1.137509518E+01  2.447994949E+00  8.700608306E+01  8.778065823E+01  2.336015456E-06  0.00000E+00  9.000E+00
      21     1     1     2   512   514 -2.077718984E+00 -4.317561045E+00 -2.785155493E+01  2.826070349E+01  1.348699152E-06  0.00000E+00  9.000E+00
</event>
<event>
      5  10001  3.52971E+09  2.95209E+00 -1.00000E+00  2.98995E-01
      21    -1     0     0   513   514  0.000000000E+00  0.000000000E+00  7.374828224E+01  7.374828224E+01  0.000000000E+00  0.00000E+00  9.000E+00
      21    -1     0     0   512   511  0.000000000E+00  0.000000000E+00 -8.370865139E+00  8.370865139E+00  0.000000000E+00  0.00000E+00  9.000E+00
      21     1     1     2   513   517 -7.415777870E+00 -7.716151191E+00  4.306346805E+01  4.437335947E+01  9.536743164E-07  0.00000E+00  9.000E+00
      21     1     1     2   512   514  7.999090100E+00  1.061003668E+01  2.819290734E+01  3.116726399E+01  5.840038640E-07  0.00000E+00  9.000E+00
      21     1     1     2   517   511 -5.833122299E-01 -2.893885488E+00 -5.878958283E+00  6.578523912E+00  1.685873940E-07  0.00000E+00  9.000E+00
</event>
<event>
      5  10001  3.52971E+09  5.11279E+00 -1.00000E+00  2.36829E-01
      21    -1     0     0   515   511  0.000000000E+00  0.000000000E+00  6.923808743E+01  6.923808743E+01  0.000000000E+00  0.00000E+00  9.000E+00
      21    -1     0     0   517   516  0.000000000E+00  0.000000000E+00 -1.834583157E+00  1.834583157E+00  0.000000000E+00  0.00000E+00  9.000E+00
      21     1     1     2   515   516  4.139117703E+00 -8.762436798E+00  2.983439407E+01  3.136883268E+01  3.371747881E-07  0.00000E+00  9.000E+00
      21     1     1     2   517   512 -8.141895250E-01  9.343705147E+00  2.956790682E+01  3.101981373E+01  3.371747881E-07  0.00000E+00  9.000E+00
      21     1     1     2   512   511 -3.324928178E+00 -5.812683491E-01  8.001203386E+00  8.684024177E+00  1.192092896E-07  0.00000E+00  9.000E+00
</event>
<event>
      5  10001  3.52971E+09  2.90832E+00 -1.00000E+00  3.01008E-01
      -2    -1     0     0     0   511  0.000000000E+00  0.000000000E+00  7.020564903E+01  7.020564903E+01  0.000000000E+00  0.00000E+00  9.000E+00
       3    -1     0     0   511     0  0.000000000E+00  0.000000000E+00 -2.159339106E+01  2.159339106E+01  0.000000000E+00  0.00000E+00  9.000E+00
      -2     1     1     2     0   512 -9.555410491E+00 -6.477463288E+00  6.215573979E+01  6.321952459E+01  3.300000131E-01  0.00000E+00  9.000E+00
      21     1     1     2   512   513  7.406967668E+00  4.517527831E+00  4.857686637E+00  9.943256368E+00  2.064765462E-07  0.00000E+00  9.000E+00
       3     1     1     2   513     0  2.148442823E+00  1.959935457E+00 -1.840116846E+01  1.863625913E+01  5.000000000E-01  0.00000E+00  9.000E+00
</event>
<event>
      5  10001  3.52971E+09  1.39091E+01 -1.00000E+00  1.80526E-01
      21    -1     0     0   514   512  0.000000000E+00  0.000000000E+00  2.909649616E+00  2.909649616E+00  0.000000000E+00  0.00000E+00  9.000E+00
      21    -1     0     0   511   514  0.000000000E+00  0.000000000E+00 -1.993147894E+02  1.993147894E+02  0.000000000E+00  0.00000E+00  9.000E+00
      21     1     1     2   511   515 -7.259420235E+00  1.567354636E+01 -1.392781133E+02  1.403451177E+02  1.907348633E-06  0.00000E+00  9.000E+00
      21     1     1     2   516   512  1.189259358E+01 -8.850138700E+00 -4.343476776E+01  4.589485578E+01  6.743495762E-07  0.00000E+00  9.000E+00
      21     1     1     2   515   516 -4.633173343E+00 -6.823407658E+00 -1.369225876E+01  1.598446550E+01  2.920019320E-07  0.00000E+00  9.000E+00
</event>
<event>
      5  10001  3.52971E+09  1.55339E+01 -1.00000E+00  1.75961E-01
      21    -1     0     0   513   515  0.000000000E+00  0.000000000E+00  2.354423896E+01  2.354423896E+01  0.000000000E+00  0.00000E+00  9.000E+00
      21    -1     0     0   511   517  0.000000000E+00  0.000000000E+00 -3.582182120E+01  3.582182120E+01  0.000000000E+00  0.00000E+00  9.000E+00
      21     1     1     2   513   517 -1.324149960E+01 -1.018869383E+01  1.597514907E+01  2.311605895E+01  3.769728732E-07  0.00000E+00  9.000E+00
      21     1     1     2   512   515 -3.512350590E-02  8.001010252E+00 -1.669009844E+01  1.850882991E+01  2.384185791E-07  0.00000E+00  9.000E+00
      21     1     1     2   511   512  1.327662310E+01  2.187683573E+00 -1.156263287E+01  1.774117131E+01  3.769728732E-07  0.00000E+00  9.000E+00
</event>
<event>
      5  10001  3.52971E+09  4.64525E+00 -1.00000E+00  2.49042E-01
      21    -1     0     0   514   512  0.000000000E+00  0.000000000E+00  1.446227526E+01  1.446227526E+01  0.000000000E+00  0.00000E+00  9.000E+00
      21    -1     0     0   511   516  0.000000000E+00  0.000000000E+00 -8.837645813E+00  8.837645813E+00  0.000000000E+00  0.00000E+00  9.000E+00
      21     1     1     2   514   516 -8.119037753E+00  3.534447830E+00 -1.744211871E+00  9.025152106E+00  9.657056180E-08  0.00000E+00  9.000E+00
      21     1     1     2   513   512  8.348368665E+00 -7.853755730E-01  7.836185472E+00  1.147684089E+01  2.064765462E-07  0.00000E+00  9.000E+00
      21     1     1     2   511   513 -2.293309126E-01 -2.749072257E+00 -4.673441542E-01  2.797928073E+00  1.747316033E-08  0.00000E+00  9.000E+00
</event>
<event>
      5  10001  3.52971E+09  1.11442E+01 -1.00000E+00  1.90467E-01
      21    -1     0     0   515   513  0.000000000E+00  0.000000000E+00  6.232265333E+01  6.232265333E+01  0.000000000E+00  0.00000E+00  9.000E+00
      21    -1     0     0   511   517  0.000000000E+00  0.000000000E+00 -2.042610575E+02  2.042610575E+02  0.000000000E+00  0.00000E+00  9.000E+00
      21     1     1     2   515   517 -6.986228592E+00  6.933506083E+00 -1.964062870E+02  1.966527663E+02  2.697398305E-06  0.00000E+00  9.000E+00
      21     1     1     2   511   512  2.911797220E+00 -7.988741719E-01  6.039942045E+01  6.047484398E+01  1.507891493E-06  0.00000E+00  9.000E+00
      21     1     1     2   512   513  4.074431372E+00 -6.134631911E+00 -5.931537558E+00  9.456100544E+00  2.064765462E-07  0.00000E+00  9.000E+00
</event>
<event>
      5  10001  3.52971E+09  1.14959E+01 -1.00000E+00  1.89005E-01
      21    -1     0     0   512   514  0.000000000E+00  0.000000000E+00  1.837536603E+01  1.837536603E+01  0.000000000E+00  0.00000E+00  9.000E+00
       1    -1     0     0   513     0  0.000000000E+00  0.000000000E+00 -1.757029458E+02  1.757029458E+02  0.000000000E+00  0.00000E+00  9.000E+00
      21     1     1     2   513   511  2.103082820E+01 -1.098890534E+01  2.220718913E+00  2.383240164E+01  5.264139692E-07  0.00000E+00  9.000E+00
       1     1     1     2   512     0 -1.928153192E+01 -3.730404228E-01 -1.573674323E+02  1.585450544E+02  3.300000131E-01  0.00000E+00  9.000E+00
      21     1     1     2   511   514 -1.749296277E+00  1.136194576E+01 -2.180866459E+00  1.170085584E+01  2.064765462E-07  0.00000E+00  9.000E+00
</event>
<event>
      5  10001  3.52971E+09  6.18746E+00 -1.00000E+00  2.23410E-01
      21    -1     0     0   515   512  0.000000000E+00  0.000000000E+00  1.272375724E+00  1.272375724E+00  0.000000000E+00  0.00000E+00  9.000E+00
      21    -1     0     0   514   515  0.000000000E+00  0.000000000E+00 -2.555643470E+02  2.555643470E+02  0.000000000E+00  0.00000E+00  9.000E+00
      21     1     1     2   514   513 -1.216874986E+01 -2.940900667E+00 -1.818624402E+02  1.822928263E+02  2.697398305E-06  0.00000E+00  9.000E+00
      21     1     1     2   513   511  9.963868538E+00 -2.840376702E+00 -3.178288162E+01  3.342899909E+01  1.066240300E-06  0.00000E+00  9.000E+00
      21     1     1     2   511   512  2.204881325E+00  5.781277369E+00 -4.064664946E+01  4.111489732E+01  0.000000000E+00  0.00000E+00  9.000E+00
</event>
<event>
      5  10001  3.52971E+09  8.09670E+00 -1.00000E+00  2.06985E-01
      21    -1     0     0   516   513  0.000000000E+00  0.000000000E+00  3.483295596E+01  3.483295596E+01  0.000000000E+00  0.00000E+00  9.000E+00
      21    -1     0     0   512   516  0.000000000E+00  0.000000000E+00 -1.106812041E+02  1.106812041E+02  0.000000000E+00  0.00000E+00  9.000E+00
      21     1     1     2   517   511  1.744838242E+00 -1.573928136E+01 -2.472085262E+01  2.935796302E+01  3.371747881E-07  0.00000E+00  9.000E+00
      21     1     1     2   512   517 -9.007906431E+00  1.216096571E+01 -8.243802821E+01  8.381563076E+01  1.348699152E-06  0.00000E+00  9.000E+00
      21     1     1     2   511   513  7.263068189E+00  3.578315652E+00  3.131063273E+01  3.234056623E+01  0.000000000E+00  0.00000E+00  9.000E+00
</event>
<event>
      5  10001  3.52971E+09  1.01934E+01 -1.00000E+00  1.94796E-01
      21    -1     0     0   514   512  0.000000000E+00  0.000000000E+00  5.571546871E+02  5.571546871E+02  0.000000000E+00  0.00000E+00  9.000E+00
      21    -1     0     0   511   513  0.000000000E+00  0.000000000E+00 -3.474892933E-01  3.474892933E-01  0.000000000E+00  0.00000E+00  9.000E+00
      21     1     1     2   514   513  6.412898101E+00  6.847105822E+00  3.790736975E+02  3.791897628E+02  5.394796609E-06  0.00000E+00  9.000E+00
      21     1     1     2   511   515  9.164717912E-01 -5.326900066E+00  3.846704002E+01  3.884493471E+01  1.430511475E-06  0.00000E+00  9.000E+00
      21     1     1     2   515   512 -7.329369892E+00 -1.520205756E+00  1.392664603E+02  1.394674788E+02  3.303624740E-06  0.00000E+00  9.000E+00
</event>
<event>
      5  10001  3.52971E+09  6.94495E+00 -1.00000E+00  2.16034E-01
      21    -1     0     0   516   511  0.000000000E+00  0.000000000E+00  2.897368662E+00  2.897368662E+00  0.000000000E+00  0.00000E+00  9.000E+00
      21    -1     0     0   517   512  0.000000000E+00  0.000000000E+00 -1.788323438E+02  1.788323438E+02  0.000000000E+00  0.00000E+00  9.000E+00
      21     1     1     2   516   512  7.075609707E+00 -1.082807575E+01 -1.523964071E+02  1.529443571E+02  2.697398305E-06  0.00000E+00  9.000E+00
      21     1     1     2   517   513 -5.905594688E+00  3.881724092E+00 -4.240186141E+00  8.241541668E+00  3.209808354E-07  0.00000E+00  9.000E+00
      21     1     1     2   513   511 -1.170015019E+00  6.946351662E+00 -1.929838191E+01  2.054381369E+01  2.384185791E-07  0.00000E+00  9.000E+00
</event>
<event>
      5  10001  3.52971E+09  9.41267E+00 -1.00000E+00  1.98841E-01
      21    -1     0     0   514   512  0.000000000E+00  0.000000000E+00  1.067158819E+02  1.067158819E+02  0.000000000E+00  0.00000E+00  9.000E+00
      21    -1     0     0   515   511  0.000000000E+00  0.000000000E+00 -3.132774112E+01  3.132774112E+01  0.000000000E+00  0.00000E+00  9.000E+00
      21     1     1     2   514   511 -1.491035514E+00 -1.954519478E+01  9.597619769E+01  9.795748235E+01  1.348699152E-06  0.00000E+00  9.000E+00
      21     1     1     2   515   516 -2.356503680E+00  2.415307317E+01 -2.316897119E+01  3.355182974E+01  1.752011592E-06  0.00000E+00  9.000E+00
      21     1     1     2   516   512  3.847539194E+00 -4.607878396E+00  2.580914313E+00  6.534310970E+00  1.192092896E-07  0.00000E+00  9.000E+00
</event>
<event>
      5  10001  3.52971E+09  3.60720E+00 -1.00000E+00  2.74507E-01
      21    -1     0     0   514   511  0.000000000E+00  0.000000000E+00  5.494185008E+01  5.494185008E+01  0.000000000E+00  0.00000E+00  9.000E+00
      21    -1     0     0   517   512  0.000000000E+00  0.000000000E+00 -8.507046160E+00  8.507046160E+00  0.000000000E+00  0.00000E+00  9.000E+00
      21     1     1     2   513   512  8.687804351E+00  1.221506392E+01  1.940729846E+01  2.452200980E+01  0.000000000E+00  0.00000E+00  9.000E+00
      21     1     1     2   517   511 -1.149262368E+01 -9.946833448E+00  4.134775755E+00  1.575170674E+01  1.576990671E-07  0.00000E+00  9.000E+00
      21     1     1     2   514   513  2.804819327E+00 -2.268230472E+00  2.289272971E+01  2.317517970E+01  3.371747881E-07  0.00000E+00  9.000E+00
</event>
<event>
      5  10001  3.52971E+09  7.68743E+00 -1.00000E+00  2.09954E-01
      21    -1     0     0   515   512  0.000000000E+00  0.000000000E+00  1.045654578E+02  1.045654578E+02  0.000000000E+00  0.00000E+00  9.000E+00
      21    -1     0     0   511   513  0.000000000E+00  0.000000000E+00 -3.121261357E+01  3.121261357E+01  0.000000000E+00  0.00000E+00  9.000E+00
      21     1     1     2   515   513  9.489544925E+00 -8.784745757E+00  3.533644478E+01  3.762828126E+01  4.768371582E-07  0.00000E+00  9.000E+00
      21     1     1     2   516   512 -1.452947753E+01  2.979946540E+00  6.676422384E+01  6.839186636E+01  0.000000000E+00  0.00000E+00  9.000E+00
      21     1     1     2   511   516  5.039932602E+00  5.804799217E+00 -2.874782443E+01  2.975792372E+01  5.840038640E-07  0.00000E+00  9.000E+00
</event>
<event>
      5  10001  3.52971E+09  5.19656E+00 -1.00000E+00  2.35620E-01
      21    -1     0     0   514   512  0.000000000E+00  0.000000000E+00  9.254327224E-01  9.254327224E-01  0.000000000E+00  0.00000E+00  9.000E+00
       2    -1     0     0   512     0  0.000000000E+00  0.000000000E+00 -1.988712686E+02  1.988712686E+02  0.000000000E+00  0.00000E+00  9.000E+00
      21     1     1     2   514   513 -2.371419566E+00 -8.535124297E+00 -4.579098470E+01  4.663996417E+01  9.536743164E-07  0.00000E+00  9.000E+00
       2     1     1     2   511     0  5.437777900E+00  8.922276939E+00 -1.448263962E+02  1.452032038E+02  3.300000131E-01  0.00000E+00  9.000E+00
      21     1     1     2   513   511 -3.066358335E+00 -3.871526416E-01 -7.328454913E+00  7.953533304E+00  2.665600750E-07  0.00000E+00  9.000E+00
</event>
<event>
      5  10001  3.52971E+09  1.68681E+01 -1.00000E+00  1.72709E-01
       4    -1     0     0   513     0  0.000000000E+00  0.000000000E+00  9.468864015E+00  9.468864015E+00  0.000000000E+00  0.00000E+00  9.000E+00
       2    -1     0     0   512     0  0.000000000E+00  0.000000000E+00 -2.729845019E+02  2.729845019E+02  0.000000000E+00  0.00000E+00  9.000E+00
       2     1     1     2   513     0  8.232837731E+00  5.985777302E+00 -2.375203711E+02  2.377386059E+02  3.300000131E-01  0.00000E+00  9.000E+00
       4     1     1     2   514     0  2.262217237E+00 -7.653656424E+00  6.578768892E+00  1.045113791E+01  1.500000000E+00  0.00000E+00  9.000E+00
      21     1     1     2   512   514 -1.049505497E+01  1.667879121E+00 -3.257403564E+01  3.426362207E+01  8.259061849E-07  0.00000E+00  9.000E+00
</event>
<event>
      5  10001  3.52971E+09  7.86983E+00 -1.00000E+00  2.08601E-01
      21    -1     0     0   512   514  0.000000000E+00  0.000000000E+00  1.021728397E+02  1.021728397E+02  0.000000000E+00  0.00000E+00  9.000E+00
       1    -1     0     0   514     0  0.000000000E+00  0.000000000E+00 -1.131231067E+02  1.131231067E+02  0.000000000E+00  0.00000E+00  9.000E+00
      21     1     1     2   512   511 -5.528725034E+00 -1.351076438E+01  1.007410126E+02  1.017932177E+02  1.348699152E-06  0.00000E+00  9.000E+00
       1     1     1     2   513     0  8.312092158E-01  5.479875741E+00 -8.599355303E+01  8.617261752E+01  3.300000131E-01  0.00000E+00  9.000E+00
      21     1     1     2   511   513  4.697515818E+00  8.030888643E+00 -2.569772659E+01  2.733011122E+01  0.000000000E+00  0.00000E+00  9.000E+00
</event>
<event>
      5  10001  3.52971E+09  7.12548E+00 -1.00000E+00  2.14463E-01
      21    -1     0     0   515   516  0.000000000E+00  0.000000000E+00  1.210862523E+02  1.210862523E+02  0.000000000E+00  0.00000E+00  9.000E+00
      21    -1     0     0   514   515  0.000000000E+00  0.000000000E+00 -1.111157317E+00  1.111157317E+00  0.000000000E+00  0.00000E+00  9.000E+00
      21     1     1     2   513   516  2.077677528E+00 -9.629985904E+00  7.001783649E+01  7.070750172E+01  1.348699152E-06  0.00000E+00  9.000E+00
      21     1     1     2   512   513  6.747799453E-01  6.722581635E+00  4.242603759E+01  4.296064592E+01  0.000000000E+00  0.00000E+00  9.000E+00
      21     1     1     2   514   512 -2.752457473E+00  2.907404269E+00  7.531220905E+00  8.529261987E+00  1.192092896E-07  0.00000E+00  9.000E+00
</event>
<event>
      5  10001  3.52971E+09  5.48132E+00 -1.00000E+00  2.31742E-01
      21    -1     0     0   515   513  0.000000000E+00  0.000000000E+00  8.593516564E+01  8.593516564E+01  0.000000000E+00  0.00000E+00  9.000E+00
       2    -1     0     0   513     0  0.000000000E+00  0.000000000E+00 -7.715901880E+02  7.715901880E+02  0.000000000E+00  0.00000E+00  9.000E+00
      21     1     1     2   512   511 -3.136108127E-01 -1.618018903E+01 -2.199340990E+02  2.205286938E+02  0.000000000E+00  0.00000E+00  9.000E+00
       2     1     1     2   511     0 -2.719148564E-01  1.073023260E+01 -5.512187313E+02  5.513233266E+02  3.300000131E-01  0.00000E+00  9.000E+00
      21     1     1     2   515   512  5.855256691E-01  5.449956434E+00  8.549780796E+01  8.567333326E+01  9.536743164E-07  0.00000E+00  9.000E+00
</event>
<event>
      5  10001  3.52971E+09  8.81639E+00 -1.00000E+00  2.02297E-01
       3    -1     0     0   512     0  0.000000000E+00  0.000000000E+00  8.492503165E+01  8.492503165E+01  0.000000000E+00  0.00000E+00  9.000E+00
      21    -1     0     0   511   512  0.000000000E+00  0.000000000E+00 -5.885083968E+01  5.885083968E+01  0.000000000E+00  0.00000E+00  9.000E+00
      21     1     1     2   513   514 -7.874765809E+00  3.539882373E+00 -4.501566254E+01  4.583614925E+01  4.768371582E-07  0.00000E+00  9.000E+00
       3     1     1     2   514     0  7.557563353E+00 -1.262777227E+01  8.224216407E+01  8.354999071E+01  5.000000000E-01  0.00000E+00  9.000E+00
      21     1     1     2   511   513  3.172024557E-01  9.087889897E+00 -1.115230956E+01  1.438973136E+01  2.665600750E-07  0.00000E+00  9.000E+00
</event>
<event>
      5  10001  3.52971E+09  1.40854E+01 -1.00000E+00  1.79993E-01
       1    -1     0     0   511     0  0.000000000E+00  0.000000000E+00  4.122901962E+02  4.122901962E+02  0.000000000E+00  0.00000E+00  9.000E+00
      21    -1     0     0   515   512  0.000000000E+00  0.000000000E+00 -2.097464616E+00  2.097464616E+00  0.000000000E+00  0.00000E+00  9.000E+00
      21     1     1     2   511   512  5.034784160E-01 -2.651239155E+01  1.904506899E+02  1.922878719E+02  0.000000000E+00  0.00000E+00  9.000E+00
      21     1     1     2   515   514 -1.836786336E-01  1.812387506E+01  7.674675523E+01  7.885792936E+01  9.536743164E-07  0.00000E+00  9.000E+00
       1     1     1     2   514     0 -3.197997823E-01  8.388516496E+00  1.429952864E+02  1.432418595E+02  3.300000131E-01  0.00000E+00  9.000E+00
</event>
<event>
      5  10001  3.52971E+09  6.32740E+00 -1.00000E+00  2.21941E-01
      21    -1     0     0   511   512  0.000000000E+00  0.000000000E+00  4.018995857E+01  4.018995857E+01  0.000000000E+00  0.00000E+00  9.000E+00
      21    -1     0     0   517   516  0.000000000E+00  0.000000000E+00 -7.584791069E+01  7.584791069E+01  0.000000000E+00  0.00000E+00  9.000E+00
      21     1     1     2   513   516 -1.500203706E+01 -1.193563382E+00 -7.292006693E+01  7.445684569E+01  1.348699152E-06  0.00000E+00  9.000E+00
      21     1     1     2   517   512  9.480644863E+00 -1.896771084E+00  1.136077855E+01  1.491803126E+01  4.460403188E-07  0.00000E+00  9.000E+00
      21     1     1     2   511   513  5.521392193E+00  3.090334466E+00  2.590133626E+01  2.666299231E+01  3.371747881E-07  0.00000E+00  9.000E+00
</event>
<event>
      5  10001  3.52971E+09  3.80586E+00 -1.00000E+00  2.68659E-01
      21    -1     0     0   514   516  0.000000000E+00  0.000000000E+00  2.187265670E+02  2.187265670E+02  0.000000000E+00  0.00000E+00  9.000E+00
      21    -1     0     0   512   513  0.000000000E+00  0.000000000E+00 -1.576358972E+02  1.576358972E+02  0.000000000E+00  0.00000E+00  9.000E+00
      21     1     1     2   514   513 -8.747264246E+00  8.146980154E+00  2.176444305E+02  2.179724433E+02  0.000000000E+00  0.00000E+00  9.000E+00
      21     1     1     2   515   516  7.764761181E+00 -4.470127232E+00 -2.162461272E+01  2.340720891E+01  1.348699152E-06  0.00000E+00  9.000E+00
      21     1     1     2   512   515  9.825030646E-01 -3.676852922E+00 -1.349291479E+02  1.349828120E+02  1.907348633E-06  0.00000E+00  9.000E+00
</event>
<event>
      5  10001  3.52971E+09  1.12318E+01 -1.00000E+00  1.90096E-01
      21    -1     0     0   515   512  0.000000000E+00  0.000000000E+00  5.716399946E+00  5.716399946E+00  0.000000000E+00  0.00000E+00  9.000E+00
      21    -1     0     0   511   515  0.000000000E+00  0.000000000E+00 -4.320799493E+01  4.320799493E+01  0.000000000E+00  0.00000E+00  9.000E+00
      -2     1     1     2     0   512 -3.033641363E+00  8.583149446E+00 -7.716980385E-01  9.142092332E+00  3.300000131E-01  0.00000E+00  9.000E+00
       2     1     1     2   513     0  5.908496236E+00 -1.091048802E+00 -2.399796313E+01  2.474089428E+01  3.300000131E-01  0.00000E+00  9.000E+00
      21     1     1     2   511   513 -2.874854874E+00 -7.492100644E+00 -1.272193381E+01  1.504140826E+01  0.000000000E+00  0.00000E+00  9.000E+00
</event>
<event>
      5  10001  3.52971E+09  5.41712E+00 -1.00000E+00  2.32586E-01
      -3    -1     0     0     0   514  0.000000000E+00  0.000000000E+00  1.850815447E+01  1.850815447E+01  0.000000000E+00  0.00000E+00  9.000E+00
      21    -1     0     0   516   513  0.000000000E+00  0.000000000E+00 -3.629078440E+01  3.629078440E+01  0.000000000E+00  0.00000E+00  9.000E+00
      -3     1     1     2     0   513 -8.462292457E+00 -1.556157259E+01  1.014903136E+01  2.042120889E+01  5.000000000E-01  0.00000E+00  9.000E+00
      -3     1     1     2     0   514  9.890157119E+00  1.278113642E+01 -1.926326681E+01  2.514947523E+01  5.000000000E-01  0.00000E+00  9.000E+00
       3     1     1     2   516     0 -1.427864662E+00  2.780436168E+00 -8.668394475E+00  9.228254740E+00  5.000000000E-01  0.00000E+00  9.000E+00
</event>
<event>
      5  10001  3.52971E+09  3.40233E+00 -1.00000E+00  2.81202E-01
      -3    -1     0     0     0   511  0.000000000E+00  0.000000000E+00  3.287906443E+01  3.287906443E+01  0.000000000E+00  0.00000E+00  9.000E+00
      -1    -1     0     0     0   513  0.000000000E+00  0.000000000E+00 -3.147224923E+01  3.147224923E+01  0.000000000E+00  0.00000E+00  9.000E+00
      -3     1     1     2     0   512 -3.809144954E+00  1.383922342E+01  2.829706015E+01  3.173337838E+01  5.000000000E-01  0.00000E+00  9.000E+00
      -1     1     1     2     0   511  7.150063187E+00 -1.319736735E+01 -2.277963127E+01  2.728212619E+01  3.300000131E-01  0.00000E+00  9.000E+00
      21     1     1     2   512   513 -3.340918233E+00 -6.418560679E-01 -4.110613687E+00  5.335809098E+00  8.429369702E-08  0.00000E+00  9.000E+00
</event>
<event>
      5  10001  3.52971E+09  6.09601E+00 -1.00000E+00  2.24400E-01
      21    -1     0     0   511   512  0.000000000E+00  0.000000000E+00  9.422345157E+02  9.422345157E+02  0.000000000E+00  0.00000E+00  9.000E+00
      21    -1     0     0   515   514  0.000000000E+00  0.000000000E+00 -1.813227455E+02  1.813227455E+02  0.000000000E+00  0.00000E+00  9.000E+00
      21     1     1     2   515   513 -1.216279827E+01  3.280927316E+00 -1.808890378E+02  1.813271688E+02  3.303624740E-06  0.00000E+00  9.000E+00
      21     1     1     2   513   512  9.176155215E+00  2.033328905E+00  1.083198451E+02  1.087268370E+02  3.015782986E-06  0.00000E+00  9.000E+00
      21     1     1     2   511   514  2.986643056E+00 -5.314256220E+00  8.334809629E+02  8.335032555E+02  1.078959322E-05  0.00000E+00  9.000E+00
</event>
<event>
      5  10001  3.52971E+09  2.63627E+01 -1.00000E+00  1.57041E-01
      21    -1     0     0   516   512  0.000000000E+00  0.000000000E+00  1.777561269E+01  1.777561269E+01  0.000000000E+00  0.00000E+00  9.000E+00
      21    -1     0     0   512   511  0.000000000E+00  0.000000000E+00 -1.279448069E+02  1.279448069E+02  0.000000000E+00  0.00000E+00  9.000E+00
      21     1     1     2   513   511 -1.250076194E+01  1.959784101E+01 -1.051501721E+02  1.076889182E+02  1.907348633E-06  0.00000E+00  9.000E+00
       2     1     1     2   516     0 -1.413462495E+00 -1.417795737E+01  9.558513625E+00  1.716060705E+01  3.300000131E-01  0.00000E+00  9.000E+00
      -2     1     1     2     0   513  1.391422444E+01 -5.419883635E+00 -1.457753574E+01  2.087089429E+01  3.300000131E-01  0.00000E+00  9.000E+00
</event>
<event>
      5  10001  3.52971E+09  7.02526E+00 -1.00000E+00  2.15327E-01
      21    -1     0     0   514   511  0.000000000E+00  0.000000000E+00  2.633212812E+00  2.633212812E+00  0.000000000E+00  0.00000E+00  9.000E+00
      21    -1     0     0   512   513  0.000000000E+00  0.000000000E+00 -1.302938814E+02  1.302938814E+02  0.000000000E+00  0.00000E+00  9.000E+00
      21     1     1     2   514   513  7.086449751E+00 -1.360547374E+01 -3.049606216E+01  3.413702526E+01  4.768371582E-07  0.00000E+00  9.000E+00
      21     1     1     2   512   515 -1.073733200E+00  1.134353924E+01 -5.940077447E+01  6.048372337E+01  0.000000000E+00  0.00000E+00  9.000E+00
      21     1     1     2   515   511 -6.012716551E+00  2.261934501E+00 -3.776383197E+01  3.830634559E+01  0.000000000E+00  0.00000E+00  9.000E+00
</event>
<event>
      5  10001  3.52971E+09  4.82639E+00 -1.00000E+00  2.45616E-01
      21    -1     0     0   512   511  0.000000000E+00  0.000000000E+00  1.537731661E+02  1.537731661E+02  0.000000000E+00  0.00000E+00  9.000E+00
       1    -1     0     0   511     0  0.000000000E+00  0.000000000E+00 -9.146198770E+01  9.146198770E+01  0.000000000E+00  0.00000E+00  9.000E+00
      21     1     1     2   513   515  9.058997376E+00 -7.721650483E+00  1.215990493E+02  1.221802689E+02  0.000000000E+00  0.00000E+00  9.000E+00
       1     1     1     2   515     0 -8.002032937E+00  1.311697486E+01 -9.028004641E+01  9.157883620E+01  3.300000131E-01  0.00000E+00  9.000E+00
      21     1     1     2   512   513 -1.056964439E+00 -5.395324372E+00  3.099217547E+01  3.147604866E+01  4.768371582E-07  0.00000E+00  9.000E+00
</event>
<event>
      5  10001  3.52971E+09  7.33720E+00 -1.00000E+00  2.12700E-01
      21    -1     0     0   514   515  0.000000000E+00  0.000000000E+00  1.943178378E+02  1.943178378E+02  0.000000000E+00  0.00000E+00  9.000E+00
      21    -1     0     0   511   513  0.000000000E+00  0.000000000E+00 -2.238880145E+00  2.238880145E+00  0.000000000E+00  0.00000E+00  9.000E+00
      21     1     1     2   514   513  7.817202965E+00  7.007203587E+00  1.167369480E+01  1.569983167E+01  4.460403188E-07  0.00000E+00  9.000E+00
      21     1     1     2   516   515 -6.340682526E+00 -7.987811492E-01  8.924973813E+01  8.947825469E+01  1.348699152E-06  0.00000E+00  9.000E+00
      21     1     1     2   511   516 -1.476520439E+00 -6.208422437E+00  9.115552476E+01  9.137863162E+01  1.348699152E-06  0.00000E+00  9.000E+00
</event>
<event>
      5  10001  3.52971E+09  9.28315E+00 -1.00000E+00  1.99562E-01
      21    -1     0     0   512   513  0.000000000E+00  0.000000000E+00  1.803804987E+02  1.803804987E+02  0.000000000E+00  0.00000E+00  9.000E+00
      21    -1     0     0   514   517  0.000000000E+00  0.000000000E+00 -6.464499032E+00  6.464499032E+00  0.000000000E+00  0.00000E+00  9.000E+00
      21     1     1     2   512   517  6.667704304E+00 -1.112806971E+01  1.612563549E+02  1.617773291E+02  1.907348633E-06  0.00000E+00  9.000E+00
      21     1     1     2   511   513  2.606927727E+00  1.152567548E+01  4.298831595E+00  1.257446701E+01  6.194296387E-07  0.00000E+00  9.000E+00
      21     1     1     2   514   511 -9.274632031E+00 -3.976057700E-01  8.360813158E+00  1.249320160E+01  4.129530925E-07  0.00000E+00  9.000E+00
</event>
<event>
      5  10001  3.52971E+09  8.66583E+00 -1.00000E+00  2.03227E-01
      21    -1     0     0   515   511  0.000000000E+00  0.000000000E+00  2.050255179E+00  2.050255179E+00  0.000000000E+00  0.00000E+00  9.000E+00
      21    -1     0     0   514   516  0.000000000E+00  0.000000000E+00 -1.164387582E+02  1.164387582E+02  0.000000000E+00  0.00000E+00  9.000E+00
      21     1     1     2   515   516 -1.036736411E+01 -7.034866240E+00 -9.163667309E+01  9.248919632E+01  1.348699152E-06  0.00000E+00  9.000E+00
      21     1     1     2   512   511  4.669861094E-02  1.626384220E-01 -1.834879563E-01  2.495993723E-01  6.452392070E-09  0.00000E+00  9.000E+00
      21     1     1     2   514   512  1.032066550E+01  6.872227818E+00 -2.256834201E+01  2.575021772E+01  3.371747881E-07  0.00000E+00  9.000E+00
</event>
<event>
      5  10001  3.52971E+09  3.54593E+00 -1.00000E+00  2.76434E-01
      21    -1     0     0   513   512  0.000000000E+00  0.000000000E+00  5.345774860E+01  5.345774860E+01  0.000000000E+00  0.00000E+00  9.000E+00
      21    -1     0     0   511   517  0.000000000E+00  0.000000000E+00 -2.522317699E+01  2.522317699E+01  0.000000000E+00  0.00000E+00  9.000E+00
      21     1     1     2   513   517 -1.114876113E+01  3.302165354E+00  1.589055351E+01  1.969032406E+01  2.920019320E-07  0.00000E+00  9.000E+00
      21     1     1     2   514   512  1.146384218E+01  2.297353597E-01  3.460180820E+01  3.645212733E+01  4.768371582E-07  0.00000E+00  9.000E+00
      21     1     1     2   511   514 -3.150810499E-01 -3.531900713E+00 -2.225779011E+01  2.253847420E+01  2.384185791E-07  0.00000E+00  9.000E+00
</event>
<event>
      5  10001  3.52971E+09  5.04763E+00 -1.00000E+00  2.37792E-01
      21    -1     0     0   511   512  0.000000000E+00  0.000000000E+00  4.605145368E+00  4.605145368E+00  0.000000000E+00  0.00000E+00  9.000E+00
       5    -1     0     0   513     0  0.000000000E+00  0.000000000E+00 -2.893360944E+02  2.893360944E+02  0.000000000E+00  0.00000E+00  9.000E+00
      21     1     1     2   514   512  5.375965481E+00 -1.253730407E+01 -6.847001062E+00  1.526323759E+01  6.899736466E-07  0.00000E+00  9.000E+00
       5     1     1     2   511     0 -1.018044970E+01  1.108973793E+01 -1.929029837E+02  1.935490247E+02  4.800000191E+00  0.00000E+00  9.000E+00
      21     1     1     2   513   514  4.804484215E+00  1.447566144E+00 -8.498096430E+01  8.512897750E+01  1.907348633E-06  0.00000E+00  9.000E+00
</event>
<event>
      5  10001  3.52971E+09  1.01664E+01 -1.00000E+00  1.94928E-01
      21    -1     0     0   515   513  0.000000000E+00  0.000000000E+00  7.764764877E+00  7.764764877E+00  0.000000000E+00  0.00000E+00  9.000E+00
      21    -1     0     0   512   514  0.000000000E+00  0.000000000E+00 -7.656159841E+01  7.656159841E+01  0.000000000E+00  0.00000E+00  9.000E+00
      21     1     1     2   515   514  1.851428213E+01  1.297430528E+01 -3.527923914E+01  4.190150301E+01  9.536743164E-07  0.00000E+00  9.000E+00
      21     1     1     2   511   513 -1.556133762E+01 -3.387853861E+00 -1.924825470E+01  2.498255574E+01  5.840038640E-07  0.00000E+00  9.000E+00
      21     1     1     2   512   511 -2.952944502E+00 -9.586451423E+00 -1.426933969E+01  1.744230453E+01  4.129530925E-07  0.00000E+00  9.000E+00
</event>
<event>
      5  10001  3.52971E+09  1.55103E+01 -1.00000E+00  1.76022E-01
      21    -1     0     0   514   511  0.000000000E+00  0.000000000E+00  3.387272478E+02  3.387272478E+02  0.000000000E+00  0.00000E+00  9.000E+00
       5    -1     0     0   513     0  0.000000000E+00  0.000000000E+00 -1.358459882E+01  1.358459882E+01  0.000000000E+00  0.00000E+00  9.000E+00
      21     1     1     2   513   511 -1.383012411E+01 -1.031205676E+01  2.573985138E+01  3.098630014E+01  5.840038640E-07  0.00000E+00  9.000E+00
       5     1     1     2   512     0  2.609361693E+01  8.538606074E-01  5.618412448E+00  2.713323576E+01  4.800000191E+00  0.00000E+00  9.000E+00
      21     1     1     2   514   512 -1.226349282E+01  9.458196148E+00  2.937843852E+02  2.941923108E+02  5.394796609E-06  0.00000E+00  9.000E+00
</event>
<event>
      5  10001  3.52971E+09  1.02543E+01 -1.00000E+00  1.94500E-01
      21    -1     0     0   515   512  0.000000000E+00  0.000000000E+00  4.416405878E+01  4.416405878E+01  0.000000000E+00  0.00000E+00  9.000E+00
      21    -1     0     0   513   516  0.000000000E+00  0.000000000E+00 -2.405673368E+02  2.405673368E+02  0.000000000E+00  0.00000E+00  9.000E+00
      21     1     1     2   515   516  1.465172488E+01  2.204138239E+00 -2.092958037E+01  2.564329546E+01  2.384185791E-07  0.00000E+00  9.000E+00
      21     1     1     2   511   512 -6.860389351E+00 -8.870936336E+00  4.093159012E+01  4.243999910E+01  4.768371582E-07  0.00000E+00  9.000E+00
      21     1     1     2   513   511 -7.791335525E+00  6.666798097E+00 -2.164052878E+02  2.166481010E+02  2.697398305E-06  0.00000E+00  9.000E+00
</event>
<event>
      5  10001  3.52971E+09  3.37220E+00 -1.00000E+00  2.82251E-01
       1    -1     0     0   514     0  0.000000000E+00  0.000000000E+00  6.644168029E+01  6.644168029E+01  0.000000000E+00  0.00000E+00  9.000E+00
      -4    -1     0     0     0   515  0.000000000E+00  0.000000000E+00 -4.997528440E+00  4.997528440E+00  0.000000000E+00  0.00000E+00  9.000E+00
      -4     1     1     2     0   512 -6.672248724E+00 -1.088618897E+01  8.812947740E+00  1.558672708E+01  1.500000000E+00  0.00000E+00  9.000E+00
       1     1     1     2   512     0  9.980910208E+00  1.027155867E+01  4.822661577E+01  5.030943107E+01  3.300000131E-01  0.00000E+00  9.000E+00
      21     1     1     2   514   515 -3.308661484E+00  6.146303021E-01  4.404588338E+00  5.543050573E+00  0.000000000E+00  0.00000E+00  9.000E+00
</event>
<event>
      5  10001  3.52971E+09  3.10999E+00 -1.00000E+00  2.92192E-01
       2    -1     0     0   512     0  0.000000000E+00  0.000000000E+00  1.205047971E+03  1.205047971E+03  0.000000000E+00  0.00000E+00  9.000E+00
      21    -1     0     0   516   513  0.000000000E+00  0.000000000E+00 -1.682748873E+00  1.682748873E+00  0.000000000E+00  0.00000E+00  9.000E+00
      21     1     1     2   512   513 -9.931123008E+00 -6.755048648E+00  5.467444287E+02  5.468763372E+02  1.078959322E-05  0.00000E+00  9.000E+00
       2     1     1     2   511     0  7.549076518E+00  4.755698290E+00  6.566831551E+02  6.567438468E+02  3.300000131E-01  0.00000E+00  9.000E+00
      21     1     1     2   516   511  2.382046490E+00  1.999350358E+00 -6.236120302E-02  3.110536329E+00  5.238078913E-07  0.00000E+00  9.000E+00
</event>
<event>
      5  10001  3.52971E+09  7.01928E+00 -1.00000E+00  2.15379E-01
      21    -1     0     0   514   511  0.000000000E+00  0.000000000E+00  5.897128016E+00  5.897128016E+00  0.000000000E+00  0.00000E+00  9.000E+00
       1    -1     0     0   512     0  0.000000000E+00  0.000000000E+00 -1.807197825E+02  1.807197825E+02  0.000000000E+00  0.00000E+00  9.000E+00
      21     1     1     2   515   511  9.924936971E+00  5.568077644E+00 -1.135260423E+00  1.143663756E+01  1.373819181E-07  0.00000E+00  9.000E+00
       1     1     1     2   514     0 -7.633416465E+00 -1.220244861E+01 -8.455482284E+01  8.577176554E+01  3.300000131E-01  0.00000E+00  9.000E+00
      21     1     1     2   512   515 -2.291520505E+00  6.634370970E+00 -8.913257124E+01  8.940850742E+01  1.348699152E-06  0.00000E+00  9.000E+00
</event>
<event>
      5  10001  3.52971E+09  1.76602E+01 -1.00000E+00  1.70951E-01
      21    -1     0     0   512   513  0.000000000E+00  0.000000000E+00  3.424892552E+00  3.424892552E+00  0.000000000E+00  0.00000E+00  9.000E+00
       2    -1     0     0   511     0  0.000000000E+00  0.000000000E+00 -3.038584060E+02  3.038584060E+02  0.000000000E+00  0.00000E+00  9.000E+00
      21     1     1     2   511   513  2.284960398E+01 -1.409904906E+01 -7.284971878E+01  7.763999686E+01  1.907348633E-06  0.00000E+00  9.000E+00
      21     1     1     2   512   514 -7.519339700E+00  1.732038464E+00 -1.215787035E+02  1.218233211E+02  1.907348633E-06  0.00000E+00  9.000E+00
       2     1     1     2   514     0 -1.533026428E+01  1.236701060E+01 -1.060050912E+02  1.078199806E+02  3.300000131E-01  0.00000E+00  9.000E+00
</event>
<event>
      5  10001  3.52971E+09  7.31485E+00 -1.00000E+00  2.12883E-01
      21    -1     0     0   515   513  0.000000000E+00  0.000000000E+00  2.117952352E+01  2.117952352E+01  0.000000000E+00  0.00000E+00  9.000E+00
      21    -1     0     0   512   516  0.000000000E+00  0.000000000E+00 -2.640340209E+01  2.640340209E+01  0.000000000E+00  0.00000E+00  9.000E+00
      21     1     1     2   515   516  1.146927953E+01  1.407270820E+01  8.137886408E+00  1.989499144E+01  1.685873940E-07  0.00000E+00  9.000E+00
      21     1     1     2   511   513 -7.270637941E+00 -8.082846955E+00  1.642941558E+00  1.099517385E+01  1.775678290E-07  0.00000E+00  9.000E+00
      21     1     1     2   512   511 -4.198641586E+00 -5.989861249E+00 -1.500470653E+01  1.669276032E+01  1.685873940E-07  0.00000E+00  9.000E+00
</event>
<event>
      5  10001  3.52971E+09  7.13885E+00 -1.00000E+00  2.14349E-01
      21    -1     0     0   514   515  0.000000000E+00  0.000000000E+00  4.573591805E+01  4.573591805E+01  0.000000000E+00  0.00000E+00  9.000E+00
      21    -1     0     0   512   514  0.000000000E+00  0.000000000E+00 -2.252235846E+02  2.252235846E+02  0.000000000E+00  0.00000E+00  9.000E+00
      21     1     1     2   511   513  2.609545592E+00 -2.251757559E+01 -2.865771812E+01  3.653923571E+01  1.430511475E-06  0.00000E+00  9.000E+00
      21     1     1     2   512   511 -9.664689084E+00  2.142756896E+01 -1.915966543E+02  1.930332222E+02  3.814697266E-06  0.00000E+00  9.000E+00
      21     1     1     2   513   515  7.055143492E+00  1.090006625E+00  4.076670589E+01  4.138704475E+01  4.768371582E-07  0.00000E+00  9.000E+00
</event>
<event>
      5  10001  3.52971E+09  1.47831E+01 -1.00000E+00  1.77978E-01
      21    -1     0     0   516   511  0.000000000E+00  0.000000000E+00  8.644015172E+01  8.644015172E+01  0.000000000E+00  0.00000E+00  9.000E+00
      21    -1     0     0   515   516  0.000000000E+00  0.000000000E+00 -3.748098214E+00  3.748098214E+00  0.000000000E+00  0.00000E+00  9.000E+00
      21     1     1     2   512   511  6.488933672E-01 -1.070472436E+01  2.626002725E+01  2.836549343E+01  3.371747881E-07  0.00000E+00  9.000E+00
      21     1     1     2   515   514 -3.845661436E+00  1.738678539E+01  4.128312145E+01  4.495982134E+01  4.768371582E-07  0.00000E+00  9.000E+00
      21     1     1     2   514   512  3.196768068E+00 -6.682061029E+00  1.514890480E+01  1.686293517E+01  1.685873940E-07  0.00000E+00  9.000E+00
</event>
<event>
      5  10001  3.52971E+09  6.48380E+00 -1.00000E+00  2.20360E-01
      21    -1     0     0   513   511  0.000000000E+00  0.000000000E+00  6.408377273E+01  6.408377273E+01  0.000000000E+00  0.00000E+00  9.000E+00
      21    -1     0     0   517   513  0.000000000E+00  0.000000000E+00 -1.218108332E+02  1.218108332E+02  0.000000000E+00  0.00000E+00  9.000E+00
      21     1     1     2   517   512 -5.730231551E+00  8.315246288E+00 -1.209989424E+02  1.214196151E+02  0.000000000E+00  0.00000E+00  9.000E+00
      21     1     1     2   515   511  4.494612339E-04 -2.958805816E+00  3.531254711E+01  3.543628812E+01  1.168007728E-06  0.00000E+00  9.000E+00
      21     1     1     2   512   515  5.729782089E+00 -5.356440472E+00  2.795933475E+01  2.903870274E+01  8.920806376E-07  0.00000E+00  9.000E+00
</event>
<event>
      5  10001  3.52971E+09  5.53690E+00 -1.00000E+00  2.31023E-01
      21    -1     0     0   514   511  0.000000000E+00  0.000000000E+00  2.298595070E+00  2.298595070E+00  0.000000000E+00  0.00000E+00  9.000E+00
      21    -1     0     0   512   516  0.000000000E+00  0.000000000E+00 -3.123221004E+02  3.123221004E+02  0.000000000E+00  0.00000E+00  9.000E+00
      21     1     1     2   514   516 -1.211494043E+01  5.819006879E+00 -2.234038645E+02  2.238077731E+02  4.672030912E-06  0.00000E+00  9.000E+00
      21     1     1     2   512   515  1.764610526E+01 -6.071062417E+00 -8.016704278E+01  8.231037345E+01  2.336015456E-06  0.00000E+00  9.000E+00
      21     1     1     2   515   511 -5.531164835E+00  2.520555375E-01 -6.452598002E+00  8.502548877E+00  2.384185791E-07  0.00000E+00  9.000E+00
</event>
<event>
      5  10001  3.52971E+09  3.36610E+00 -1.00000E+00  2.82465E-01
      21    -1     0     0   513   515  0.000000000E+00  0.000000000E+00  2.749313100E+00  2.749313100E+00  0.000000000E+00  0.00000E+00  9.000E+00
       3    -1     0     0   511     0  0.000000000E+00  0.000000000E+00 -2.647045230E+02  2.647045230E+02  0.000000000E+00  0.00000E+00  9.000E+00
      21     1     1     2   512   515  8.442280871E+00  3.466121896E+00 -7.556173898E+00  1.184828558E+01  2.920019320E-07  0.00000E+00  9.000E+00
      21     1     1     2   511   512 -1.180762024E+01 -3.515712048E+00 -6.393758867E+01  6.511371109E+01  9.536743164E-07  0.00000E+00  9.000E+00
       3     1     1     2   513     0  3.365339369E+00  4.959015195E-02 -1.904614473E+02  1.904918394E+02  5.000000000E-01  0.00000E+00  9.000E+00
</event>
<event>
      5  10001  3.52971E+09  7.25697E+00 -1.00000E+00  2.13359E-01
      21    -1     0     0   511   514  0.000000000E+00  0.000000000E+00  1.350603955E+01  1.350603955E+01  0.000000000E+00  0.00000E+00  9.000E+00
      21    -1     0     0   514   513  0.000000000E+00  0.000000000E+00 -1.282105073E+02  1.282105073E+02  0.000000000E+00  0.00000E+00  9.000E+00
      -2     1     1     2     0   512 -1.089946001E+01  2.641161924E-01  6.783215267E+00  1.284480032E+01  3.300000131E-01  0.00000E+00  9.000E+00
      21     1     1     2   512   513  1.585960013E+01  5.032315904E+00 -1.203793117E+02  1.215237829E+02  1.348699152E-06  0.00000E+00  9.000E+00
       2     1     1     2   511     0 -4.960140118E+00 -5.296432097E+00 -1.108371329E+00  7.347963661E+00  3.300000131E-01  0.00000E+00  9.000E+00
</event>
<event>
      5  10001  3.52971E+09  7.09145E+00 -1.00000E+00  2.14754E-01
       2    -1     0     0   512     0  0.000000000E+00  0.000000000E+00  1.249256435E+01  1.249256435E+01  0.000000000E+00  0.00000E+00  9.000E+00
      21    -1     0     0   511   513  0.000000000E+00  0.000000000E+00 -2.486915388E+01  2.486915388E+01  0.000000000E+00  0.00000E+00  9.000E+00
      21     1     1     2   514   513  2.692096909E+00 -4.709348048E+00 -6.191387135E+00  8.231562395E+00  1.460009660E-07  0.00000E+00  9.000E+00
       2     1     1     2   511     0 -6.638471951E+00  7.197731761E+00  8.963739137E+00  1.327908776E+01  3.300000131E-01  0.00000E+00  9.000E+00
      21     1     1     2   512   514  3.946375042E+00 -2.488383713E+00 -1.514894154E+01  1.585106808E+01  2.384185791E-07  0.00000E+00  9.000E+00
</event>
<event>
      5  10001  3.52971E+09  2.19031E+01 -1.00000E+00  1.63173E-01
       1    -1     0     0   513     0  0.000000000E+00  0.000000000E+00  7.516620911E+01  7.516620911E+01  0.000000000E+00  0.00000E+00  9.000E+00
      21    -1     0     0   515   513  0.000000000E+00  0.000000000E+00 -9.833848088E+00  9.833848088E+00  0.000000000E+00  0.00000E+00  9.000E+00
      21     1     1     2   515   512  1.319732151E+01 -8.775411892E+00  1.018182301E+01  1.883737426E+01  0.000000000E+00  0.00000E+00  9.000E+00
       1     1     1     2   511     0 -1.318325390E+01  1.506371182E+01  5.631460910E+01  5.976753044E+01  3.300000131E-01  0.00000E+00  9.000E+00
      21     1     1     2   512   511 -1.406760946E-02 -6.288299933E+00 -1.164071092E+00  6.395152496E+00  2.133521596E-07  0.00000E+00  9.000E+00
</event>
<event>
      5  10001  3.52971E+09  3.78093E+00 -1.00000E+00  2.69362E-01
      21    -1     0     0   514   511  0.000000000E+00  0.000000000E+00  1.712650523E+01  1.712650523E+01  0.000000000E+00  0.00000E+00  9.000E+00
      21    -1     0     0   513   516  0.000000000E+00  0.000000000E+00 -3.766374888E+01  3.766374888E+01  0.000000000E+00  0.00000E+00  9.000E+00
      21     1     1     2   514   516  8.543061544E+00  1.240370318E+01  1.080889970E+01  1.853828649E+01  4.460403188E-07  0.00000E+00  9.000E+00
      21     1     1     2   512   511 -7.360641903E+00 -8.812423651E+00 -1.226898712E+01  1.680374675E+01  2.920019320E-07  0.00000E+00  9.000E+00
      21     1     1     2   513   512 -1.182419641E+00 -3.591279528E+00 -1.907715624E+01  1.944822087E+01  0.000000000E+00  0.00000E+00  9.000E+00
</event>
<event>
      5  10001  3.52971E+09  4.36243E+00 -1.00000E+00  2.54891E-01
      21    -1     0     0   511   512  0.000000000E+00  0.000000000E+00  7.180711303E+01  7.180711303E+01  0.000000000E+00  0.00000E+00  9.000E+00
      21    -1     0     0   513   517  0.000000000E+00  0.000000000E+00 -3.396122124E+00  3.396122124E+00  0.000000000E+00  0.00000E+00  9.000E+00
      21     1     1     2   515   517 -5.881077250E+00 -6.562987669E+00  6.169077211E+00  1.075720179E+01  1.884864366E-07  0.00000E+00  9.000E+00
      21     1     1     2   513   512  1.020663691E+01  5.997038807E+00  5.168305304E+01  5.302148511E+01  1.168007728E-06  0.00000E+00  9.000E+00
      21     1     1     2   511   515 -4.325559660E+00  5.659488616E-01  1.055886065E+01  1.142454825E+01  1.685873940E-07  0.00000E+00  9.000E+00
</event>
<event>
      5  10001  3.52971E+09  7.65446E+00 -1.00000E+00  2.10204E-01
       1    -1     0     0   514     0  0.000000000E+00  0.000000000E+00  7.376406853E-01  7.376406853E-01  0.000000000E+00  0.00000E+00  9.000E+00
       1    -1     0     0   511     0  0.000000000E+00  0.000000000E+00 -1.544256558E+02  1.544256558E+02  0.000000000E+00  0.00000E+00  9.000E+00
       1     1     1     2   511     0  4.160056595E+00 -8.065805740E+00 -4.875960946E+01  4.959810185E+01  3.300000131E-01  0.00000E+00  9.000E+00
      21     1     1     2   514   512 -4.786603172E+00  2.740360306E+00 -3.513008509E+01  3.556042777E+01  6.743495762E-07  0.00000E+00  9.000E+00
       1     1     1     2   512     0  6.265465764E-01  5.325445434E+00 -6.979832052E+01  7.000476681E+01  3.300000131E-01  0.00000E+00  9.000E+00
</event>
<event>
      5  10001  3.52971E+09  4.80048E+00 -1.00000E+00  2.46092E-01
      21    -1     0     0   513   516  0.000000000E+00  0.000000000E+00  2.044148760E+01  2.044148760E+01  0.000000000E+00  0.00000E+00  9.000E+00
      21    -1     0     0   511   515  0.000000000E+00  0.000000000E+00 -7.127273434E+00  7.127273434E+00  0.000000000E+00  0.00000E+00  9.000E+00
      21     1     1     2   513   515  6.087480117E+00  8.930264435E+00  6.985304331E+00  1.286862517E+01  8.429369702E-08  0.00000E+00  9.000E+00
      21     1     1     2   514   516 -7.426649923E+00 -5.967115934E+00  6.348501994E+00  1.144836579E+01  2.064765462E-07  0.00000E+00  9.000E+00
      21     1     1     2   511   514  1.339169806E+00 -2.963148501E+00 -1.959215881E-02  3.251770081E+00  5.176909648E-08  0.00000E+00  9.000E+00
</event>
<event>
      5  10001  3.52971E+09  9.27399E+00 -1.00000E+00  1.99614E-01
      21    -1     0     0   512   514  0.000000000E+00  0.000000000E+00  1.046940499E+02  1.046940499E+02  0.000000000E+00  0.00000E+00  9.000E+00
      21    -1     0     0   511   517  0.000000000E+00  0.000000000E+00 -8.476212919E+00  8.476212919E+00  0.000000000E+00  0.00000E+00  9.000E+00
      21     1     1     2   512   517  1.131866007E+01 -9.302424033E-01 -3.089696598E+00  1.176960670E+01  2.920019320E-07  0.00000E+00  9.000E+00
      21     1     1     2   511   513 -4.829773944E+00 -2.472073101E+00  8.630940311E+01  8.647977178E+01  9.536743164E-07  0.00000E+00  9.000E+00
      21     1     1     2   513   514 -6.488886128E+00  3.402315504E+00  1.299813049E+01  1.492088436E+01  2.920019320E-07  0.00000E+00  9.000E+00
</event>
<event>
      5  10001  3.52971E+09  4.96757E+00 -1.00000E+00  2.43099E-01
      21    -1     0     0   513   512  0.000000000E+00  0.000000000E+00  2.204218142E+02  2.204218142E+02  0.000000000E+00  0.00000E+00  9.000E+00
       1    -1     0     0   514     0  0.000000000E+00  0.000000000E+00 -2.356476550E+02  2.356476550E+02  0.000000000E+00  0.00000E+00  9.000E+00
      21     1     1     2   514   511  9.220890860E+00 -3.024711620E+01 -9.922789713E+00  3.314173535E+01  8.840797528E-07  0.00000E+00  9.000E+00
       1     1     1     2   513     0 -5.401175472E+00  3.342304799E+01 -2.127469624E+02  2.154243528E+02  3.300000131E-01  0.00000E+00  9.000E+00
      21     1     1     2   511   512 -3.819715388E+00 -3.175931797E+00  2.074439114E+02  2.075033811E+02  0.000000000E+00  0.00000E+00  9.000E+00
</event>
<event>
      5  10001  3.52971E+09  7.34675E+00 -1.00000E+00  2.12623E-01
      21    -1     0     0   515   512  0.000000000E+00  0.000000000E+00  5.349715097E+01  5.349715097E+01  0.000000000E+00  0.00000E+00  9.000E+00
       2    -1     0     0   511     0  0.000000000E+00  0.000000000E+00 -7.970795705E+02  7.970795705E+02  0.000000000E+00  0.00000E+00  9.000E+00
      21     1     1     2   511   512 -8.617141836E+00  1.808753008E+01  5.101466123E+01  5.480793317E+01  2.611744678E-06  0.00000E+00  9.000E+00
       2     1     1     2   513     0  1.454724749E+01 -1.910794414E+01 -7.723198134E+02  7.726931726E+02  3.300000131E-01  0.00000E+00  9.000E+00
      21     1     1     2   515   513 -5.930105656E+00  1.020414057E+00 -2.227726733E+01  2.307561565E+01  3.371747881E-07  0.00000E+00  9.000E+00
</event>
<event>
      5  10001  3.52971E+09  6.50099E+00 -1.00000E+00  2.20190E-01
      21    -1     0     0   514   512  0.000000000E+00  0.000000000E+00  2.192128132E+00  2.192128132E+00  0.000000000E+00  0.00000E+00  9.000E+00
      21    -1     0     0   511   516  0.000000000E+00  0.000000000E+00 -1.439267794E+02  1.439267794E+02  0.000000000E+00  0.00000E+00  9.000E+00
      21     1     1     2   514   516  7.392209938E+00 -6.465489838E+00 -1.239821185E+02  1.243704669E+02  0.000000000E+00  0.00000E+00  9.000E+00
      21     1     1     2   517   512 -7.687808228E+00  4.688119439E+00 -1.779790670E+01  1.994608588E+01  3.371747881E-07  0.00000E+00  9.000E+00
      21     1     1     2   511   517  2.955982903E-01  1.777370399E+00  4.537392965E-02  1.802354759E+00  1.071203161E-07  0.00000E+00  9.000E+00
</event>
<event>
      5  10001  3.52971E+09  8.51144E+00 -1.00000E+00  2.04208E-01
      21    -1     0     0   513   514  0.000000000E+00  0.000000000E+00  6.996373415E+00  6.996373415E+00  0.000000000E+00  0.00000E+00  9.000E+00
      -3    -1     0     0     0   513  0.000000000E+00  0.000000000E+00 -1.583198460E+02  1.583198460E+02  0.000000000E+00  0.00000E+00  9.000E+00
      -3     1     1     2     0   512 -1.756556505E+01  1.173945845E+01 -1.187502709E+02  1.206160884E+02  5.000000000E-01  0.00000E+00  9.000E+00
      21     1     1     2   512   511  2.065716393E+01 -3.809928851E+00 -2.810569940E+01  3.508795118E+01  3.371747881E-07  0.00000E+00  9.000E+00
      21     1     1     2   511   514 -3.091598886E+00 -7.929529601E+00 -4.467502324E+00  9.612179794E+00  2.149076030E-07  0.00000E+00  9.000E+00
</event>
<event>
      5  10001  3.52971E+09  6.10770E+00 -1.00000E+00  2.24272E-01
      21    -1     0     0   515   514  0.000000000E+00  0.000000000E+00  1.459436066E+00  1.459436066E+00  0.000000000E+00  0.00000E+00  9.000E+00
      21    -1     0     0   511   515  0.000000000E+00  0.000000000E+00 -8.965363168E+02  8.965363168E+02  0.000000000E+00  0.00000E+00  9.000E+00
      -3     1     1     2     0   514 -1.043917441E+01  8.832371236E-01 -1.901447096E+01  2.171535346E+01  5.000000000E-01  0.00000E+00  9.000E+00
      21     1     1     2   511   512  8.591117461E+00 -5.038742968E+00 -8.093502944E+02  8.094115735E+02  1.078959322E-05  0.00000E+00  9.000E+00
       3     1     1     2   512     0  1.848056945E+00  4.155505844E+00 -6.671211537E+01  6.686882592E+01  5.000000000E-01  0.00000E+00  9.000E+00
</event>
<event>
      5  10001  3.52971E+09  5.02178E+00 -1.00000E+00  2.38180E-01
      21    -1     0     0   512   511  0.000000000E+00  0.000000000E+00  1.405988133E+01  1.405988133E+01  0.000000000E+00  0.00000E+00  9.000E+00
       1    -1     0     0   513     0  0.000000000E+00  0.000000000E+00 -2.033781679E+02  2.033781679E+02  0.000000000E+00  0.00000E+00  9.000E+00
      21     1     1     2   513   511 -7.801991609E+00  1.068058575E+01  1.033212556E+01  1.678388524E+01  4.129530925E-07  0.00000E+00  9.000E+00
       1     1     1     2   514     0  7.507243738E+00 -1.403602289E+01 -1.812566915E+02  1.819545706E+02  3.300000131E-01  0.00000E+00  9.000E+00
      21     1     1     2   512   514  2.947478705E-01  3.355437140E+00 -1.839372063E+01  1.869959340E+01  0.000000000E+00  0.00000E+00  9.000E+00
</event>
<event>
      5  10001  3.52971E+09  1.01564E+01 -1.00000E+00  1.94977E-01
      21    -1     0     0   515   513  0.000000000E+00  0.000000000E+00  2.225189967E+01  2.225189967E+01  0.000000000E+00  0.00000E+00  9.000E+00
      21    -1     0     0   511   517  0.000000000E+00  0.000000000E+00 -2.959938076E+02  2.959938076E+02  0.000000000E+00  0.00000E+00  9.000E+00
      21     1     1     2   515   516 -8.227603462E+00  7.789763012E+00  1.992207866E+01  2.291861873E+01  8.259061849E-07  0.00000E+00  9.000E+00
      21     1     1     2   511   513 -4.448396748E-01 -1.307567357E+01 -5.855469163E+01  5.999852526E+01  9.536743164E-07  0.00000E+00  9.000E+00
      21     1     1     2   516   517  8.672443136E+00  5.285910553E+00 -2.351092950E+02  2.353285633E+02  0.000000000E+00  0.00000E+00  9.000E+00
</event>
<event>
      5  10001  3.52971E+09  1.22181E+01 -1.00000E+00  1.86205E-01
      21    -1     0     0   512   511  0.000000000E+00  0.000000000E+00  2.493661829E+01  2.493661829E+01  0.000000000E+00  0.00000E+00  9.000E+00
      21    -1     0     0   514   512  0.000000000E+00  0.000000000E+00 -6.230581634E+01  6.230581634E+01  0.000000000E+00  0.00000E+00  9.000E+00
      21     1     1     2   514   517 -1.171587694E+01  1.106075144E+01 -5.687948465E+01  5.911749122E+01  6.743495762E-07  0.00000E+00  9.000E+00
      21     1     1     2   513   511  1.429054558E+00 -9.775252700E+00  9.991636905E+00  1.405099891E+01  5.196212463E-07  0.00000E+00  9.000E+00
      21     1     1     2   517   513  1.028682238E+01 -1.285498742E+00  9.518649690E+00  1.407394449E+01  4.768371582E-07  0.00000E+00  9.000E+00
</event>
<event>
      5  10001  3.52971E+09  1.26013E+01 -1.00000E+00  1.84819E-01
      21    -1     0     0   512   511  0.000000000E+00  0.000000000E+00  1.729692437E+02  1.729692437E+02  0.000000000E+00  0.00000E+00  9.000E+00
      21    -1     0     0   516   515  0.000000000E+00  0.000000000E+00 -1.546096147E+01  1.546096147E+01  0.000000000E+00  0.00000E+00  9.000E+00
      21     1     1     2   513   511  1.014368560E+01 -1.078170940E+01  5.728429334E+01  5.916612104E+01  1.348699152E-06  0.00000E+00  9.000E+00
      21     1     1     2   516   513  2.087426004E+00  1.381378043E+01 -1.071824665E+01  1.760848342E+01  4.915124924E-07  0.00000E+00  9.000E+00
      21     1     1     2   512   515 -1.223111160E+01 -3.032071029E+00  1.109422355E+02  1.116556007E+02  1.348699152E-06  0.00000E+00  9.000E+00
</event>
<event>
      5  10001  3.52971E+09  1.17822E+01 -1.00000E+00  1.87864E-01
      21    -1     0     0   514   515  0.000000000E+00  0.000000000E+00  2.861802597E+01  2.861802597E+01  0.000000000E+00  0.00000E+00  9.000E+00
      21    -1     0     0   511   513  0.000000000E+00  0.000000000E+00 -3.554138644E+01  3.554138644E+01  0.000000000E+00  0.00000E+00  9.000E+00
      21     1     1     2   514   517  1.190230330E+01 -1.063222327E+01 -1.098155974E+01  1.937275535E+01  5.196212463E-07  0.00000E+00  9.000E+00
      21     1     1     2   511   515 -1.042561260E+01 -1.057051489E+00  2.139599025E+01  2.382433955E+01  4.129530925E-07  0.00000E+00  9.000E+00
      21     1     1     2   517   513 -1.476690692E+00  1.168927475E+01 -1.733779098E+01  2.096231751E+01  3.371747881E-07  0.00000E+00  9.000E+00
</event>
<event>
      5  10001  3.52971E+09  1.00844E+01 -1.00000E+00  1.95331E-01
      21    -1     0     0   512   511  0.000000000E+00  0.000000000E+00  5.802412895E+01  5.802412895E+01  0.000000000E+00  0.00000E+00  9.000E+00
      21    -1     0     0   517   516  0.000000000E+00  0.000000000E+00 -6.721484946E+00  6.721484946E+00  0.000000000E+00  0.00000E+00  9.000E+00
      21     1     1     2   512   516  1.136923245E+01 -6.552227935E+00  4.199882140E+00  1.377788617E+01  1.976862425E-07  0.00000E+00  9.000E+00
      21     1     1     2   517   514 -6.225751091E+00  1.898475381E+00  4.162077283E+01  4.212662954E+01  6.743495762E-07  0.00000E+00  9.000E+00
      21     1     1     2   514   511 -5.143481360E+00  4.653752554E+00  5.481989036E+00  8.841098185E+00  5.960464478E-08  0.00000E+00  9.000E+00
</event>
<event>
      5  10001  3.52971E+09  7.91595E+00 -1.00000E+00  2.08267E-01
      21    -1     0     0   514   511  0.000000000E+00  0.000000000E+00  8.547446325E+00  8.547446325E+00  0.000000000E+00  0.00000E+00  9.000E+00
       1    -1     0     0   511     0  0.000000000E+00  0.000000000E+00 -4.082772269E+02  4.082772269E+02  0.000000000E+00  0.00000E+00  9.000E+00
      21     1     1     2   514   513  8.334195768E+00 -6.422577101E+00  4.942190514E+00  1.162469625E+01  5.778884718E-07  0.00000E+00  9.000E+00
       1     1     1     2   512     0 -4.798750680E+00 -2.130105112E-01 -3.477808038E+02  3.478141310E+02  3.300000131E-01  0.00000E+00  9.000E+00
      21     1     1     2   513   512 -3.535445088E+00  6.635587612E+00 -5.689116735E+01  5.738584597E+01  6.743495762E-07  0.00000E+00  9.000E+00
</event>
<event>
      5  10001  3.52971E+09  1.68730E+01 -1.00000E+00  1.72697E-01
      21    -1     0     0   515   512  0.000000000E+00  0.000000000E+00  1.800902764E+01  1.800902764E+01  0.000000000E+00  0.00000E+00  9.000E+00
      21    -1     0     0   511   514  0.000000000E+00  0.000000000E+00 -5.098432787E+01  5.098432787E+01  0.000000000E+00  0.00000E+00  9.000E+00
      21     1     1     2   511   516 -1.551632842E+01  2.429551091E+00 -1.959727763E+01  2.511398927E+01  5.331201500E-07  0.00000E+00  9.000E+00
      21     1     1     2   516   512  6.132128156E+00  1.159309156E+01  8.961123400E+00  1.588409583E+01  2.064765462E-07  0.00000E+00  9.000E+00
      21     1     1     2   515   514  9.384200266E+00 -1.402264265E+01 -2.233914600E+01  2.799527042E+01  0.000000000E+00  0.00000E+00  9.000E+00
</event>
<event>
      5  10001  3.52971E+09  4.11428E+00 -1.00000E+00  2.60612E-01
      21    -1     0     0   513   511  0.000000000E+00  0.000000000E+00  6.841341647E+01  6.841341647E+01  0.000000000E+00  0.00000E+00  9.000E+00
      21    -1     0     0   512   513  0.000000000E+00  0.000000000E+00 -1.017976976E+01  1.017976976E+01  0.000000000E+00  0.00000E+00  9.000E+00
      21     1     1     2   514   511 -2.272712838E+00 -8.020178269E+00  5.032348702E+01  5.100923278E+01  0.000000000E+00  0.00000E+00  9.000E+00
      21     1     1     2   517   514  4.947957226E+00  1.114593244E+01  1.503357919E+01  1.935775282E+01  5.840038640E-07  0.00000E+00  9.000E+00
      21     1     1     2   512   517 -2.675244387E+00 -3.125754175E+00 -7.123419498E+00  8.226200644E+00  2.665600750E-07  0.00000E+00  9.000E+00
</event>
<event>
      5  10001  3.52971E+09  5.11243E+00 -1.00000E+00  2.36834E-01
      21    -1     0     0   515   513  0.000000000E+00  0.000000000E+00  1.790359979E+01  1.790359979E+01  0.000000000E+00  0.00000E+00  9.000E+00
      21    -1     0     0   511   516  0.000000000E+00  0.000000000E+00 -1.924800384E+02  1.924800384E+02  0.000000000E+00  0.00000E+00  9.000E+00
      21     1     1     2   515   516 -8.833439733E+00  8.617386768E+00  7.080855461E+00  1.422770278E+01  2.528810911E-07  0.00000E+00  9.000E+00
      21     1     1     2   511   512  3.997592624E+00 -6.958624159E+00 -1.879088363E+02  1.880801264E+02  0.000000000E+00  0.00000E+00  9.000E+00
      21     1     1     2   512   513  4.835847109E+00 -1.658762609E+00  6.251542223E+00  8.075808988E+00  3.039252468E-07  0.00000E+00  9.000E+00
</event>
<event>
      5  10001  3.52971E+09  6.40419E+00 -1.00000E+00  2.21157E-01
      -1    -1     0     0     0   513  0.000000000E+00  0.000000000E+00  3.950615222E+01  3.950615222E+01  0.000000000E+00  0.00000E+00  9.000E+00
      21    -1     0     0   512   514  0.000000000E+00  0.000000000E+00 -1.769088569E+01  1.769088569E+01  0.000000000E+00  0.00000E+00  9.000E+00
      -1     1     1     2     0   514  1.534553454E+01  9.198392519E+00  3.168729537E+01  3.639078789E+01  3.300000131E-01  0.00000E+00  9.000E+00
      21     1     1     2   512   511 -4.868364242E+00 -3.538139957E+00 -1.364226591E+00  6.170941496E+00  1.959941750E-07  0.00000E+00  9.000E+00
      21     1     1     2   511   513 -1.047717030E+01 -5.660252561E+00 -8.507802246E+00  1.463530852E+01  4.616955931E-07  0.00000E+00  9.000E+00
</event>
<event>
      5  10001  3.52971E+09  7.67971E+00 -1.00000E+00  2.10013E-01
      21    -1     0     0   515   511  0.000000000E+00  0.000000000E+00  1.485957663E+00  1.485957663E+00  0.000000000E+00  0.00000E+00  9.000E+00
      21    -1     0     0   513   515  0.000000000E+00  0.000000000E+00 -4.509354794E+02  4.509354794E+02  0.000000000E+00  0.00000E+00  9.000E+00
      21     1     1     2   512   511 -6.492072038E+00 -1.595372512E+01 -6.241241422E+01  6.474548473E+01  1.348699152E-06  0.00000E+00  9.000E+00
      21     1     1     2   514   512  8.608845337E+00  9.946232142E+00 -3.338102666E+02  3.340693548E+02  5.394796609E-06  0.00000E+00  9.000E+00
      21     1     1     2   513   514 -2.116773299E+00  6.007492978E+00 -5.322684091E+01  5.360659749E+01  1.168007728E-06  0.00000E+00  9.000E+00
</event>
<event>
      5  10001  3.52971E+09  2.25543E+01 -1.00000E+00  1.62171E-01
      -3    -1     0     0     0   516  0.000000000E+00  0.000000000E+00  1.732619476E+02  1.732619476E+02  0.000000000E+00  0.00000E+00  9.000E+00
      21    -1     0     0   512   514  0.000000000E+00  0.000000000E+00 -1.279676039E+01  1.279676039E+01  0.000000000E+00  0.00000E+00  9.000E+00
      -3     1     1     2     0   511  3.038638452E+00 -6.387527306E+00  9.201582934E+01  9.228865953E+01  5.000000000E-01  0.00000E+00  9.000E+00
      21     1     1     2   512   516 -2.084237277E+01 -1.872679847E+00 -1.634329763E+00  2.099005637E+01  7.762918638E-07  0.00000E+00  9.000E+00
      21     1     1     2   511   514  1.780373432E+01  8.260207153E+00  7.008368767E+01  7.277999214E+01  1.651812370E-06  0.00000E+00  9.000E+00
</event>
<event>
      5  10001  3.52971E+09  6.51989E+00 -1.00000E+00  2.20003E-01
      21    -1     0     0   513   511  0.000000000E+00  0.000000000E+00  6.902372819E+00  6.902372819E+00  0.000000000E+00  0.00000E+00  9.000E+00
      21    -1     0     0   515   513  0.000000000E+00  0.000000000E+00 -2.421458213E+02  2.421458213E+02  0.000000000E+00  0.00000E+00  9.000E+00
      21     1     1     2   515   514  5.811127365E+00 -1.386276997E+01 -2.247041220E+02  2.252063233E+02  4.672030912E-06  0.00000E+00  9.000E+00
      21     1     1     2   514   512 -4.307291570E-01  1.427511969E+01 -3.037817893E+00  1.460112692E+01  6.650660516E-07  0.00000E+00  9.000E+00
      21     1     1     2   512   511 -5.380398208E+00 -4.123497202E-01 -7.501508535E+00  9.240743881E+00  8.429369702E-08  0.00000E+00  9.000E+00
</event>
<event>
      5  10001  3.52971E+09  6.16883E+00 -1.00000E+00  2.23610E-01
      -4    -1     0     0     0   511  0.000000000E+00  0.000000000E+00  1.936430403E+02  1.936430403E+02  0.000000000E+00  0.00000E+00  9.000E+00
      21    -1     0     0   514   513  0.000000000E+00  0.000000000E+00 -8.754005236E+00  8.754005236E+00  0.000000000E+00  0.00000E+00  9.000E+00
      -4     1     1     2     0   513 -9.287272074E+00 -2.374873891E+00  1.787912274E+02  1.790543114E+02  1.500000000E+00  0.00000E+00  9.000E+00
      21     1     1     2   512   511  1.495842921E+01 -4.702064881E-02  4.263063615E-01  1.496457659E+01  6.918817909E-07  0.00000E+00  9.000E+00
      21     1     1     2   514   512 -5.671157135E+00  2.421894540E+00  5.671501329E+00  8.378157538E+00  1.192092896E-07  0.00000E+00  9.000E+00
</event>
<event>
      5  10001  3.52971E+09  1.49695E+01 -1.00000E+00  1.77463E-01
      21    -1     0     0   512   511  0.000000000E+00  0.000000000E+00  7.112497967E+00  7.112497967E+00  0.000000000E+00  0.00000E+00  9.000E+00
      21    -1     0     0   515   512  0.000000000E+00  0.000000000E+00 -2.347427041E+01  2.347427041E+01  0.000000000E+00  0.00000E+00  9.000E+00
      -2     1     1     2     0   511 -2.356840477E+00  8.691846882E+00 -3.193067700E+00  9.560725946E+00  3.300000131E-01  0.00000E+00  9.000E+00
       2     1     1     2   513     0  5.233252366E+00 -7.406116833E-01 -1.113385983E+01  1.232911881E+01  3.300000131E-01  0.00000E+00  9.000E+00
      21     1     1     2   515   513 -2.876411889E+00 -7.951235199E+00 -2.034844911E+00  8.696923615E+00  7.884953353E-08  0.00000E+00  9.000E+00
</event>
<event>
      5  10001  3.52971E+09  1.84743E+01 -1.00000E+00  1.69260E-01
      21    -1     0     0   514   513  0.000000000E+00  0.000000000E+00  8.903170681E-01  8.903170681E-01  0.000000000E+00  0.00000E+00  9.000E+00
      21    -1     0     0   511   516  0.000000000E+00  0.000000000E+00 -1.267152858E+02  1.267152858E+02  0.000000000E+00  0.00000E+00  9.000E+00
      21     1     1     2   514   516 -3.978379840E+00 -5.967495646E-01 -2.057823902E+01  2.096777378E+01  2.384185791E-07  0.00000E+00  9.000E+00
      21     1     1     2   511   512 -2.406352588E+00 -2.017329561E+00 -8.808926418E+01  8.814521323E+01  9.536743164E-07  0.00000E+00  9.000E+00
      21     1     1     2   512   513  6.384732429E+00  2.614079125E+00 -1.715746556E+01  1.849261588E+01  2.384185791E-07  0.00000E+00  9.000E+00
</event>
<event>
      5  10001  3.52971E+09  5.41292E+00 -1.00000E+00  2.32642E-01
      21    -1     0     0   515   511  0.000000000E+00  0.000000000E+00  1.825484800E+01  1.825484800E+01  0.000000000E+00  0.00000E+00  9.000E+00
      21    -1     0     0   514   513  0.000000000E+00  0.000000000E+00 -8.923141318E+02  8.923141318E+02  0.000000000E+00  0.00000E+00  9.000E+00
      21     1     1     2   515   513 -1.247136692E+00  1.144322693E+01  1.623896781E+01  1.990494582E+01  7.539457465E-07  0.00000E+00  9.000E+00
      21     1     1     2   517   511 -3.786404225E+00 -9.452450872E+00 -8.422973037E+02  8.423588508E+02  0.000000000E+00  0.00000E+00  9.000E+00
      21     1     1     2   514   517  5.033540917E+00 -1.990776061E+00 -4.800094792E+01  4.830518321E+01  0.000000000E+00  0.00000E+00  9.000E+00
</event>
<event>
      5  10001  3.52971E+09  1.20902E+01 -1.00000E+00  1.86683E-01
      21    -1     0     0   512   511  0.000000000E+00  0.000000000E+00  1.003860526E+02  1.003860526E+02  0.000000000E+00  0.00000E+00  9.000E+00
      21    -1     0     0   514   516  0.000000000E+00  0.000000000E+00 -5.821292849E+01  5.821292849E+01  0.000000000E+00  0.00000E+00  9.000E+00
      21     1     1     2   512   516 -1.798716828E+01  1.331740825E+01 -5.261709491E+01  5.717910687E+01  9.536743164E-07  0.00000E+00  9.000E+00
      21     1     1     2   514   513  7.759214404E+00 -6.870531415E+00  6.344504311E+00  1.215163960E+01  4.460403188E-07  0.00000E+00  9.000E+00
      21     1     1     2   513   511  1.022795388E+01 -6.446876839E+00  8.844571472E+01  8.926823463E+01  9.536743164E-07  0.00000E+00  9.000E+00
</event>
<event>
      5  10001  3.52971E+09  6.80818E+00 -1.00000E+00  2.17268E-01
      21    -1     0     0   515   514  0.000000000E+00  0.000000000E+00  3.825636403E+02  3.825636403E+02  0.000000000E+00  0.00000E+00  9.000E+00
      21    -1     0     0   517   511  0.000000000E+00  0.000000000E+00 -2.122732208E+00  2.122732208E+00  0.000000000E+00  0.00000E+00  9.000E+00
      21     1     1     2   515   511 -6.657995479E+00 -1.139246652E+01  3.593196801E+02  3.595618857E+02  5.394796609E-06  0.00000E+00  9.000E+00
      21     1     1     2   517   512  2.365764848E+00  1.468105058E+00  4.709024559E+00  5.470565608E+00  5.960464478E-08  0.00000E+00  9.000E+00
      21     1     1     2   512   514  4.292230632E+00  9.924361457E+00  1.641220346E+01  1.965392115E+01  2.384185791E-07  0.00000E+00  9.000E+00
</event>
<event>
      5  10001  3.52971E+09  4.52407E+00 -1.00000E+00  2.51469E-01
      21    -1     0     0   513   511  0.000000000E+00  0.000000000E+00  6.911463799E+01  6.911463799E+01  0.000000000E+00  0.00000E+00  9.000E+00
      21    -1     0     0   516   515  0.000000000E+00  0.000000000E+00 -6.952853310E+00  6.952853310E+00  0.000000000E+00  0.00000E+00  9.000E+00
      21     1     1     2   513   514 -1.165340593E+01  3.611209649E+00  5.484482130E+01  5.618538180E+01  6.743495762E-07  0.00000E+00  9.000E+00
      21     1     1     2   516   511  8.155654379E+00 -6.480513332E+00  1.014998697E+01  1.454420802E+01  1.685873940E-07  0.00000E+00  9.000E+00
      21     1     1     2   514   515  3.497751550E+00  2.869303683E+00 -2.833023590E+00  5.337901479E+00  1.192092896E-07  0.00000E+00  9.000E+00
</event>
<event>
      5  10001  3.52971E+09  7.62606E+00 -1.00000E+00  2.10421E-01
      21    -1     0     0   512   515  0.000000000E+00  0.000000000E+00  1.887401724E+01  1.887401724E+01  0.000000000E+00  0.00000E+00  9.000E+00
      21    -1     0     0   514   517  0.000000000E+00  0.000000000E+00 -1.018660805E+01  1.018660805E+01  0.000000000E+00  0.00000E+00  9.000E+00
      21     1     1     2   512   517  1.083190822E+01 -6.107331383E+00  2.405067872E+00  1.266546816E+01  2.021291847E-07  0.00000E+00  9.000E+00
      21     1     1     2   511   515 -8.436750660E+00  5.361660436E-01  1.313391692E+00  8.555187517E+00  1.873046918E-07  0.00000E+00  9.000E+00
      21     1     1     2   514   511 -2.395157561E+00  5.571165339E+00  4.968949626E+00  7.839969602E+00  5.960464478E-08  0.00000E+00  9.000E+00
</event>
<event>
      5  10001  3.52971E+09  1.25422E+01 -1.00000E+00  1.85029E-01
      21    -1     0     0   513   511  0.000000000E+00  0.000000000E+00  8.630765233E+01  8.630765233E+01  0.000000000E+00  0.00000E+00  9.000E+00
      21    -1     0     0   514   516  0.000000000E+00  0.000000000E+00 -3.062575743E+00  3.062575743E+00  0.000000000E+00  0.00000E+00  9.000E+00
      21     1     1     2   513   516  6.342130376E+00  5.820110001E+00  4.717180660E+01  4.795076263E+01  6.743495762E-07  0.00000E+00  9.000E+00
      21     1     1     2   514   512 -6.589982139E+00 -2.605737268E+00  2.238711628E+00  7.431659374E+00  1.115100797E-07  0.00000E+00  9.000E+00
      21     1     1     2   512   511  2.478517633E-01 -3.214372733E+00  3.383455835E+01  3.398780607E+01  4.768371582E-07  0.00000E+00  9.000E+00
</event>
<event>
      5  10001  3.52971E+09  3.26628E+00 -1.00000E+00  2.86083E-01
      21    -1     0     0   513   514  0.000000000E+00  0.000000000E+00  1.283177812E+00  1.283177812E+00  0.000000000E+00  0.00000E+00  9.000E+00
      21    -1     0     0   517   511  0.000000000E+00  0.000000000E+00 -4.707023266E+02  4.707023266E+02  0.000000000E+00  0.00000E+00  9.000E+00
      21     1     1     2   515   511 -6.097201646E+00  9.793282342E+00 -3.048621086E+01  3.259590925E+01  1.118282261E-06  0.00000E+00  9.000E+00
      21     1     1     2   517   514  2.831241268E+00 -9.747539896E+00 -4.231742625E+02  4.232959803E+02  5.394796609E-06  0.00000E+00  9.000E+00
      21     1     1     2   513   515  3.265960378E+00 -4.574244608E-02 -1.575867543E+01  1.609361491E+01  2.384185791E-07  0.00000E+00  9.000E+00
</event>
<event>
      5  10001  3.52971E+09  2.26910E+01 -1.00000E+00  1.61966E-01
      21    -1     0     0   512   514  0.000000000E+00  0.000000000E+00  9.031236001E+01  9.031236001E+01  0.000000000E+00  0.00000E+00  9.000E+00
      21    -1     0     0   516   512  0.000000000E+00  0.000000000E+00 -7.390641197E+01  7.390641197E+01  0.000000000E+00  0.00000E+00  9.000E+00
      21     1     1     2   517   514  1.749607754E-01 -2.190980280E+01  8.488596871E+01  8.766811138E+01  0.000000000E+00  0.00000E+00  9.000E+00
      21     1     1     2   516   511 -1.112178864E+01  1.931533857E+01 -3.791470635E+01  4.398069400E+01  1.261592536E-06  0.00000E+00  9.000E+00
      21     1     1     2   511   517  1.094682786E+01  2.594464225E+00 -3.056531431E+01  3.256996660E+01  3.371747881E-07  0.00000E+00  9.000E+00
</event>
<event>
      5  10001  3.52971E+09  9.00971E+00 -1.00000E+00  2.01138E-01
      21    -1     0     0   513   514  0.000000000E+00  0.000000000E+00  4.690424840E+01  4.690424840E+01  0.000000000E+00  0.00000E+00  9.000E+00
      21    -1     0     0   515   513  0.000000000E+00  0.000000000E+00 -5.181696061E+01  5.181696061E+01  0.000000000E+00  0.00000E+00  9.000E+00
      21     1     1     2   515   517 -1.757447668E+01  2.501784492E+01 -4.052893707E+01  5.076760321E+01  6.743495762E-07  0.00000E+00  9.000E+00
      21     1     1     2   512   514  7.150797238E+00 -1.759283931E+01  1.788826914E+01  2.608892617E+01  4.129530925E-07  0.00000E+00  9.000E+00
      21     1     1     2   517   512  1.042367945E+01 -7.425005613E+00  1.772795572E+01  2.186467963E+01  2.384185791E-07  0.00000E+00  9.000E+00
</event>
<event>
      5  10001  3.52971E+09  8.84973E+00 -1.00000E+00  2.02094E-01
      21    -1     0     0   511   512  0.000000000E+00  0.000000000E+00  5.331935211E+00  5.331935211E+00  0.000000000E+00  0.00000E+00  9.000E+00
      21    -1     0     0   515   516  0.000000000E+00  0.000000000E+00 -1.701847299E+02  1.701847299E+02  0.000000000E+00  0.00000E+00  9.000E+00
      21     1     1     2   511   516 -8.691569801E+00  1.143724732E+01 -1.524226573E+02  1.530980747E+02  0.000000000E+00  0.00000E+00  9.000E+00
      21     1     1     2   515   513  6.313905414E+00 -2.454027687E+00  1.534233434E-01  6.775779822E+00  5.160132219E-07  0.00000E+00  9.000E+00
      21     1     1     2   513   512  2.377664387E+00 -8.983219632E+00 -1.258356069E+01  1.564281057E+01  2.384185791E-07  0.00000E+00  9.000E+00
</event>
<event>
      5  10001  3.52971E+09  8.22668E+00 -1.00000E+00  2.06091E-01
      21    -1     0     0   514   515  0.000000000E+00  0.000000000E+00  1.000971317E+02  1.000971317E+02  0.000000000E+00  0.00000E+00  9.000E+00
      21    -1     0     0   517   511  0.000000000E+00  0.000000000E+00 -1.002635202E+01  1.002635202E+01  0.000000000E+00  0.00000E+00  9.000E+00
      21     1     1     2   514   512  1.144843855E+01  1.159915772E+01  3.222544478E+01  3.611213780E+01  1.168007728E-06  0.00000E+00  9.000E+00
      21     1     1     2   517   515 -5.864336150E+00 -5.557963713E+00  6.351072919E+01  6.402260633E+01  1.507891493E-06  0.00000E+00  9.000E+00
      21     1     1     2   512   511 -5.584102401E+00 -6.041194006E+00 -5.665394338E+00  9.988739542E+00  8.429369702E-08  0.00000E+00  9.000E+00
</event>
<event>
      5  10001  3.52971E+09  8.74906E+00 -1.00000E+00  2.02710E-01
      21    -1     0     0   511   515  0.000000000E+00  0.000000000E+00  8.545802315E+01  8.545802315E+01  0.000000000E+00  0.00000E+00  9.000E+00
       2    -1     0     0   513     0  0.000000000E+00  0.000000000E+00 -3.200409940E+01  3.200409940E+01  0.000000000E+00  0.00000E+00  9.000E+00
      -5     1     1     2     0   515 -1.135851678E+01  3.497833429E-01  7.843390375E+01  7.939808254E+01  4.800000191E+00  0.00000E+00  9.000E+00
       5     1     1     2   513     0  1.873673973E+01 -4.965956405E+00 -1.643391355E+01  2.586193449E+01  4.800000191E+00  0.00000E+00  9.000E+00
       2     1     1     2   511     0 -7.378222949E+00  4.616173062E+00 -8.546066444E+00  1.220210553E+01  3.300000131E-01  0.00000E+00  9.000E+00
</event>
<event>
      5  10001  3.52971E+09  1.10107E+01 -1.00000E+00  1.91040E-01
      -2    -1     0     0     0   512  0.000000000E+00  0.000000000E+00  1.780726283E+02  1.780726283E+02  0.000000000E+00  0.00000E+00  9.000E+00
       2    -1     0     0   511     0  0.000000000E+00  0.000000000E+00 -5.891429525E+02  5.891429525E+02  0.000000000E+00  0.00000E+00  9.000E+00
      -2     1     1     2     0   514  1.900073675E+01  1.551926696E+01  1.518257838E+02  1.537954914E+02  3.300000131E-01  0.00000E+00  9.000E+00
      21     1     1     2   511   512 -2.300856348E+01 -5.263902987E+00  1.968528700E+01  3.073456023E+01  8.920806376E-07  0.00000E+00  9.000E+00
       2     1     1     2   514     0  4.007826730E+00 -1.025536397E+01 -5.825813950E+02  5.826855292E+02  3.300000131E-01  0.00000E+00  9.000E+00
</event>
<event>
      5  10001  3.52971E+09  1.11457E+01 -1.00000E+00  1.90460E-01
      21    -1     0     0   513   512  0.000000000E+00  0.000000000E+00  1.993847928E+02  1.993847928E+02  0.000000000E+00  0.00000E+00  9.000E+00
      21    -1     0     0   515   513  0.000000000E+00  0.000000000E+00 -9.402297373E-01  9.402297373E-01  0.000000000E+00  0.00000E+00  9.000E+00
      21     1     1     2   511   512  2.778360174E+00 -7.856609167E+00  1.336816639E+02  1.339411545E+02  2.697398305E-06  0.00000E+00  9.000E+00
      21     1     1     2   516   511  2.617839747E+00  2.575186936E+00  5.325684985E+00  6.468971576E+00  2.149076030E-07  0.00000E+00  9.000E+00
      21     1     1     2   515   516 -5.396199921E+00  5.281422231E+00  5.943721409E+01  5.991489642E+01  6.743495762E-07  0.00000E+00  9.000E+00
</event>
<event>
      5  10001  3.52971E+09  1.76085E+01 -1.00000E+00  1.71062E-01
      21    -1     0     0   514   511  0.000000000E+00  0.000000000E+00  1.854833341E+00  1.854833341E+00  0.000000000E+00  0.00000E+00  9.000E+00
      21    -1     0     0   515   514  0.000000000E+00  0.000000000E+00 -3.046457828E+02  3.046457828E+02  0.000000000E+00  0.00000E+00  9.000E+00
      21     1     1     2   516   511  1.012585885E+01  1.385338353E+00 -1.584189345E+01  1.885252684E+01  0.000000000E+00  0.00000E+00  9.000E+00
      21     1     1     2   512   516  1.414864004E+00  3.741238242E+00 -1.646935117E+02  1.647420757E+02  2.697398305E-06  0.00000E+00  9.000E+00
      21     1     1     2   515   512 -1.154072286E+01 -5.126576596E+00 -1.222555442E+02  1.229060136E+02  1.348699152E-06  0.00000E+00  9.000E+00
</event>
<event>
      5  10001  3.52971E+09  5.75006E+00 -1.00000E+00  2.28374E-01
      21    -1     0     0   511   516  0.000000000E+00  0.000000000E+00  1.002265494E+01  1.002265494E+01  0.000000000E+00  0.00000E+00  9.000E+00
      21    -1     0     0   515   513  0.000000000E+00  0.000000000E+00 -3.266656542E+01  3.266656542E+01  0.000000000E+00  0.00000E+00  9.000E+00
      21     1     1     2   512   516 -4.619309733E+00 -1.243112085E+01 -1.333515417E+01  1.880683718E+01  4.129530925E-07  0.00000E+00  9.000E+00
      21     1     1     2   515   512  2.721411478E-01  1.619481096E+01 -6.178602379E+00  1.733554412E+01  1.460009660E-07  0.00000E+00  9.000E+00
      21     1     1     2   511   513  4.347168586E+00 -3.763690109E+00 -3.130153926E+00  6.546839051E+00  1.115100797E-07  0.00000E+00  9.000E+00
</event>
<event>
      5  10001  3.52971E+09  1.03176E+01 -1.00000E+00  1.94196E-01
      21    -1     0     0   514   513  0.000000000E+00  0.000000000E+00  3.316326505E+02  3.316326505E+02  0.000000000E+00  0.00000E+00  9.000E+00
      21    -1     0     0   516   517  0.000000000E+00  0.000000000E+00 -6.625118469E+00  6.625118469E+00  0.000000000E+00  0.00000E+00  9.000E+00
      21     1     1     2   514   517 -1.680370112E+01 -9.452803583E-01  3.097220972E+02  3.101790377E+02  3.814697266E-06  0.00000E+00  9.000E+00
      21     1     1     2   512   513  6.409308408E+00  3.840649322E+00 -1.970118780E+00  7.727301565E+00  6.886851793E-07  0.00000E+00  9.000E+00
      21     1     1     2   516   512  1.039439271E+01 -2.895368963E+00  1.725555365E+01  2.035142975E+01  0.000000000E+00  0.00000E+00  9.000E+00
</event>
<event>
      5  10001  3.52971E+09  7.21540E+00 -1.00000E+00  2.13704E-01
       2    -1     0     0   515     0  0.000000000E+00  0.000000000E+00  2.054934685E+03  2.054934685E+03  0.000000000E+00  0.00000E+00  9.000E+00
      21    -1     0     0   511   512  0.000000000E+00  0.000000000E+00 -1.096958579E-01  1.096958579E-01  0.000000000E+00  0.00000E+00  9.000E+00
      21     1     1     2   515   512  6.124319959E+00  7.056275534E+00  2.533517743E+02  2.535240026E+02  4.672030912E-06  0.00000E+00  9.000E+00
       2     1     1     2   513     0 -4.426353158E-01 -4.395938364E+00  1.305078715E+03  1.305086236E+03  3.300000131E-01  0.00000E+00  9.000E+00
      21     1     1     2   511   513 -5.681684643E+00 -2.660337170E+00  4.963944992E+02  4.964341424E+02  5.394796609E-06  0.00000E+00  9.000E+00
</event>
<event>
      5  10001  3.52971E+09  6.22361E+00 -1.00000E+00  2.23026E-01
       2    -1     0     0   512     0  0.000000000E+00  0.000000000E+00  7.811997840E+02  7.811997840E+02  0.000000000E+00  0.00000E+00  9.000E+00
      21    -1     0     0   513   515  0.000000000E+00  0.000000000E+00 -2.546362355E+00  2.546362355E+00  0.000000000E+00  0.00000E+00  9.000E+00
      21     1     1     2   513   514  7.611985018E+00 -1.300621422E+01  4.489139205E+02  4.491667975E+02  0.000000000E+00  0.00000E+00  9.000E+00
       2     1     1     2   514     0 -3.946916232E+00  7.976485930E+00  3.279952370E+02  3.281161180E+02  3.300000131E-01  0.00000E+00  9.000E+00
      21     1     1     2   512   515 -3.665068786E+00  5.029728294E+00  1.744264075E+00  6.463230855E+00  5.713191483E-07  0.00000E+00  9.000E+00
</event>
<event>
      5  10001  3.52971E+09  5.71287E+00 -1.00000E+00  2.28825E-01
      21    -1     0     0   511   514  0.000000000E+00  0.000000000E+00  1.945081997E+01  1.945081997E+01  0.000000000E+00  0.00000E+00  9.000E+00
      21    -1     0     0   513   516  0.000000000E+00  0.000000000E+00 -6.076747075E+00  6.076747075E+00  0.000000000E+00  0.00000E+00  9.000E+00
      21     1     1     2   511   516 -1.018554397E+01 -2.234677780E+00  4.506335065E+00  1.135984800E+01  2.528810911E-07  0.00000E+00  9.000E+00
      21     1     1     2   517   514  3.000584026E+00  4.445427301E-01  6.427015439E-01  3.100675412E+00  8.296615426E-08  0.00000E+00  9.000E+00
      21     1     1     2   513   517  7.184959947E+00  1.790135049E+00  8.225036289E+00  1.106704364E+01  0.000000000E+00  0.00000E+00  9.000E+00
</event>
<event>
      5  10001  3.52971E+09  9.10544E+00 -1.00000E+00  2.00578E-01
      21    -1     0     0   511   513  0.000000000E+00  0.000000000E+00  3.964624513E+01  3.964624513E+01  0.000000000E+00  0.00000E+00  9.000E+00
       1    -1     0     0   514     0  0.000000000E+00  0.000000000E+00 -8.198979900E+02  8.198979900E+02  0.000000000E+00  0.00000E+00  9.000E+00
      21     1     1     2   514   513 -4.740642378E+00 -8.374571822E+00  4.637117733E+00  1.068222843E+01  1.391484443E-06  0.00000E+00  9.000E+00
       1     1     1     2   512     0  1.280545455E+01  1.260159468E+01 -8.161265302E+02  8.163243240E+02  3.300000131E-01  0.00000E+00  9.000E+00
      21     1     1     2   511   512 -8.064812176E+00 -4.227022855E+00  3.123766757E+01  3.253768266E+01  1.066240300E-06  0.00000E+00  9.000E+00
</event>
<event>
      5  10001  3.52971E+09  8.62730E+00 -1.00000E+00  2.03469E-01
       2    -1     0     0   515     0  0.000000000E+00  0.000000000E+00  4.216850219E+01  4.216850219E+01  0.000000000E+00  0.00000E+00  9.000E+00
      21    -1     0     0   511   512  0.000000000E+00  0.000000000E+00 -3.014154347E+00  3.014154347E+00  0.000000000E+00  0.00000E+00  9.000E+00
      21     1     1     2   515   513  1.932444175E+00  1.251613862E+00  6.968405434E+00  7.338906733E+00  0.000000000E+00  0.00000E+00  9.000E+00
       2     1     1     2   511     0 -1.338806463E+00 -9.900107175E+00  1.053775482E+01  1.452438300E+01  3.300000131E-01  0.00000E+00  9.000E+00
      21     1     1     2   513   512 -5.936377119E-01  8.648493313E+00  2.164818759E+01  2.331936680E+01  0.000000000E+00  0.00000E+00  9.000E+00
</event>
<event>
      5  10001  3.52971E+09  2.78628E+00 -1.00000E+00  3.06949E-01
      21    -1     0     0   514   511  0.000000000E+00  0.000000000E+00  8.355045490E+00  8.355045490E+00  0.000000000E+00  0.00000E+00  9.000E+00
      21    -1     0     0   515   516  0.000000000E+00  0.000000000E+00 -3.237813699E+01  3.237813699E+01  0.000000000E+00  0.00000E+00  9.000E+00
      21     1     1     2   514   516 -1.157674731E+01 -5.455722053E+00 -1.007162207E+01  1.628568551E+01  0.000000000E+00  0.00000E+00  9.000E+00
      21     1     1     2   513   511  1.421395691E+01  4.556570366E+00 -6.115074547E+00  1.613050034E+01  2.528810911E-07  0.00000E+00  9.000E+00
      21     1     1     2   515   513 -2.637209596E+00  8.991516868E-01 -7.836394879E+00  8.316996628E+00  1.685873940E-07  0.00000E+00  9.000E+00
</event>
<event>
      5  10001  3.52971E+09  7.30082E+00 -1.00000E+00  2.12997E-01
      21    -1     0     0   512   513  0.000000000E+00  0.000000000E+00  2.450409210E+02  2.450409210E+02  0.000000000E+00  0.00000E+00  9.000E+00
      21    -1     0     0   515   517  0.000000000E+00  0.000000000E+00 -1.019568664E+00  1.019568664E+00  0.000000000E+00  0.00000E+00  9.000E+00
      21     1     1     2   512   517  6.035483667E+00  1.328828506E+01  1.630215698E+02  1.636735709E+02  1.907348633E-06  0.00000E+00  9.000E+00
      21     1     1     2   515   511 -1.916313684E+00 -1.726505572E+00  9.629547448E+00  9.969015181E+00  1.685873940E-07  0.00000E+00  9.000E+00
      21     1     1     2   511   513 -4.119169983E+00 -1.156177949E+01  7.137023505E+01  7.241790357E+01  0.000000000E+00  0.00000E+00  9.000E+00
</event>
<event>
      5  10001  3.52971E+09  6.74782E+00 -1.00000E+00  2.17825E-01
      21    -1     0     0   512   513  0.000000000E+00  0.000000000E+00  5.172445932E+02  5.172445932E+02  0.000000000E+00  0.00000E+00  9.000E+00
       1    -1     0     0   514     0  0.000000000E+00  0.000000000E+00 -1.417313155E+03  1.417313155E+03  0.000000000E+00  0.00000E+00  9.000E+00
      21     1     1     2   514   513  1.205363490E+01  3.514005794E+00  2.026064868E+01  2.383552466E+01  2.810913592E-06  0.00000E+00  9.000E+00
       1     1     1     2   511     0 -8.652909822E+00  2.314209508E+00 -1.415488540E+03  1.415516918E+03  3.300000131E-01  0.00000E+00  9.000E+00
      21     1     1     2   512   511 -3.400725076E+00 -5.828215301E+00  4.951593297E+02  4.952053057E+02  7.629394531E-06  0.00000E+00  9.000E+00
</event>
<event>
      5  10001  3.52971E+09  4.47449E+00 -1.00000E+00  2.52495E-01
      -1    -1     0     0     0   515  0.000000000E+00  0.000000000E+00  5.639814023E+01  5.639814023E+01  0.000000000E+00  0.00000E+00  9.000E+00
      21    -1     0     0   513   512  0.000000000E+00  0.000000000E+00 -8.317141270E+00  8.317141270E+00  0.000000000E+00  0.00000E+00  9.000E+00
      -1     1     1     2     0   514  1.096153740E+01  1.688938594E+01  2.825849429E+01  3.469953976E+01  3.300000131E-01  0.00000E+00  9.000E+00
      21     1     1     2   514   512 -1.111267733E+01 -1.241771917E+01  1.931937458E+01  2.551332164E+01  2.384185791E-07  0.00000E+00  9.000E+00
      21     1     1     2   513   515  1.511399235E-01 -4.471666766E+00  5.031300852E-01  4.502420107E+00  1.440873713E-07  0.00000E+00  9.000E+00
</event>
<event>
      5  10001  3.52971E+09  7.34541E+00 -1.00000E+00  2.12634E-01
      21    -1     0     0   511   513  0.000000000E+00  0.000000000E+00  1.330104758E+00  1.330104758E+00  0.000000000E+00  0.00000E+00  9.000E+00
       2    -1     0     0   514     0  0.000000000E+00  0.000000000E+00 -4.541541599E+02  4.541541599E+02  0.000000000E+00  0.00000E+00  9.000E+00
      21     1     1     2   514   512 -5.389466974E+00 -3.725130124E+00 -1.002497489E+01  1.197593713E+01  1.066240300E-06  0.00000E+00  9.000E+00
       2     1     1     2   511     0  1.085476929E+01  8.481367252E+00 -3.864245079E+02  3.866701034E+02  3.300000131E-01  0.00000E+00  9.000E+00
      21     1     1     2   512   513 -5.465302319E+00 -4.756237129E+00 -5.637457236E+01  5.683822419E+01  1.507891493E-06  0.00000E+00  9.000E+00
</event>
<event>
      5  10001  3.52971E+09  7.17115E+00 -1.00000E+00  2.14076E-01
       1    -1     0     0   512     0  0.000000000E+00  0.000000000E+00  3.629393947E+01  3.629393947E+01  0.000000000E+00  0.00000E+00  9.000E+00
      21    -1     0     0   511   512  0.000000000E+00  0.000000000E+00 -4.920243917E+01  4.920243917E+01  0.000000000E+00  0.00000E+00  9.000E+00
      21     1     1     2   511   514 -4.722751008E+00  6.284789224E+00 -4.358392226E+01  4.428725812E+01  9.536743164E-07  0.00000E+00  9.000E+00
       1     1     1     2   515     0  6.800548912E+00 -1.191960898E+01  3.220773571E+01  3.501102231E+01  3.300000131E-01  0.00000E+00  9.000E+00
      21     1     1     2   514   515 -2.077797904E+00  5.634819757E+00 -1.532313154E+00  6.198098211E+00  1.281846354E-07  0.00000E+00  9.000E+00
</event>
<event>
      5  10001  3.52971E+09  6.98166E+00 -1.00000E+00  2.15709E-01
      21    -1     0     0   513   514  0.000000000E+00  0.000000000E+00  2.411180337E+01  2.411180337E+01  0.000000000E+00  0.00000E+00  9.000E+00
      21    -1     0     0   516   513  0.000000000E+00  0.000000000E+00 -1.627050697E+01  1.627050697E+01  0.000000000E+00  0.00000E+00  9.000E+00
      21     1     1     2   516   511  5.470753256E+00 -9.987571684E+00 -1.163547095E+01  1.628081428E+01  2.920019320E-07  0.00000E+00  9.000E+00
      21     1     1     2   511   512  2.734071326E-01  5.375103234E+00  1.376499618E+01  1.477977016E+01  1.685873940E-07  0.00000E+00  9.000E+00
      21     1     1     2   512   514 -5.744160388E+00  4.612468450E+00  5.711771175E+00  9.321725898E+00  8.429369702E-08  0.00000E+00  9.000E+00
</event>
<event>
      5  10001  3.52971E+09  1.95549E+01 -1.00000E+00  1.67176E-01
      21    -1     0     0   515   513  0.000000000E+00  0.000000000E+00  1.122605222E+02  1.122605222E+02  0.000000000E+00  0.00000E+00  9.000E+00
      21    -1     0     0   514   515  0.000000000E+00  0.000000000E+00 -2.443159816E+01  2.443159816E+01  0.000000000E+00  0.00000E+00  9.000E+00
      21     1     1     2   514   516 -9.881006057E+00 -2.271633171E+01 -8.416956346E+00  2.616316421E+01  4.298152060E-07  0.00000E+00  9.000E+00
      21     1     1     2   516   511 -5.951329428E+00  3.419375461E+01  5.860056784E+01  6.810769213E+01  1.168007728E-06  0.00000E+00  9.000E+00
      21     1     1     2   511   513  1.583233548E+01 -1.147742290E+01  3.764531251E+01  4.242126397E+01  0.000000000E+00  0.00000E+00  9.000E+00
</event>
<event>
      5  10001  3.52971E+09  1.24895E+01 -1.00000E+00  1.85217E-01
      -1    -1     0     0     0   514  0.000000000E+00  0.000000000E+00  8.691010780E+00  8.691010780E+00  0.000000000E+00  0.00000E+00  9.000E+00
      -2    -1     0     0     0   513  0.000000000E+00  0.000000000E+00 -2.040743827E+02  2.040743827E+02  0.000000000E+00  0.00000E+00  9.000E+00
      -2     1     1     2     0   512  3.040996590E+01  5.821991263E+00 -1.270666576E+02  1.307849608E+02  3.300000131E-01  0.00000E+00  9.000E+00
      -1     1     1     2     0   513 -3.209299546E+01  6.553152104E+00 -5.146191400E+01  6.100280037E+01  3.300000131E-01  0.00000E+00  9.000E+00
      21     1     1     2   512   514  1.683029567E+00 -1.237514337E+01 -1.685480032E+01  2.097763227E+01  0.000000000E+00  0.00000E+00  9.000E+00
</event>
<event>
      5  10001  3.52971E+09  3.76942E+00 -1.00000E+00  2.69689E-01
       2    -1     0     0   512     0  0.000000000E+00  0.000000000E+00  6.355121043E+00  6.355121043E+00  0.000000000E+00  0.00000E+00  9.000E+00
      21    -1     0     0   511   515  0.000000000E+00  0.000000000E+00 -6.222131656E+01  6.222131656E+01  0.000000000E+00  0.00000E+00  9.000E+00
      21     1     1     2   512   513 -1.134973889E+01 -5.658981482E+00 -4.610700702E+00  1.349441386E+01  3.625608999E-07  0.00000E+00  9.000E+00
       2     1     1     2   511     0  1.510900793E+01  5.931511442E+00 -3.854680359E+01  4.182618696E+01  3.300000131E-01  0.00000E+00  9.000E+00
      21     1     1     2   513   515 -3.759269037E+00 -2.725299593E-01 -1.270869123E+01  1.325583679E+01  0.000000000E+00  0.00000E+00  9.000E+00
</event>
<event>
      5  10001  3.52971E+09  5.47316E+00 -1.00000E+00  2.31848E-01
      21    -1     0     0   514   511  0.000000000E+00  0.000000000E+00  2.752423102E+01  2.752423102E+01  0.000000000E+00  0.00000E+00  9.000E+00
      21    -1     0     0   513   512  0.000000000E+00  0.000000000E+00 -1.947011072E+01  1.947011072E+01  0.000000000E+00  0.00000E+00  9.000E+00
      21     1     1     2   514   516  7.894910516E-02 -1.485348820E+01  1.010976736E+01  1.796774167E+01  2.064765462E-07  0.00000E+00  9.000E+00
      21     1     1     2   513   511  5.241429747E+00  1.356934628E+01  8.706308395E+00  1.695286259E+01  1.685873940E-07  0.00000E+00  9.000E+00
      21     1     1     2   516   512 -5.320378853E+00  1.284141919E+00 -1.076195545E+01  1.207373748E+01  1.192092896E-07  0.00000E+00  9.000E+00
</event>
<event>
      5  10001  3.52971E+09  2.97717E+00 -1.00000E+00  2.97868E-01
      -1    -1     0     0     0   512  0.000000000E+00  0.000000000E+00  2.632083359E+01  2.632083359E+01  0.000000000E+00  0.00000E+00  9.000E+00
      21    -1     0     0   511   514  0.000000000E+00  0.000000000E+00 -3.279938337E+01  3.279938337E+01  0.000000000E+00  0.00000E+00  9.000E+00
      -4     1     1     2     0   512 -4.060067675E-01  1.091125375E+01 -2.074412728E+01  2.349019192E+01  1.500000000E+00  0.00000E+00  9.000E+00
      -1     1     1     2     0   514 -2.521671731E+00 -1.042424267E+01  2.348991413E+01  2.582457414E+01  3.300000131E-01  0.00000E+00  9.000E+00
       4     1     1     2   511     0  2.927678498E+00 -4.870110792E-01 -9.224336633E+00  9.805450907E+00  1.500000000E+00  0.00000E+00  9.000E+00
</event>
<event>
      5  10001  3.52971E+09  2.60550E+01 -1.00000E+00  1.57415E-01
      21    -1     0     0   513   512  0.000000000E+00  0.000000000E+00  6.342858868E+01  6.342858868E+01  0.000000000E+00  0.00000E+00  9.000E+00
      21    -1     0     0   511   515  0.000000000E+00  0.000000000E+00 -1.722076918E+01  1.722076918E+01  0.000000000E+00  0.00000E+00  9.000E+00
      21     1     1     2   513   515 -1.093354147E+01 -1.483334709E+01 -8.590921811E+00  2.033161215E+01  0.000000000E+00  0.00000E+00  9.000E+00
       2     1     1     2   511     0 -4.160704465E+00  6.986620360E+00  1.595495735E+01  1.791071997E+01  3.300000131E-01  0.00000E+00  9.000E+00
      -2     1     1     2     0   512  1.509424593E+01  7.846726731E+00  3.884378396E+01  4.240702575E+01  3.300000131E-01  0.00000E+00  9.000E+00
</event>
<event>
      5  10001  3.52971E+09  3.16428E+00 -1.00000E+00  2.90005E-01
       1    -1     0     0   513     0  0.000000000E+00  0.000000000E+00  1.400463501E+01  1.400463501E+01  0.000000000E+00  0.00000E+00  9.000E+00
      21    -1     0     0   516   513  0.000000000E+00  0.000000000E+00 -7.315400372E+01  7.315400372E+01  0.000000000E+00  0.00000E+00  9.000E+00
      21     1     1     2   516   514 -1.548831223E+00  1.189093010E+01 -6.830065402E+01  6.934531301E+01  9.536743164E-07  0.00000E+00  9.000E+00
       1     1     1     2   511     0 -5.315970854E-01 -1.273150090E+01  8.919341133E+00  1.555754663E+01  3.300000131E-01  0.00000E+00  9.000E+00
      21     1     1     2   514   511  2.080428309E+00  8.405708031E-01  2.319441792E-01  2.255779095E+00  4.344397705E-08  0.00000E+00  9.000E+00
</event>
<event>
      5  10001  3.52971E+09  5.40040E+00 -1.00000E+00  2.32809E-01
       2    -1     0     0   513     0  0.000000000E+00  0.000000000E+00  2.820348288E+02  2.820348288E+02  0.000000000E+00  0.00000E+00  9.000E+00
      21    -1     0     0   511   513  0.000000000E+00  0.000000000E+00 -6.496689658E+00  6.496689658E+00  0.000000000E+00  0.00000E+00  9.000E+00
      21     1     1     2   515   512  8.184114003E+00  1.795403607E+00  3.461471714E+00  9.065593337E+00  4.730972012E-07  0.00000E+00  9.000E+00
       2     1     1     2   512     0 -1.870736512E+01  1.378357072E+00  2.664653781E+02  2.671250119E+02  3.300000131E-01  0.00000E+00  9.000E+00
      21     1     1     2   511   515  1.052325111E+01 -3.173760678E+00  5.611289373E+00  1.234091323E+01  5.809542146E-07  0.00000E+00  9.000E+00
</event>
<event>
      5  10001  3.52971E+09  1.43892E+01 -1.00000E+00  1.79098E-01
       3    -1     0     0   511     0  0.000000000E+00  0.000000000E+00  3.188572099E+01  3.188572099E+01  0.000000000E+00  0.00000E+00  9.000E+00
      21    -1     0     0   514   513  0.000000000E+00  0.000000000E+00 -6.112728508E+00  6.112728508E+00  0.000000000E+00  0.00000E+00  9.000E+00
      21     1     1     2   511   513  4.614098937E+00 -9.672736290E+00  7.738875461E+00  1.321899882E+01  2.528810911E-07  0.00000E+00  9.000E+00
       3     1     1     2   512     0 -6.573677494E+00  9.223464504E-01  1.271826786E+01  1.435507910E+01  5.000000000E-01  0.00000E+00  9.000E+00
      21     1     1     2   514   512  1.959578557E+00  8.750389840E+00  5.315849166E+00  1.042437158E+01  2.457562462E-07  0.00000E+00  9.000E+00
</event>
<event>
      5  10001  3.52971E+09  1.57920E+01 -1.00000E+00  1.75300E-01
      21    -1     0     0   514   512  0.000000000E+00  0.000000000E+00  2.683030352E+01  2.683030352E+01  0.000000000E+00  0.00000E+00  9.000E+00
       5    -1     0     0   515     0  0.000000000E+00  0.000000000E+00 -2.942815063E+01  2.942815063E+01  0.000000000E+00  0.00000E+00  9.000E+00
      21     1     1     2   515   512 -9.801330233E+00 -1.425155841E-02 -2.683641289E+01  2.857025261E+01  4.768371582E-07  0.00000E+00  9.000E+00
      21     1     1     2   514   511  3.871442136E+00 -1.307121327E+00  2.962517606E+00  5.047092325E+00  9.424321831E-08  0.00000E+00  9.000E+00
       5     1     1     2   511     0  5.929888097E+00  1.321372885E+00  2.127604817E+01  2.264110922E+01  4.800000191E+00  0.00000E+00  9.000E+00
</event>
<event>
      5  10001  3.52971E+09  1.11355E+01 -1.00000E+00  1.90504E-01
       1    -1     0     0   514     0  0.000000000E+00  0.000000000E+00  1.196907591E+03  1.196907591E+03  0.000000000E+00  0.00000E+00  9.000E+00
      21    -1     0     0   513   514  0.000000000E+00  0.000000000E+00 -2.819940642E-01  2.819940642E-01  0.000000000E+00  0.00000E+00  9.000E+00
      21     1     1     2   512   511  2.929231506E+00  3.430759081E+00  4.675099939E+01  4.696814292E+01  1.651812370E-06  0.00000E+00  9.000E+00
       1     1     1     2   511     0 -1.029828458E+01  1.921798379E+00  1.008154119E+03  1.008208601E+03  3.300000131E-01  0.00000E+00  9.000E+00
      21     1     1     2   513   512  7.369053072E+00 -5.352557460E+00  1.417204791E+02  1.420128410E+02  3.303624740E-06  0.00000E+00  9.000E+00
</event>
<event>
      5  10001  3.52971E+09  2.36955E+00 -1.00000E+00  3.31859E-01
      21    -1     0     0   515   514  0.000000000E+00  0.000000000E+00  2.916050722E+00  2.916050722E+00  0.000000000E+00  0.00000E+00  9.000E+00
      21    -1     0     0   513   515  0.000000000E+00  0.000000000E+00 -1.177831224E+02  1.177831224E+02  0.000000000E+00  0.00000E+00  9.000E+00
      21     1     1     2   513   512 -1.238203904E+01 -2.317009486E+00 -9.526143224E+01  9.609070660E+01  0.000000000E+00  0.00000E+00  9.000E+00
      21     1     1     2   512   511  1.012023819E+01  3.023424880E+00 -1.957031921E+01  2.223865358E+01  6.307962682E-07  0.00000E+00  9.000E+00
      21     1     1     2   511   514  2.261800848E+00 -7.064153940E-01 -3.532022008E-02  2.369812926E+00  7.036726030E-08  0.00000E+00  9.000E+00
</event>
<event>
      5  10001  3.52971E+09  5.86330E+00 -1.00000E+00  2.27031E-01
       2    -1     0     0   513     0  0.000000000E+00  0.000000000E+00  7.231042115E+01  7.231042115E+01  0.000000000E+00  0.00000E+00  9.000E+00
       3    -1     0     0   511     0  0.000000000E+00  0.000000000E+00 -7.988745918E+01  7.988745918E+01  0.000000000E+00  0.00000E+00  9.000E+00
       2     1     1     2   512     0 -5.843368781E+00  1.041250856E+01  6.217521987E+01  6.331218018E+01  3.300000131E-01  0.00000E+00  9.000E+00
       3     1     1     2   513     0  1.135046801E+01 -1.461644894E+01 -7.680179140E+01  7.900151180E+01  5.000000000E-01  0.00000E+00  9.000E+00
      21     1     1     2   511   512 -5.507099228E+00  4.203940382E+00  7.049533505E+00  9.884188347E+00  1.192092896E-07  0.00000E+00  9.000E+00
</event>
<event>
      5  10001  3.52971E+09  6.83158E+00 -1.00000E+00  2.17054E-01
       2    -1     0     0   511     0  0.000000000E+00  0.000000000E+00  1.472866007E+03  1.472866007E+03  0.000000000E+00  0.00000E+00  9.000E+00
       2    -1     0     0   513     0  0.000000000E+00  0.000000000E+00 -6.278954724E+01  6.278954724E+01  0.000000000E+00  0.00000E+00  9.000E+00
       2     1     1     2   511     0 -1.232397845E+01  9.970818238E+00 -5.936252035E+01  6.144359513E+01  3.300000131E-01  0.00000E+00  9.000E+00
       2     1     1     2   512     0  1.189737471E+01 -3.152574358E+00  1.466857098E+03  1.466908771E+03  3.300000131E-01  0.00000E+00  9.000E+00
      21     1     1     2   513   512  4.266037419E-01 -6.818243880E+00  2.581881295E+00  7.303187754E+00  2.648888355E-07  0.00000E+00  9.000E+00
</event>
<event>
      5  10001  3.52971E+09  1.19916E+01 -1.00000E+00  1.87056E-01
      21    -1     0     0   514   515  0.000000000E+00  0.000000000E+00  3.487533015E+01  3.487533015E+01  0.000000000E+00  0.00000E+00  9.000E+00
      21    -1     0     0   513   514  0.000000000E+00  0.000000000E+00 -4.659280891E+00  4.659280891E+00  0.000000000E+00  0.00000E+00  9.000E+00
      21     1     1     2   512   515  8.291595021E+00  2.704513254E+00  9.729515814E+00  1.306630850E+01  2.384185791E-07  0.00000E+00  9.000E+00
      21     1     1     2   513   511 -6.979990483E+00 -7.676604950E-01  2.238192179E+01  2.345762121E+01  2.384185791E-07  0.00000E+00  9.000E+00
      21     1     1     2   511   512 -1.311604538E+00 -1.936852759E+00 -1.895388346E+00  3.010681328E+00  7.884953353E-08  0.00000E+00  9.000E+00
</event>
<event>
      5  10001  3.52971E+09  4.32383E+00 -1.00000E+00  2.55742E-01
      21    -1     0     0   516   513  0.000000000E+00  0.000000000E+00  3.759247505E+02  3.759247505E+02  0.000000000E+00  0.00000E+00  9.000E+00
      21    -1     0     0   515   514  0.000000000E+00  0.000000000E+00 -1.385746411E+03  1.385746411E+03  0.000000000E+00  0.00000E+00  9.000E+00
      21     1     1     2   516   512  3.070816979E+00 -8.581795836E+00  5.146465694E+01  5.226555319E+01  6.743495762E-07  0.00000E+00  9.000E+00
      21     1     1     2   515   513 -7.389043172E+00  8.801866822E+00  3.239543825E+02  3.241581601E+02  5.394796609E-06  0.00000E+00  9.000E+00
      21     1     1     2   512   514  4.318226193E+00 -2.200709862E-01 -1.385240700E+03  1.385247449E+03  2.642899792E-05  0.00000E+00  9.000E+00
</event>
<event>
      5  10001  3.52971E+09  4.46344E+00 -1.00000E+00  2.52727E-01
      21    -1     0     0   511   514  0.000000000E+00  0.000000000E+00  2.006581064E+01  2.006581064E+01  0.000000000E+00  0.00000E+00  9.000E+00
      21    -1     0     0   512   517  0.000000000E+00  0.000000000E+00 -1.194379595E+01  1.194379595E+01  0.000000000E+00  0.00000E+00  9.000E+00
      21     1     1     2   511   517  1.110216758E+01 -1.010410403E+00  1.161656112E+01  1.610042070E+01  0.000000000E+00  0.00000E+00  9.000E+00
      21     1     1     2   513   514 -1.322849988E+01  1.594278424E-01 -3.038961138E+00  1.357401602E+01  2.763753681E-07  0.00000E+00  9.000E+00
      21     1     1     2   512   513  2.126332293E+00  8.509825609E-01 -4.555852999E-01  2.335169866E+00  6.343940782E-08  0.00000E+00  9.000E+00
</event>
<event>
      5  10001  3.52971E+09  7.83225E+00 -1.00000E+00  2.08876E-01
      21    -1     0     0   515   514  0.000000000E+00  0.000000000E+00  2.582763376E+00  2.582763376E+00  0.000000000E+00  0.00000E+00  9.000E+00
      21    -1     0     0   512   515  0.000000000E+00  0.000000000E+00 -9.848907538E+01  9.848907538E+01  0.000000000E+00  0.00000E+00  9.000E+00
      21     1     1     2   513   514  6.954644963E+00 -7.737830954E+00 -1.182003961E+01  1.574656950E+01  0.000000000E+00  0.00000E+00  9.000E+00
      21     1     1     2   512   511 -8.276079564E+00  2.021650931E+00 -5.464450020E+01  5.530462881E+01  0.000000000E+00  0.00000E+00  9.000E+00
      21     1     1     2   511   513  1.321434601E+00  5.716180022E+00 -2.944177219E+01  3.002064046E+01  0.000000000E+00  0.00000E+00  9.000E+00
</event>
<event>
      5  10001  3.52971E+09  1.66150E+00 -1.00000E+00  4.05349E-01
      21    -1     0     0   512   513  0.000000000E+00  0.000000000E+00  9.513672419E-01  9.513672419E-01  0.000000000E+00  0.00000E+00  9.000E+00
       2    -1     0     0   513     0  0.000000000E+00  0.000000000E+00 -6.869359239E+02  6.869359239E+02  0.000000000E+00  0.00000E+00  9.000E+00
      21     1     1     2   512   511 -5.936823938E+00 -8.990072860E+00 -3.115845253E+01  3.296841599E+01  1.617033478E-06  0.00000E+00  9.000E+00
       2     1     1     2   514     0  2.995302804E+00  5.468872131E+00 -4.357034451E+02  4.357481858E+02  3.300000131E-01  0.00000E+00  9.000E+00
      21     1     1     2   511   514  2.941521134E+00  3.521200729E+00 -2.191226590E+02  2.191706894E+02  0.000000000E+00  0.00000E+00  9.000E+00
</event>
<event>
      5  10001  3.52971E+09  5.94364E+00 -1.00000E+00  2.26104E-01
      21    -1     0     0   515   512  0.000000000E+00  0.000000000E+00  4.011497195E+02  4.011497195E+02  0.000000000E+00  0.00000E+00  9.000E+00
      21    -1     0     0   513   515  0.000000000E+00  0.000000000E+00 -2.892144960E+01  2.892144960E+01  0.000000000E+00  0.00000E+00  9.000E+00
      21     1     1     2   513   516  1.314815607E+01 -1.185032296E+00 -2.696177639E+01  3.002025476E+01  3.371747881E-07  0.00000E+00  9.000E+00
      21     1     1     2   516   511 -7.206284751E+00  1.040212886E+00  3.220713281E+01  3.301987260E+01  4.768371582E-07  0.00000E+00  9.000E+00
      21     1     1     2   511   512 -5.941871324E+00  1.448194092E-01  3.669829134E+02  3.670310417E+02  5.394796609E-06  0.00000E+00  9.000E+00
</event>
<event>
      5  10001  3.52971E+09  3.74111E+00 -1.00000E+00  2.70502E-01
      21    -1     0     0   514   516  0.000000000E+00  0.000000000E+00  2.178397210E+01  2.178397210E+01  0.000000000E+00  0.00000E+00  9.000E+00
      21    -1     0     0   513   512  0.000000000E+00  0.000000000E+00 -1.210584801E+01  1.210584801E+01  0.000000000E+00  0.00000E+00  9.000E+00
      21     1     1     2   514   512  4.020217859E+00  1.120921608E+01 -5.888912541E+00  1.328487741E+01  1.685873940E-07  0.00000E+00  9.000E+00
       1     1     1     2   513     0 -6.129093098E-01 -8.773881604E+00  1.294165064E+01  1.565093855E+01  3.300000131E-01  0.00000E+00  9.000E+00
      -1     1     1     2     0   516 -3.407308549E+00 -2.435334477E+00  2.625385986E+00  4.954004153E+00  3.300000131E-01  0.00000E+00  9.000E+00
</event>
<event>
      5  10001  3.52971E+09  6.11469E+00 -1.00000E+00  2.24196E-01
      21    -1     0     0   511   512  0.000000000E+00  0.000000000E+00  2.978020342E+01  2.978020342E+01  0.000000000E+00  0.00000E+00  9.000E+00
      21    -1     0     0   516   513  0.000000000E+00  0.000000000E+00 -8.901467551E+01  8.901467551E+01  0.000000000E+00  0.00000E+00  9.000E+00
      21     1     1     2   511   515 -3.104302691E+00  1.198318491E+01  1.410426978E+01  1.876602893E+01  2.920019320E-07  0.00000E+00  9.000E+00
      21     1     1     2   516   512  7.560289676E+00 -7.795873174E+00  1.100658752E+01  1.546216632E+01  1.192092896E-07  0.00000E+00  9.000E+00
      21     1     1     2   515   513 -4.455986985E+00 -4.187311731E+00 -8.434532939E+01  8.456668368E+01  1.348699152E-06  0.00000E+00  9.000E+00
</event>
<event>
      5  10001  3.52971E+09  1.21571E+01 -1.00000E+00  1.86432E-01
       2    -1     0     0   511     0  0.000000000E+00  0.000000000E+00  7.771275622E+02  7.771275622E+02  0.000000000E+00  0.00000E+00  9.000E+00
      21    -1     0     0   515   511  0.000000000E+00  0.000000000E+00 -1.044299338E+01  1.044299338E+01  0.000000000E+00  0.00000E+00  9.000E+00
      21     1     1     2   512   514 -6.991094860E+00  1.353383478E+01 -4.040742398E+00  1.575968560E+01  8.658074764E-07  0.00000E+00  9.000E+00
       2     1     1     2   514     0  1.125265988E+01 -6.445683115E+00  7.359970445E+02  7.361113555E+02  3.300000131E-01  0.00000E+00  9.000E+00
      21     1     1     2   515   512 -4.261565024E+00 -7.088151660E+00  3.472826673E+01  3.569951457E+01  4.768371582E-07  0.00000E+00  9.000E+00
</event>
<event>
      5  10001  3.52971E+09  9.72809E+00 -1.00000E+00  1.97147E-01
      21    -1     0     0   513   511  0.000000000E+00  0.000000000E+00  1.272524406E+02  1.272524406E+02  0.000000000E+00  0.00000E+00  9.000E+00
      21    -1     0     0   515   512  0.000000000E+00  0.000000000E+00 -3.714446050E+00  3.714446050E+00  0.000000000E+00  0.00000E+00  9.000E+00
      21     1     1     2   513   512  9.678504407E+00 -4.335383474E+00  1.542003042E+01  1.871486937E+01  4.129530925E-07  0.00000E+00  9.000E+00
      21     1     1     2   515   514 -1.218418084E+01 -5.064473023E+00  2.250318654E+01  2.608632888E+01  2.384185791E-07  0.00000E+00  9.000E+00
      21     1     1     2   514   511  2.505676431E+00  9.399856497E+00  8.561477762E+01  8.616568844E+01  9.536743164E-07  0.00000E+00  9.000E+00
</event>
<event>
      5  10001  3.52971E+09  6.78082E+00 -1.00000E+00  2.17519E-01
       2    -1     0     0   513     0  0.000000000E+00  0.000000000E+00  3.080389834E+02  3.080389834E+02  0.000000000E+00  0.00000E+00  9.000E+00
      -3    -1     0     0     0   513  0.000000000E+00  0.000000000E+00 -1.148057396E+00  1.148057396E+00  0.000000000E+00  0.00000E+00  9.000E+00
      -3     1     1     2     0   512 -1.064565885E+01  9.409084110E+00  1.058715199E+02  1.068217658E+02  5.000000000E-01  0.00000E+00  9.000E+00
       2     1     1     2   511     0  8.699147899E+00 -1.499967354E+01  1.446928653E+02  1.457285132E+02  3.300000131E-01  0.00000E+00  9.000E+00
      21     1     1     2   512   511  1.946510953E+00  5.590589434E+00  5.632654077E+01  5.663676182E+01  0.000000000E+00  0.00000E+00  9.000E+00
</event>
<event>
      5  10001  3.52971E+09  8.36377E+00 -1.00000E+00  2.05172E-01
      21    -1     0     0   514   516  0.000000000E+00  0.000000000E+00  3.531993653E+01  3.531993653E+01  0.000000000E+00  0.00000E+00  9.000E+00
      21    -1     0     0   515   514  0.000000000E+00  0.000000000E+00 -1.191742400E+02  1.191742400E+02  0.000000000E+00  0.00000E+00  9.000E+00
      21     1     1     2   511   516  4.568364378E+00  9.169203234E+00  3.344367409E+01  3.497747243E+01  0.000000000E+00  0.00000E+00  9.000E+00
      21     1     1     2   513   511  2.347559934E+00 -6.260242429E+00 -1.042593241E+02  1.044734815E+02  1.348699152E-06  0.00000E+00  9.000E+00
      21     1     1     2   515   513 -6.915924312E+00 -2.908960805E+00 -1.303865342E+01  1.504322256E+01  0.000000000E+00  0.00000E+00  9.000E+00
</event>
<event>
      5  10001  3.52971E+09  4.73959E+00 -1.00000E+00  2.47229E-01
      21    -1     0     0   514   511  0.000000000E+00  0.000000000E+00  7.467159369E+00  7.467159369E+00  0.000000000E+00  0.00000E+00  9.000E+00
      21    -1     0     0   512   513  0.000000000E+00  0.000000000E+00 -6.136414196E+01  6.136414196E+01  0.000000000E+00  0.00000E+00  9.000E+00
      21     1     1     2   514   513 -4.096462671E-02  1.034728301E+01 -4.251378984E+01  4.375488853E+01  6.743495762E-07  0.00000E+00  9.000E+00
       4     1     1     2   512     0  4.758085737E+00 -1.018139632E+01 -1.510100398E+01  1.888360485E+01  1.500000000E+00  0.00000E+00  9.000E+00
      -4     1     1     2     0   511 -4.717121110E+00 -1.658866855E-01  3.717811227E+00  6.192807948E+00  1.500000000E+00  0.00000E+00  9.000E+00
</event>
<event>
      5  10001  3.52971E+09  8.84464E+00 -1.00000E+00  2.02125E-01
      -3    -1     0     0     0   516  0.000000000E+00  0.000000000E+00  9.529973726E+00  9.529973726E+00  0.000000000E+00  0.00000E+00  9.000E+00
      21    -1     0     0   511   515  0.000000000E+00  0.000000000E+00 -8.976261689E+01  8.976261689E+01  0.000000000E+00  0.00000E+00  9.000E+00
      21     1     1     2   512   516  1.086193659E+01  6.385864043E+00 -6.415487898E+01  6.538049727E+01  0.000000000E+00  0.00000E+00  9.000E+00
      21     1     1     2   511   512 -1.768914382E+01 -7.647000404E-01 -1.755362581E+01  2.493231546E+01  5.331201500E-07  0.00000E+00  9.000E+00
      -3     1     1     2     0   515  6.827207231E+00 -5.621164003E+00  1.475861622E+00  8.979777884E+00  5.000000000E-01  0.00000E+00  9.000E+00
</event>
<event>
      5  10001  3.52971E+09  6.05960E+00 -1.00000E+00  2.24801E-01
      21    -1     0     0   513   516  0.000000000E+00  0.000000000E+00  1.127365782E+02  1.127365782E+02  0.000000000E+00  0.00000E+00  9.000E+00
      21    -1     0     0   514   513  0.000000000E+00  0.000000000E+00 -3.741586154E+01  3.741586154E+01  0.000000000E+00  0.00000E+00  9.000E+00
      21     1     1     2   511   512 -1.204987063E+01  2.311902478E+00  8.909054029E+00  1.516296538E+01  5.591411304E-07  0.00000E+00  9.000E+00
      21     1     1     2   514   511  7.619853888E+00 -6.446356641E+00 -3.346882196E+01  3.492534511E+01  4.768371582E-07  0.00000E+00  9.000E+00
      21     1     1     2   512   516  4.430016746E+00  4.134454163E+00  9.988048463E+01  1.000641293E+02  0.000000000E+00  0.00000E+00  9.000E+00
</event>
<event>
      5  10001  3.52971E+09  1.23714E+01 -1.00000E+00  1.85643E-01
      -1    -1     0     0     0   515  0.000000000E+00  0.000000000E+00  6.278898078E+00  6.278898078E+00  0.000000000E+00  0.00000E+00  9.000E+00
      21    -1     0     0   511   513  0.000000000E+00  0.000000000E+00 -5.340988792E+01  5.340988792E+01  0.000000000E+00  0.00000E+00  9.000E+00
      -1     1     1     2     0   514  7.419300472E+00 -1.792303298E+00  1.169223781E+00  7.728800350E+00  3.300000131E-01  0.00000E+00  9.000E+00
      21     1     1     2   511   515 -1.150554736E+01 -3.875072696E+00 -3.198894222E+01  3.421529238E+01  5.840038640E-07  0.00000E+00  9.000E+00
      21     1     1     2   514   513  4.086246889E+00  5.667375995E+00 -1.631127140E+01  1.774469326E+01  4.129530925E-07  0.00000E+00  9.000E+00
</event>
<event>
      5  10001  3.52971E+09  3.84526E+01 -1.00000E+00  1.45908E-01
      21    -1     0     0   513   511  0.000000000E+00  0.000000000E+00  3.122961866E+02  3.122961866E+02  0.000000000E+00  0.00000E+00  9.000E+00
      21    -1     0     0   512   513  0.000000000E+00  0.000000000E+00 -1.082119394E+01  1.082119394E+01  0.000000000E+00  0.00000E+00  9.000E+00
      -3     1     1     2     0   511 -1.628553522E+01 -3.976471615E+01  2.157336396E+02  2.199720541E+02  5.000000000E-01  0.00000E+00  9.000E+00
      21     1     1     2   512   515 -8.839517167E+00  2.798685280E+01  4.870148651E+01  5.686154924E+01  0.000000000E+00  0.00000E+00  9.000E+00
       3     1     1     2   515     0  2.512505239E+01  1.177786335E+01  3.703986652E+01  4.628377723E+01  5.000000000E-01  0.00000E+00  9.000E+00
</event>
<event>
      5  10001  3.52971E+09  7.03358E+00 -1.00000E+00  2.15255E-01
      21    -1     0     0   514   513  0.000000000E+00  0.000000000E+00  6.146545381E+00  6.146545381E+00  0.000000000E+00  0.00000E+00  9.000E+00
      21    -1     0     0   511   516  0.000000000E+00  0.000000000E+00 -2.453289143E+02  2.453289143E+02  0.000000000E+00  0.00000E+00  9.000E+00
      21     1     1     2   514   516 -1.246082164E+01 -9.672402809E+00 -3.566655277E+01  3.899910817E+01  6.743495762E-07  0.00000E+00  9.000E+00
      21     1     1     2   511   512  6.846720920E+00  5.435285217E+00 -2.050838693E+02  2.052700985E+02  3.814697266E-06  0.00000E+00  9.000E+00
      21     1     1     2   512   513  5.614100719E+00  4.237117592E+00  1.568053070E+00  7.206253034E+00  2.308477966E-07  0.00000E+00  9.000E+00
</event>
<event>
      5  10001  3.52971E+09  1.68711E+01 -1.00000E+00  1.72702E-01
      21    -1     0     0   515   511  0.000000000E+00  0.000000000E+00  2.070030711E+01  2.070030711E+01  0.000000000E+00  0.00000E+00  9.000E+00
      21    -1     0     0   514   513  0.000000000E+00  0.000000000E+00 -7.354021145E+02  7.354021145E+02  0.000000000E+00  0.00000E+00  9.000E+00
      21     1     1     2   515   513  7.143173325E+00 -2.147058596E+01 -3.322331022E+01  4.019700646E+01  1.066240300E-06  0.00000E+00  9.000E+00
      21     1     1     2   517   511 -2.400719478E+01  2.098192863E+01  2.255189011E+00  3.196361381E+01  6.583548198E-07  0.00000E+00  9.000E+00
      21     1     1     2   514   517  1.686402146E+01  4.886573259E-01 -6.837336862E+02  6.839418014E+02  1.321449896E-05  0.00000E+00  9.000E+00
</event>
<event>
      5  10001  3.52971E+09  1.01655E+01 -1.00000E+00  1.94932E-01
      21    -1     0     0   512   513  0.000000000E+00  0.000000000E+00  1.187937927E+01  1.187937927E+01  0.000000000E+00  0.00000E+00  9.000E+00
      21    -1     0     0   514   516  0.000000000E+00  0.000000000E+00 -1.974607867E+01  1.974607867E+01  0.000000000E+00  0.00000E+00  9.000E+00
      21     1     1     2   512   516  9.376957314E+00 -6.673043874E+00  4.454412022E+00  1.234093309E+01  5.960464478E-08  0.00000E+00  9.000E+00
      21     1     1     2   514   511 -4.686566582E+00  6.089434865E+00 -2.011384095E+00  7.942971061E+00  1.365713982E-07  0.00000E+00  9.000E+00
      21     1     1     2   511   513 -4.690390732E+00  5.836090094E-01 -1.030972733E+01  1.134155379E+01  0.000000000E+00  0.00000E+00  9.000E+00
</event>
<event>
      5  10001  3.52971E+09  1.38982E+01 -1.00000E+00  1.80559E-01
      21    -1     0     0   515   514  0.000000000E+00  0.000000000E+00  1.933264321E+01  1.933264321E+01  0.000000000E+00  0.00000E+00  9.000E+00
      21    -1     0     0   517   513  0.000000000E+00  0.000000000E+00 -1.994187178E+01  1.994187178E+01  0.000000000E+00  0.00000E+00  9.000E+00
      21     1     1     2   515   513  3.910519726E+00 -6.126985784E+00 -1.172764688E+01  1.379745704E+01  4.129530925E-07  0.00000E+00  9.000E+00
      21     1     1     2   517   512 -4.922645712E-01  3.972070438E+00  1.748453456E+01  1.793679505E+01  5.331201500E-07  0.00000E+00  9.000E+00
      21     1     1     2   512   514 -3.418255155E+00  2.154915345E+00 -6.366116250E+00  7.540262897E+00  8.429369702E-08  0.00000E+00  9.000E+00
</event>
<event>
      5  10001  3.52971E+09  1.30094E+01 -1.00000E+00  1.83410E-01
      21    -1     0     0   511   512  0.000000000E+00  0.000000000E+00  7.242113967E-01  7.242113967E-01  0.000000000E+00  0.00000E+00  9.000E+00
       2    -1     0     0   514     0  0.000000000E+00  0.000000000E+00 -1.697310794E+03  1.697310794E+03  0.000000000E+00  0.00000E+00  9.000E+00
      21     1     1     2   513   512 -1.209059128E+01 -8.577322136E+00 -1.623799908E+02  1.630552491E+02  2.697398305E-06  0.00000E+00  9.000E+00
       2     1     1     2   511     0  1.859936220E+01  3.995850909E+00 -1.485899723E+03  1.486021534E+03  3.300000131E-01  0.00000E+00  9.000E+00
      21     1     1     2   514   513 -6.508770925E+00  4.581471226E+00 -4.830686823E+01  4.895822194E+01  9.536743164E-07  0.00000E+00  9.000E+00
</event>
<event>
      5  10001  3.52971E+09  8.82637E+00 -1.00000E+00  2.02236E-01
       1    -1     0     0   513     0  0.000000000E+00  0.000000000E+00  4.144882386E+01  4.144882386E+01  0.000000000E+00  0.00000E+00  9.000E+00
      -3    -1     0     0     0   513  0.000000000E+00  0.000000000E+00 -1.935879256E+01  1.935879256E+01  0.000000000E+00  0.00000E+00  9.000E+00
      -3     1     1     2     0   514 -1.026315845E+01 -3.129875510E+00 -1.458525449E+01  1.811375695E+01  5.000000000E-01  0.00000E+00  9.000E+00
       1     1     1     2   511     0  5.744792893E+00  5.775699989E+00  3.655846113E+01  3.745652594E+01  3.300000131E-01  0.00000E+00  9.000E+00
      21     1     1     2   514   511  4.518365560E+00 -2.645824479E+00  1.168246589E-01  5.237333530E+00  9.405896942E-09  0.00000E+00  9.000E+00
</event>
<event>
      5  10001  3.52971E+09  5.42894E+00 -1.00000E+00  2.32430E-01
      21    -1     0     0   512   511  0.000000000E+00  0.000000000E+00  6.097944086E-01  6.097944086E-01  0.000000000E+00  0.00000E+00  9.000E+00
      21    -1     0     0   515   512  0.000000000E+00  0.000000000E+00 -3.281784904E+02  3.281784904E+02  0.000000000E+00  0.00000E+00  9.000E+00
      21     1     1     2   515   516  7.916127466E+00  5.172506975E+00 -2.216978688E+02  2.218994478E+02  2.697398305E-06  0.00000E+00  9.000E+00
      21     1     1     2   513   511 -6.944275188E+00 -7.969408757E+00 -6.011179943E+01  6.103411230E+01  6.743495762E-07  0.00000E+00  9.000E+00
      21     1     1     2   516   513 -9.718522781E-01  2.796901782E+00 -4.575902780E+01  4.585472474E+01  6.743495762E-07  0.00000E+00  9.000E+00
</event>
<event>
      5  10001  3.52971E+09  2.34357E+00 -1.00000E+00  3.33712E-01
      21    -1     0     0   514   513  0.000000000E+00  0.000000000E+00  3.310496787E+02  3.310496787E+02  0.000000000E+00  0.00000E+00  9.000E+00
       2    -1     0     0   515     0  0.000000000E+00  0.000000000E+00 -1.664897085E+02  1.664897085E+02  0.000000000E+00  0.00000E+00  9.000E+00
      21     1     1     2   514   517  5.730425526E+00 -7.247394541E+00  3.055505916E+02  3.056902460E+02  3.814697266E-06  0.00000E+00  9.000E+00
      21     1     1     2   515   513 -7.722095391E+00  8.482524071E+00  2.412672051E+01  2.671483884E+01  1.469710828E-06  0.00000E+00  9.000E+00
       2     1     1     2   517     0  1.991669865E+00 -1.235129530E+00 -1.651173419E+02  1.651343023E+02  3.300000131E-01  0.00000E+00  9.000E+00
</event>
<event>
      5  10001  3.52971E+09  4.14366E+00 -1.00000E+00  2.59903E-01
      21    -1     0     0   511   515  0.000000000E+00  0.000000000E+00  4.698240902E+01  4.698240902E+01  0.000000000E+00  0.00000E+00  9.000E+00
      21    -1     0     0   516   512  0.000000000E+00  0.000000000E+00 -4.430013139E+01  4.430013139E+01  0.000000000E+00  0.00000E+00  9.000E+00
      21     1     1     2   511   512 -9.738960316E+00 -3.458125040E+00 -4.300828523E+01  4.423255108E+01  0.000000000E+00  0.00000E+00  9.000E+00
      21     1     1     2   516   513  7.128844050E+00  2.634391239E+00  2.367531891E+01  2.486526011E+01  3.371747881E-07  0.00000E+00  9.000E+00
      21     1     1     2   513   515  2.610116266E+00  8.237338001E-01  2.201524395E+01  2.218472922E+01  3.371747881E-07  0.00000E+00  9.000E+00
</event>
<event>
      5  10001  3.52971E+09  3.88589E+00 -1.00000E+00  2.66459E-01
      21    -1     0     0   514   512  0.000000000E+00  0.000000000E+00  2.827106296E+00  2.827106296E+00  0.000000000E+00  0.00000E+00  9.000E+00
      21    -1     0     0   515   514  0.000000000E+00  0.000000000E+00 -8.326367498E+01  8.326367498E+01  0.000000000E+00  0.00000E+00  9.000E+00
      21     1     1     2   515   517  1.250683909E+00 -1.395055501E+01 -5.231809632E+01  5.416055205E+01  9.536743164E-07  0.00000E+00  9.000E+00
      21     1     1     2   511   512 -7.673210307E-01  1.079288025E+01 -2.581798927E+01  2.799363527E+01  4.768371582E-07  0.00000E+00  9.000E+00
      21     1     1     2   517   511 -4.833628781E-01  3.157674752E+00 -2.300483085E+00  3.936593951E+00  2.980232239E-08  0.00000E+00  9.000E+00
</event>
<event>
      5  10001  3.52971E+09  5.12795E+00 -1.00000E+00  2.36608E-01
      21    -1     0     0   513   511  0.000000000E+00  0.000000000E+00  1.072054646E+00  1.072054646E+00  0.000000000E+00  0.00000E+00  9.000E+00
      21    -1     0     0   515   516  0.000000000E+00  0.000000000E+00 -1.231045953E+02  1.231045953E+02  0.000000000E+00  0.00000E+00  9.000E+00
      21     1     1     2   513   516  6.306177007E+00  6.900688359E+00 -6.879553174E+01  6.942775062E+01  1.348699152E-06  0.00000E+00  9.000E+00
      21     1     1     2   515   512 -8.378235079E+00 -4.266807222E+00 -3.772167301E+01  3.887576471E+01  6.743495762E-07  0.00000E+00  9.000E+00
      21     1     1     2   512   511  2.072058071E+00 -2.633881137E+00 -1.551533590E+01  1.587313461E+01  2.384185791E-07  0.00000E+00  9.000E+00
</event>
<event>
      5  10001  3.52971E+09  3.39317E+00 -1.00000E+00  2.81519E-01
      21    -1     0     0   514   512  0.000000000E+00  0.000000000E+00  1.880318687E+02  1.880318687E+02  0.000000000E+00  0.00000E+00  9.000E+00
      21    -1     0     0   511   513  0.000000000E+00  0.000000000E+00 -2.875149676E+00  2.875149676E+00  0.000000000E+00  0.00000E+00  9.000E+00
      21     1     1     2   515   512 -9.806696240E+00  3.841050611E+00  1.583574957E+02  1.587073452E+02  0.000000000E+00  0.00000E+00  9.000E+00
      21     1     1     2   511   515  1.293233628E+01 -5.161647877E+00  2.422057367E+01  2.793786176E+01  8.920806376E-07  0.00000E+00  9.000E+00
      21     1     1     2   514   513 -3.125640044E+00  1.320597266E+00  2.578649618E+00  4.261811432E+00  1.228781231E-07  0.00000E+00  9.000E+00
</event>
<event>
      5  10001  3.52971E+09  5.72881E+00 -1.00000E+00  2.28631E-01
      21    -1     0     0   516   511  0.000000000E+00  0.000000000E+00  9.267321806E+02  9.267321806E+02  0.000000000E+00  0.00000E+00  9.000E+00
      21    -1     0     0   512   515  0.000000000E+00  0.000000000E+00 -1.854251194E+01  1.854251194E+01  0.000000000E+00  0.00000E+00  9.000E+00
      21     1     1     2   516   517  1.177691409E+01  9.310045637E+00  8.033414806E+02  8.034817404E+02  1.078959322E-05  0.00000E+00  9.000E+00
      21     1     1     2   512   511 -1.244591333E+01 -3.620435917E+00  1.225261824E+02  1.232098766E+02  3.303624740E-06  0.00000E+00  9.000E+00
      21     1     1     2   517   515  6.689992373E-01 -5.689609720E+00 -1.767799428E+01  1.858307565E+01  1.488923549E-06  0.00000E+00  9.000E+00
</event>
<event>
      5  10001  3.52971E+09  1.09628E+01 -1.00000E+00  1.91248E-01
      21    -1     0     0   513   512  0.000000000E+00  0.000000000E+00  4.270079362E+00  4.270079362E+00  0.000000000E+00  0.00000E+00  9.000E+00
      21    -1     0     0   514   513  0.000000000E+00  0.000000000E+00 -5.166549991E+02  5.166549991E+02  0.000000000E+00  0.00000E+00  9.000E+00
      21     1     1     2   514   515 -6.365843416E+00 -1.040401540E+01 -4.664658330E+02  4.666252681E+02  5.394796609E-06  0.00000E+00  9.000E+00
      21     1     1     2   515   511  1.197558599E+00  5.119849969E+00  2.139118889E+00  5.676516531E+00  1.035818291E-06  0.00000E+00  9.000E+00
      21     1     1     2   511   512  5.168284817E+00  5.284165428E+00 -4.805820565E+01  4.862329382E+01  6.743495762E-07  0.00000E+00  9.000E+00
</event>
<event>
      5  10001  3.52971E+09  7.56036E+00 -1.00000E+00  2.10927E-01
       2    -1     0     0   515     0  0.000000000E+00  0.000000000E+00  8.633984621E+01  8.633984621E+01  0.000000000E+00  0.00000E+00  9.000E+00
      -2    -1     0     0     0   513  0.000000000E+00  0.000000000E+00 -7.057887487E+01  7.057887487E+01  0.000000000E+00  0.00000E+00  9.000E+00
      21     1     1     2   515   513 -1.634818965E+01 -1.553028453E+00  2.699344267E+01  3.159622050E+01  9.536743164E-07  0.00000E+00  9.000E+00
       2     1     1     2   511     0  2.384508903E+01  2.529919132E+00  5.429723667E+01  5.935728743E+01  3.300000131E-01  0.00000E+00  9.000E+00
      -2     1     1     2     0   511 -7.496899378E+00 -9.768906794E-01 -6.552970800E+01  6.596521316E+01  3.300000131E-01  0.00000E+00  9.000E+00
</event>
<event>
      5  10001  3.52971E+09  8.60051E+00 -1.00000E+00  2.03639E-01
      21    -1     0     0   512   511  0.000000000E+00  0.000000000E+00  1.372720899E+01  1.372720899E+01  0.000000000E+00  0.00000E+00  9.000E+00
      21    -1     0     0   516   514  0.000000000E+00  0.000000000E+00 -6.745714365E+02  6.745714365E+02  0.000000000E+00  0.00000E+00  9.000E+00
      21     1     1     2   512   514  9.831987971E+00  4.651571910E+00  1.149111488E+01  1.582247863E+01  8.920806376E-07  0.00000E+00  9.000E+00
       4     1     1     2   516     0 -5.554015144E+00  1.651461881E+00 -3.068541780E+02  3.069125461E+02  1.500000000E+00  0.00000E+00  9.000E+00
      -4     1     1     2     0   511 -4.277972828E+00 -6.303033791E+00 -3.654811644E+02  3.655636208E+02  1.500000000E+00  0.00000E+00  9.000E+00
</event>
<event>
      5  10001  3.52971E+09  1.68076E+01 -1.00000E+00  1.72848E-01
      21    -1     0     0   513   514  0.000000000E+00  0.000000000E+00  8.600449531E+01  8.600449531E+01  0.000000000E+00  0.00000E+00  9.000E+00
      21    -1     0     0   515   511  0.000000000E+00  0.000000000E+00 -1.073407194E+01  1.073407194E+01  0.000000000E+00  0.00000E+00  9.000E+00
      21     1     1     2   513   511 -4.160720802E+00 -1.155166814E+01 -5.821668997E+00  1.358839447E+01  2.384185791E-07  0.00000E+00  9.000E+00
      21     1     1     2   512   514  6.268067552E+00 -2.114854970E-01  3.339321976E+01  3.397705877E+01  8.259061849E-07  0.00000E+00  9.000E+00
      21     1     1     2   515   512 -2.107346750E+00  1.176315363E+01  4.769887261E+01  4.917311401E+01  9.536743164E-07  0.00000E+00  9.000E+00
</event>
<event>
      5  10001  3.52971E+09  1.43509E+01 -1.00000E+00  1.79209E-01
      21    -1     0     0   513   511  0.000000000E+00  0.000000000E+00  1.667778322E+01  1.667778322E+01  0.000000000E+00  0.00000E+00  9.000E+00
      21    -1     0     0   515   516  0.000000000E+00  0.000000000E+00 -2.441388641E+02  2.441388641E+02  0.000000000E+00  0.00000E+00  9.000E+00
      21     1     1     2   515   517 -1.722853043E+01 -2.280800192E+01 -1.771772231E+02  1.794680907E+02  0.000000000E+00  0.00000E+00  9.000E+00
      21     1     1     2   517   511  6.970563598E+00  1.277192910E+01 -6.146017305E+01  6.315903579E+01  9.536743164E-07  0.00000E+00  9.000E+00
      21     1     1     2   513   516  1.025796683E+01  1.003607282E+01  1.117631530E+01  1.818952074E+01  3.371747881E-07  0.00000E+00  9.000E+00
</event>
<event>
      5  10001  3.52971E+09  7.60293E+00 -1.00000E+00  2.10599E-01
      21    -1     0     0   512   516  0.000000000E+00  0.000000000E+00  5.667177584E+01  5.667177584E+01  0.000000000E+00  0.00000E+00  9.000E+00
      21    -1     0     0   511   512  0.000000000E+00  0.000000000E+00 -1.020382738E+01  1.020382738E+01  0.000000000E+00  0.00000E+00  9.000E+00
      21     1     1     2   514   515  1.529136451E+01  1.410172658E+00  1.207894104E+01  1.953753393E+01  4.460403188E-07  0.00000E+00  9.000E+00
      21     1     1     2   515   516 -1.656954033E+01  6.084544190E+00  3.550787570E+01  3.965325437E+01  0.000000000E+00  0.00000E+00  9.000E+00
      21     1     1     2   511   514  1.278175822E+00 -7.494716847E+00 -1.118868289E+00  7.684814917E+00  1.685873940E-07  0.00000E+00  9.000E+00
</event>
<event>
      5  10001  3.52971E+09  1.42682E+01 -1.00000E+00  1.79451E-01
      -3    -1     0     0     0   511  0.000000000E+00  0.000000000E+00  5.068259390E-01  5.068259390E-01  0.000000000E+00  0.00000E+00  9.000E+00
       1    -1     0     0   511     0  0.000000000E+00  0.000000000E+00 -9.197934865E+02  9.197934865E+02  0.000000000E+00  0.00000E+00  9.000E+00
      21     1     1     2   513   512  7.270285251E+00 -5.855478700E+00 -1.299548250E+02  1.302896781E+02  1.907348633E-06  0.00000E+00  9.000E+00
       1     1     1     2   512     0 -1.112505022E+01  2.232404797E+00 -7.658887545E+02  7.659728739E+02  3.300000131E-01  0.00000E+00  9.000E+00
      -3     1     1     2     0   513  3.854764972E+00  3.623073903E+00 -2.344308102E+01  2.403776040E+01  5.000000000E-01  0.00000E+00  9.000E+00
</event>
<event>
      5  10001  3.52971E+09  5.63347E+00 -1.00000E+00  2.29803E-01
      21    -1     0     0   514   511  0.000000000E+00  0.000000000E+00  5.842539649E-01  5.842539649E-01  0.000000000E+00  0.00000E+00  9.000E+00
       3    -1     0     0   512     0  0.000000000E+00  0.000000000E+00 -5.488261372E+02  5.488261372E+02  0.000000000E+00  0.00000E+00  9.000E+00
      21     1     1     2   515   511  1.122211362E+01  1.914740550E+00 -9.186582870E+01  9.256852893E+01  0.000000000E+00  0.00000E+00  9.000E+00
       3     1     1     2   514     0 -1.499081260E+01 -4.926664185E+00 -3.425631862E+02  3.429267896E+02  5.000000000E-01  0.00000E+00  9.000E+00
      21     1     1     2   512   515  3.768698983E+00  3.011923635E+00 -1.138128684E+02  1.139150727E+02  1.348699152E-06  0.00000E+00  9.000E+00
</event>
<event>
      5  10001  3.52971E+09  3.70662E+01 -1.00000E+00  1.46920E-01
      21    -1     0     0   513   511  0.000000000E+00  0.000000000E+00  7.051373651E+02  7.051373651E+02  0.000000000E+00  0.00000E+00  9.000E+00
      21    -1     0     0   512   513  0.000000000E+00  0.000000000E+00 -1.187808236E+01  1.187808236E+01  0.000000000E+00  0.00000E+00  9.000E+00
      21     1     1     2   512   515 -1.355094857E+01  4.542441296E+00 -7.400672044E+00  1.609446883E+01  1.567953400E-06  0.00000E+00  9.000E+00
      21     1     1     2   514   511 -1.049747520E+00  2.530521204E+00  7.301079497E+01  7.306217687E+01  0.000000000E+00  0.00000E+00  9.000E+00
      21     1     1     2   515   514  1.460069609E+01 -7.072962500E+00  6.276491598E+02  6.278588017E+02  1.078959322E-05  0.00000E+00  9.000E+00
</event>
<event>
      5  10001  3.52971E+09  7.27396E+00 -1.00000E+00  2.13218E-01
      21    -1     0     0   516   514  0.000000000E+00  0.000000000E+00  2.137359727E+02  2.137359727E+02  0.000000000E+00  0.00000E+00  9.000E+00
      21    -1     0     0   512   517  0.000000000E+00  0.000000000E+00 -4.456916536E+01  4.456916536E+01  0.000000000E+00  0.00000E+00  9.000E+00
      21     1     1     2   516   517 -4.259491460E-01 -1.074507703E+01 -4.216308820E+01  4.351280409E+01  1.846782373E-06  0.00000E+00  9.000E+00
      21     1     1     2   512   511  1.282738590E+00  1.300400454E+01  2.119061072E+02  2.123086146E+02  3.814697266E-06  0.00000E+00  9.000E+00
      21     1     1     2   511   514 -8.567894439E-01 -2.258927504E+00 -5.762117459E-01  2.483719307E+00  1.069359488E-07  0.00000E+00  9.000E+00
</event>
<event>
      5  10001  3.52971E+09  3.79237E+01 -1.00000E+00  1.46288E-01
      21    -1     0     0   513   511  0.000000000E+00  0.000000000E+00  5.331352471E+02  5.331352471E+02  0.000000000E+00  0.00000E+00  9.000E+00
      21    -1     0     0   514   513  0.000000000E+00  0.000000000E+00 -3.179526522E+01  3.179526522E+01  0.000000000E+00  0.00000E+00  9.000E+00
      21     1     1     2   512   511  1.840686184E+01  2.765629004E+01  5.203788806E+02  5.214382632E+02  7.629394531E-06  0.00000E+00  9.000E+00
      21     1     1     2   514   515 -1.199779316E+01 -2.777598244E+00 -1.547146365E+00  1.241191986E+01  2.842960362E-07  0.00000E+00  9.000E+00
      21     1     1     2   515   512 -6.409068672E+00 -2.487869179E+01 -1.749175236E+01  3.108032926E+01  9.233911863E-07  0.00000E+00  9.000E+00
</event>
<event>
      5  10001  3.52971E+09  1.54947E+01 -1.00000E+00  1.76062E-01
      21    -1     0     0   514   511  0.000000000E+00  0.000000000E+00  8.824295044E-01  8.824295044E-01  0.000000000E+00  0.00000E+00  9.000E+00
       1    -1     0     0   511     0  0.000000000E+00  0.000000000E+00 -2.446892604E+02  2.446892604E+02  0.000000000E+00  0.00000E+00  9.000E+00
      21     1     1     2   514   515  4.964315704E+00 -5.581786891E+00 -9.606991816E+01  9.635989804E+01  1.348699152E-06  0.00000E+00  9.000E+00
      21     1     1     2   515   513 -2.524276626E+00  6.230976209E+00 -1.485475062E+01  1.630523392E+01  6.307962682E-07  0.00000E+00  9.000E+00
       1     1     1     2   513     0 -2.440039078E+00 -6.491893178E-01 -1.328821621E+02  1.329065579E+02  3.300000131E-01  0.00000E+00  9.000E+00
</event>
<event>
      5  10001  3.52971E+09  1.46806E+01 -1.00000E+00  1.78265E-01
      21    -1     0     0   512   515  0.000000000E+00  0.000000000E+00  9.756141876E+01  9.756141876E+01  0.000000000E+00  0.00000E+00  9.000E+00
      21    -1     0     0   511   512  0.000000000E+00  0.000000000E+00 -1.265597335E+01  1.265597335E+01  0.000000000E+00  0.00000E+00  9.000E+00
      21     1     1     2   511   516  4.985320933E-01 -1.269243698E+01 -7.963314228E+00  1.499202669E+01  6.251387883E-07  0.00000E+00  9.000E+00
      21     1     1     2   516   514 -7.734190251E+00  3.975443079E+00  5.549935151E+01  5.617650634E+01  6.743495762E-07  0.00000E+00  9.000E+00
      21     1     1     2   514   515  7.235658158E+00  8.716993898E+00  3.736940813E+01  3.904885908E+01  8.259061849E-07  0.00000E+00  9.000E+00
</event>
<event>
      5  10001  3.52971E+09  1.86268E+01 -1.00000E+00  1.68955E-01
       1    -1     0     0   514     0  0.000000000E+00  0.000000000E+00  1.171578426E+02  1.171578426E+02  0.000000000E+00  0.00000E+00  9.000E+00
      21    -1     0     0   513   512  0.000000000E+00  0.000000000E+00 -2.525580905E+00  2.525580905E+00  0.000000000E+00  0.00000E+00  9.000E+00
      21     1     1     2   514   512 -1.226478047E+01  1.265332018E+00  2.001730106E+01  2.350996059E+01  2.384185791E-07  0.00000E+00  9.000E+00
      21     1     1     2   513   511  4.359919722E+00 -2.883370155E+00  1.110219317E+01  1.227116199E+01  1.192092896E-07  0.00000E+00  9.000E+00
       1     1     1     2   511     0  7.904860750E+00  1.618038137E+00  8.351276750E+01  8.390230096E+01  3.300000131E-01  0.00000E+00  9.000E+00
</event>
<event>
      5  10001  3.52971E+09  4.09807E+00 -1.00000E+00  2.61008E-01
       2    -1     0     0   512     0  0.000000000E+00  0.000000000E+00  5.740848191E+01  5.740848191E+01  0.000000000E+00  0.00000E+00  9.000E+00
      21    -1     0     0   513   511  0.000000000E+00  0.000000000E+00 -8.994302400E+00  8.994302400E+00  0.000000000E+00  0.00000E+00  9.000E+00
      -2     1     1     2     0   511  1.714736010E+01 -3.578678959E+00  2.411080187E+01  2.980400255E+01  3.300000131E-01  0.00000E+00  9.000E+00
       2     1     1     2   512     0 -1.941768755E+01  1.683413679E-01  2.573989855E+01  3.224478572E+01  3.300000131E-01  0.00000E+00  9.000E+00
       2     1     1     2   513     0  2.270327451E+00  3.410337592E+00 -1.436520905E+00  4.353996043E+00  3.300000131E-01  0.00000E+00  9.000E+00
</event>
<event>
      5  10001  3.52971E+09  5.81589E+00 -1.00000E+00  2.27588E-01
      21    -1     0     0   514   515  0.000000000E+00  0.000000000E+00  2.396663248E+01  2.396663248E+01  0.000000000E+00  0.00000E+00  9.000E+00
      21    -1     0     0   515   512  0.000000000E+00  0.000000000E+00 -4.390378995E+01  4.390378995E+01  0.000000000E+00  0.00000E+00  9.000E+00
      21     1     1     2   511   512  1.212926454E+01  4.594380396E+00 -3.235497667E+01  3.485788153E+01  6.743495762E-07  0.00000E+00  9.000E+00
       3     1     1     2   514     0 -1.061531141E+01 -9.099608662E+00  1.978450270E+01  2.423147253E+01  5.000000000E-01  0.00000E+00  9.000E+00
      -3     1     1     2     0   511 -1.513953133E+00  4.505228266E+00 -7.366683505E+00  8.781068368E+00  5.000000000E-01  0.00000E+00  9.000E+00
</event>
<event>
      5  10001  3.52971E+09  1.45994E+01 -1.00000E+00  1.78495E-01
       2    -1     0     0   516     0  0.000000000E+00  0.000000000E+00  5.487697565E+02  5.487697565E+02  0.000000000E+00  0.00000E+00  9.000E+00
       2    -1     0     0   511     0  0.000000000E+00  0.000000000E+00 -4.115221676E+02  4.115221676E+02  0.000000000E+00  0.00000E+00  9.000E+00
      21     1     1     2   516   513  1.606085144E+01 -2.126417177E+01  1.173864805E+02  1.203731771E+02  2.697398305E-06  0.00000E+00  9.000E+00
       2     1     1     2   513     0 -1.290586382E+01  7.009775128E+00 -4.097731464E+02  4.100363870E+02  3.300000131E-01  0.00000E+00  9.000E+00
       2     1     1     2   511     0 -3.154987617E+00  1.425439664E+01  4.296342547E+02  4.298823600E+02  3.300000131E-01  0.00000E+00  9.000E+00
</event>
<event>
      5  10001  3.52971E+09  1.08756E+01 -1.00000E+00  1.91631E-01
      21    -1     0     0   512   513  0.000000000E+00  0.000000000E+00  2.086937027E+02  2.086937027E+02  0.000000000E+00  0.00000E+00  9.000E+00
      21    -1     0     0   511   514  0.000000000E+00  0.000000000E+00 -1.657960706E+00  1.657960706E+00  0.000000000E+00  0.00000E+00  9.000E+00
      21     1     1     2   512   514 -1.292982784E+01 -4.921159970E+00  6.280775553E+01  6.431339221E+01  1.348699152E-06  0.00000E+00  9.000E+00
      21     1     1     2   515   513  1.658270430E+01  2.629282921E-01  1.173478469E+02  1.185140177E+02  1.348699152E-06  0.00000E+00  9.000E+00
      21     1     1     2   511   515 -3.652876457E+00  4.658231678E+00  2.688013956E+01  2.752425351E+01  3.371747881E-07  0.00000E+00  9.000E+00
</event>
<event>
      5  10001  3.52971E+09  5.78921E+00 -1.00000E+00  2.27905E-01
      21    -1     0     0   516   514  0.000000000E+00  0.000000000E+00  1.386417758E+00  1.386417758E+00  0.000000000E+00  0.00000E+00  9.000E+00
      21    -1     0     0   511   517  0.000000000E+00  0.000000000E+00 -2.293862865E+02  2.293862865E+02  0.000000000E+00  0.00000E+00  9.000E+00
      21     1     1     2   516   517 -9.557615681E+00 -1.359268655E+01 -1.292845991E+02  1.303480599E+02  0.000000000E+00  0.00000E+00  9.000E+00
      21     1     1     2   512   514  9.609746738E+00  7.659846195E+00 -7.353809526E+01  7.455784285E+01  1.348699152E-06  0.00000E+00  9.000E+00
      21     1     1     2   511   512 -5.213105708E-02  5.932840355E+00 -2.517717438E+01  2.586680154E+01  3.371747881E-07  0.00000E+00  9.000E+00
</event>
<event>
      5  10001  3.52971E+09  6.01569E+00 -1.00000E+00  2.25290E-01
      21    -1     0     0   513   512  0.000000000E+00  0.000000000E+00  3.932980592E-01  3.932980592E-01  0.000000000E+00  0.00000E+00  9.000E+00
      21    -1     0     0   511   514  0.000000000E+00  0.000000000E+00 -1.032029618E+03  1.032029618E+03  0.000000000E+00  0.00000E+00  9.000E+00
      21     1     1     2   513   515  9.237499254E+00 -1.290311097E+01 -2.640584264E+02  2.645348261E+02  7.629394531E-06  0.00000E+00  9.000E+00
      21     1     1     2   511   512 -4.876660189E+00  8.759246258E+00 -1.797096432E+02  1.799890610E+02  2.697398305E-06  0.00000E+00  9.000E+00
      21     1     1     2   515   514 -4.360839065E+00  4.143864711E+00 -5.878682500E+02  5.878990286E+02  0.000000000E+00  0.00000E+00  9.000E+00
</event>
<event>
      5  10001  3.52971E+09  8.59222E+00 -1.00000E+00  2.03691E-01
      21    -1     0     0   516   511  0.000000000E+00  0.000000000E+00  2.352532233E+01  2.352532233E+01  0.000000000E+00  0.00000E+00  9.000E+00
       1    -1     0     0   512     0  0.000000000E+00  0.000000000E+00 -2.710075535E+01  2.710075535E+01  0.000000000E+00  0.00000E+00  9.000E+00
      21     1     1     2   513   511  7.092856583E-01 -4.270668630E+00  7.208766666E+00  8.408805714E+00  2.064765462E-07  0.00000E+00  9.000E+00
       1     1     1     2   516     0 -8.576578871E+00  6.679272534E+00 -2.417050392E+01  2.650457595E+01  3.300000131E-01  0.00000E+00  9.000E+00
      21     1     1     2   512   513  7.867293213E+00 -2.408603904E+00  1.338630423E+01  1.571269602E+01  1.685873940E-07  0.00000E+00  9.000E+00
</event>
<event>
      5  10001  3.52971E+09  5.07584E+00 -1.00000E+00  2.37373E-01
      21    -1     0     0   514   512  0.000000000E+00  0.000000000E+00  3.862335408E+01  3.862335408E+01  0.000000000E+00  0.00000E+00  9.000E+00
      21    -1     0     0   511   513  0.000000000E+00  0.000000000E+00 -9.053760931E+00  9.053760931E+00  0.000000000E+00  0.00000E+00  9.000E+00
      21     1     1     2   514   513 -6.760978892E+00 -9.876209773E+00  3.161800465E+01  3.380752243E+01  6.743495762E-07  0.00000E+00  9.000E+00
       1     1     1     2   511     0  3.255621449E+00  4.320876271E+00 -4.299053790E+00  6.918078220E+00  3.300000131E-01  0.00000E+00  9.000E+00
      -1     1     1     2     0   512  3.505357443E+00  5.555333502E+00  2.250642290E+00  6.951514357E+00  3.300000131E-01  0.00000E+00  9.000E+00
</event>
<event>
      5  10001  3.52971E+09  6.47391E+00 -1.00000E+00  2.20458E-01
      21    -1     0     0   513   511  0.000000000E+00  0.000000000E+00  1.531195955E+02  1.531195955E+02  0.000000000E+00  0.00000E+00  9.000E+00
      21    -1     0     0   512   515  0.000000000E+00  0.000000000E+00 -5.929624597E+02  5.929624597E+02  0.000000000E+00  0.00000E+00  9.000E+00
      21     1     1     2   512   516 -2.909238658E+00 -7.458156004E+00 -5.096010999E+02  5.096639764E+02  9.344061824E-06  0.00000E+00  9.000E+00
      21     1     1     2   516   511  2.088057810E-01  1.334196457E+01 -8.272662085E+01  8.379585560E+01  3.015782986E-06  0.00000E+00  9.000E+00
      21     1     1     2   513   515  2.700432877E+00 -5.883808565E+00  1.524848566E+02  1.526222232E+02  3.814697266E-06  0.00000E+00  9.000E+00
</event>
<event>
      5  10001  3.52971E+09  3.62724E+00 -1.00000E+00  2.73890E-01
      21    -1     0     0   514   515  0.000000000E+00  0.000000000E+00  9.128226213E+01  9.128226213E+01  0.000000000E+00  0.00000E+00  9.000E+00
      21    -1     0     0   517   514  0.000000000E+00  0.000000000E+00 -2.897580343E+00  2.897580343E+00  0.000000000E+00  0.00000E+00  9.000E+00
      21     1     1     2   517   512  6.922483839E+00  7.125015823E+00  7.792127775E+00  1.262552527E+01  1.685873940E-07  0.00000E+00  9.000E+00
      21     1     1     2   512   511 -3.844513253E+00 -6.245182826E+00  7.220738144E+01  7.257884351E+01  9.536743164E-07  0.00000E+00  9.000E+00
      21     1     1     2   511   515 -3.077970586E+00 -8.798329970E-01  8.385172567E+00  8.975473693E+00  1.192092896E-07  0.00000E+00  9.000E+00
</event>
<event>
      5  10001  3.52971E+09  2.64849E+00 -1.00000E+00  3.14308E-01
       1    -1     0     0   511     0  0.000000000E+00  0.000000000E+00  5.058311938E+02  5.058311938E+02  0.000000000E+00  0.00000E+00  9.000E+00
      -1    -1     0     0     0   511  0.000000000E+00  0.000000000E+00 -2.082169212E+00  2.082169212E+00  0.000000000E+00  0.00000E+00  9.000E+00
      -1     1     1     2     0   513 -8.440865350E+00 -1.748937360E+01  4.891846992E+01  5.263318342E+01  3.300000131E-01  0.00000E+00  9.000E+00
       1     1     1     2   512     0  8.149266619E+00  1.285791469E+01  3.808177065E+02  3.811219897E+02  3.300000131E-01  0.00000E+00  9.000E+00
      21     1     1     2   513   512  2.915987303E-01  4.631458912E+00  7.401284813E+01  7.415818990E+01  9.536743164E-07  0.00000E+00  9.000E+00
</event>
<event>
      5  10001  3.52971E+09  7.51883E+00 -1.00000E+00  2.11251E-01
       2    -1     0     0   512     0  0.000000000E+00  0.000000000E+00  8.374127982E+00  8.374127982E+00  0.000000000E+00  0.00000E+00  9.000E+00
      21    -1     0     0   514   511  0.000000000E+00  0.000000000E+00 -1.450758043E+01  1.450758043E+01  0.000000000E+00  0.00000E+00  9.000E+00
      21     1     1     2   512   515 -3.300420766E+00  5.201783473E+00 -5.778400805E-01  6.187505773E+00  8.878391451E-08  0.00000E+00  9.000E+00
       2     1     1     2   514     0  8.092050209E+00 -4.681835884E+00 -2.041386741E-02  9.354687625E+00  3.300000131E-01  0.00000E+00  9.000E+00
      21     1     1     2   515   511 -4.791629443E+00 -5.199475885E-01 -5.535198502E+00  7.339515016E+00  1.576990671E-07  0.00000E+00  9.000E+00
</event>
<event>
      5  10001  3.52971E+09  8.09541E+00 -1.00000E+00  2.06994E-01
      21    -1     0     0   513   514  0.000000000E+00  0.000000000E+00  1.198866038E+01  1.198866038E+01  0.000000000E+00  0.00000E+00  9.000E+00
      21    -1     0     0   516   512  0.000000000E+00  0.000000000E+00 -1.886859676E+02  1.886859676E+02  0.000000000E+00  0.00000E+00  9.000E+00
      21     1     1     2   516   511  1.786116500E+01  7.010733694E+00 -1.341193242E+02  1.354849244E+02  3.303624740E-06  0.00000E+00  9.000E+00
      21     1     1     2   511   514 -2.106852026E+01  4.221997721E-01  7.753558395E-01  2.108700964E+01  3.152220816E-07  0.00000E+00  9.000E+00
      21     1     1     2   513   512  3.207355265E+00 -7.432933466E+00 -4.335333883E+01  4.410269397E+01  0.000000000E+00  0.00000E+00  9.000E+00
</event>
<event>
      5  10001  3.52971E+09  7.77745E+00 -1.00000E+00  2.09280E-01
       2    -1     0     0   512     0  0.000000000E+00  0.000000000E+00  1.393022686E+03  1.393022686E+03  0.000000000E+00  0.00000E+00  9.000E+00
      21    -1     0     0   511   514  0.000000000E+00  0.000000000E+00 -2.436848053E+01  2.436848053E+01  0.000000000E+00  0.00000E+00  9.000E+00
      21     1     1     2   511   513 -3.598090091E+00 -1.338458782E+01  1.012205315E+00  1.389669036E+01  7.509948712E-07  0.00000E+00  9.000E+00
       2     1     1     2   513     0 -4.171777596E+00  1.372788679E+01  1.384685721E+03  1.384760093E+03  3.300000131E-01  0.00000E+00  9.000E+00
      21     1     1     2   512   514  7.769867687E+00 -3.432989630E-01 -1.704372109E+01  1.873438354E+01  1.526623782E-06  0.00000E+00  9.000E+00
</event>
<event>
      5  10001  3.52971E+09  2.02011E+01 -1.00000E+00  1.66008E-01
      21    -1     0     0   515   516  0.000000000E+00  0.000000000E+00  1.712639447E+01  1.712639447E+01  0.000000000E+00  0.00000E+00  9.000E+00
       1    -1     0     0   512     0  0.000000000E+00  0.000000000E+00 -5.376769064E+02  5.376769064E+02  0.000000000E+00  0.00000E+00  9.000E+00
      21     1     1     2   512   516  4.719546526E+00 -9.737981616E+00  1.517481452E+01  1.863806324E+01  4.460403188E-07  0.00000E+00  9.000E+00
       1     1     1     2   511     0  7.011361021E+00  6.360209526E+00 -2.493310474E+02  2.495109047E+02  3.300000131E-01  0.00000E+00  9.000E+00
      21     1     1     2   515   511 -1.173090755E+01  3.377772090E+00 -2.863942791E+02  2.866543330E+02  0.000000000E+00  0.00000E+00  9.000E+00
</event>
<event>
      5  10001  3.52971E+09  5.44962E+00 -1.00000E+00  2.32157E-01
      21    -1     0     0   513   511  0.000000000E+00  0.000000000E+00  2.402807855E+01  2.402807855E+01  0.000000000E+00  0.00000E+00  9.000E+00
      21    -1     0     0   512   514  0.000000000E+00  0.000000000E+00 -3.916050079E+01  3.916050079E+01  0.000000000E+00  0.00000E+00  9.000E+00
      21     1     1     2   513   514  1.021980942E+01  3.974601797E+00  2.105916532E+01  2.374300756E+01  2.384185791E-07  0.00000E+00  9.000E+00
      -1     1     1     2     0   511 -1.146636564E+01 -2.608179514E-01 -2.990866715E+01  3.203408868E+01  3.300000131E-01  0.00000E+00  9.000E+00
       1     1     1     2   512     0  1.246556214E+00 -3.713783846E+00 -6.282920416E+00  7.411483104E+00  3.300000131E-01  0.00000E+00  9.000E+00
</event>
<event>
      5  10001  3.52971E+09  3.84492E+00 -1.00000E+00  2.67575E-01
      21    -1     0     0   515   511  0.000000000E+00  0.000000000E+00  3.779046164E+01  3.779046164E+01  0.000000000E+00  0.00000E+00  9.000E+00
       2    -1     0     0   511     0  0.000000000E+00  0.000000000E+00 -9.524198124E+02  9.524198124E+02  0.000000000E+00  0.00000E+00  9.000E+00
      21     1     1     2   513   512  4.751566693E+00 -6.388523485E+00  2.367176550E+01  2.497484935E+01  1.430511475E-06  0.00000E+00  9.000E+00
       2     1     1     2   512     0 -1.106548207E+01  8.853345475E+00 -9.508592530E+02  9.509649071E+02  3.300000131E-01  0.00000E+00  9.000E+00
      21     1     1     2   515   513  6.313915374E+00 -2.464821989E+00  1.255813672E+01  1.427051760E+01  1.305872339E-06  0.00000E+00  9.000E+00
</event>
<event>
      5  10001  3.52971E+09  2.48029E+01 -1.00000E+00  1.59006E-01
      21    -1     0     0   514   511  0.000000000E+00  0.000000000E+00  5.250281140E-01  5.250281140E-01  0.000000000E+00  0.00000E+00  9.000E+00
       2    -1     0     0   512     0  0.000000000E+00  0.000000000E+00 -6.274101976E+02  6.274101976E+02  0.000000000E+00  0.00000E+00  9.000E+00
      21     1     1     2   512   511 -4.673121290E+00  5.044489138E+00 -1.017804394E+02  1.020124639E+02  0.000000000E+00  0.00000E+00  9.000E+00
      21     1     1     2   514   516  2.360111714E+00 -1.556786012E+01 -1.923221944E+02  1.929656831E+02  0.000000000E+00  0.00000E+00  9.000E+00
       2     1     1     2   516     0  2.313009576E+00  1.052337098E+01 -3.327825357E+02  3.329570788E+02  3.300000131E-01  0.00000E+00  9.000E+00
</event>
<event>
      5  10001  3.52971E+09  3.11341E+00 -1.00000E+00  2.92052E-01
      -2    -1     0     0     0   512  0.000000000E+00  0.000000000E+00  7.298727209E-01  7.298727209E-01  0.000000000E+00  0.00000E+00  9.000E+00
       1    -1     0     0   512     0  0.000000000E+00  0.000000000E+00 -5.040358094E+02  5.040358094E+02  0.000000000E+00  0.00000E+00  9.000E+00
      -2     1     1     2     0   511 -2.895531323E+00 -4.209792556E+00 -1.672071273E+01  1.748706920E+01  3.300000131E-01  0.00000E+00  9.000E+00
       1     1     1     2   513     0  8.018316268E+00  7.135209576E+00 -4.561809139E+02  4.563072865E+02  3.300000131E-01  0.00000E+00  9.000E+00
      21     1     1     2   511   513 -5.122784945E+00 -2.925417020E+00 -3.040431005E+01  3.097132641E+01  7.539457465E-07  0.00000E+00  9.000E+00
</event>
<event>
      5  10001  3.52971E+09  9.86885E+00 -1.00000E+00  1.96418E-01
      21    -1     0     0   511   512  0.000000000E+00  0.000000000E+00  2.851181817E-01  2.851181817E-01  0.000000000E+00  0.00000E+00  9.000E+00
       2    -1     0     0   512     0  0.000000000E+00  0.000000000E+00 -1.027029320E+03  1.027029320E+03  0.000000000E+00  0.00000E+00  9.000E+00
      21     1     1     2   511   515  4.347084631E+00 -1.047963827E+00 -3.211655418E+01  3.242635388E+01  1.966049969E-06  0.00000E+00  9.000E+00
       2     1     1     2   514     0 -1.219388292E+01 -3.041168884E+00 -7.399142022E+02  7.400209964E+02  3.300000131E-01  0.00000E+00  9.000E+00
      21     1     1     2   515   514  7.846798288E+00  4.089132711E+00 -2.547134450E+02  2.548670875E+02  0.000000000E+00  0.00000E+00  9.000E+00
</event>
<event>
      5  10001  3.52971E+09  2.66535E+01 -1.00000E+00  1.56692E-01
      21    -1     0     0   513   514  0.000000000E+00  0.000000000E+00  7.150175624E+01  7.150175624E+01  0.000000000E+00  0.00000E+00  9.000E+00
      21    -1     0     0   512   516  0.000000000E+00  0.000000000E+00 -1.331884579E+01  1.331884579E+01  0.000000000E+00  0.00000E+00  9.000E+00
      21     1     1     2   513   516 -1.873738522E+01  1.603721681E+01  4.453594639E+01  5.090906057E+01  4.768371582E-07  0.00000E+00  9.000E+00
      21     1     1     2   511   514  5.219172217E+00 -9.346846670E+00  1.536947407E+01  1.873029724E+01  0.000000000E+00  0.00000E+00  9.000E+00
      21     1     1     2   512   511  1.351821300E+01 -6.690370138E+00 -1.722510014E+00  1.518124422E+01  1.812804499E-07  0.00000E+00  9.000E+00
</event>
<event>
      5  10001  3.52971E+09  2.87076E+00 -1.00000E+00  3.02783E-01
      21    -1     0     0   515   514  0.000000000E+00  0.000000000E+00  4.170331463E+01  4.170331463E+01  0.000000000E+00  0.00000E+00  9.000E+00
      21    -1     0     0   512   513  0.000000000E+00  0.000000000E+00 -1.593029031E+01  1.593029031E+01  0.000000000E+00  0.00000E+00  9.000E+00
      21     1     1     2   511   514 -1.055743202E+01  4.479642402E+00  3.736295508E+01  3.908346171E+01  6.743495762E-07  0.00000E+00  9.000E+00
      21     1     1     2   512   511  8.495345386E+00 -2.482378164E+00 -1.269362002E+01  1.547453017E+01  3.371747881E-07  0.00000E+00  9.000E+00
      21     1     1     2   515   513  2.062086637E+00 -1.997264238E+00  1.103689262E+00  3.075613064E+00  3.332000937E-08  0.00000E+00  9.000E+00
</event>
<event>
      5  10001  3.52971E+09  2.20289E+01 -1.00000E+00  1.62976E-01
      -1    -1     0     0     0   516  0.000000000E+00  0.000000000E+00  2.783187483E+02  2.783187483E+02  0.000000000E+00  0.00000E+00  9.000E+00
      21    -1     0     0   511   513  0.000000000E+00  0.000000000E+00 -1.106369316E+00  1.106369316E+00  0.000000000E+00  0.00000E+00  9.000E+00
      -1     1     1     2     0   513 -8.982440379E+00 -5.907191683E+00  7.496690803E+01  7.573457169E+01  3.300000131E-01  0.00000E+00  9.000E+00
      21     1     1     2   512   516  6.662813588E+00 -3.067020374E+00  1.694954134E+02  1.696540446E+02  2.697398305E-06  0.00000E+00  9.000E+00
      21     1     1     2   511   512  2.319626790E+00  8.974212057E+00  3.275005758E+01  3.403650132E+01  6.743495762E-07  0.00000E+00  9.000E+00
</event>
<event>
      5  10001  3.52971E+09  3.95520E+00 -1.00000E+00  2.64619E-01
      -1    -1     0     0     0   514  0.000000000E+00  0.000000000E+00  5.440902387E+01  5.440902387E+01  0.000000000E+00  0.00000E+00  9.000E+00
      21    -1     0     0   515   512  0.000000000E+00  0.000000000E+00 -2.854264591E+00  2.854264591E+00  0.000000000E+00  0.00000E+00  9.000E+00
      21     1     1     2   513   512 -4.910678121E+00  4.096018290E+00  3.607550139E+00  7.342107561E+00  2.698715072E-07  0.00000E+00  9.000E+00
      21     1     1     2   515   514  7.101881245E+00 -7.088612781E+00  3.791118796E+01  3.921662047E+01  6.743495762E-07  0.00000E+00  9.000E+00
      -1     1     1     2     0   513 -2.191203123E+00  2.992594491E+00  1.003602119E+01  1.070456044E+01  3.300000131E-01  0.00000E+00  9.000E+00
</event>
<event>
      5  10001  3.52971E+09  8.16181E+00 -1.00000E+00  2.06535E-01
      21    -1     0     0   511   514  0.000000000E+00  0.000000000E+00  8.776215247E+01  8.776215247E+01  0.000000000E+00  0.00000E+00  9.000E+00
       2    -1     0     0   515     0  0.000000000E+00  0.000000000E+00 -1.757068620E+01  1.757068620E+01  0.000000000E+00  0.00000E+00  9.000E+00
      21     1     1     2   515   514  8.209110110E+00 -6.572359786E+00  8.446178947E+01  8.511391944E+01  1.348699152E-06  0.00000E+00  9.000E+00
       2     1     1     2   512     0 -1.926784318E+00  7.665431802E+00 -8.609803221E+00  1.169226043E+01  3.300000131E-01  0.00000E+00  9.000E+00
      21     1     1     2   511   512 -6.282325792E+00 -1.093072016E+00 -5.660519982E+00  8.526658798E+00  5.127385418E-07  0.00000E+00  9.000E+00
</event>
<event>
      5  10001  3.52971E+09  7.18997E+00 -1.00000E+00  2.13918E-01
       1    -1     0     0   513     0  0.000000000E+00  0.000000000E+00  8.671149623E+02  8.671149623E+02  0.000000000E+00  0.00000E+00  9.000E+00
      21    -1     0     0   512   513  0.000000000E+00  0.000000000E+00 -5.344657495E-01  5.344657495E-01  0.000000000E+00  0.00000E+00  9.000E+00
      21     1     1     2   512   511 -1.586523192E+01 -2.185543346E+00  1.762272331E+02  1.769534398E+02  3.814697266E-06  0.00000E+00  9.000E+00
       1     1     1     2   514     0  1.327635172E+01  1.745514259E+00  6.740111158E+02  6.741441993E+02  3.300000131E-01  0.00000E+00  9.000E+00
      21     1     1     2   511   514  2.588880195E+00  4.400290869E-01  1.634214770E+01  1.655178896E+01  2.384185791E-07  0.00000E+00  9.000E+00
</event>
<event>
      5  10001  3.52971E+09  4.73828E+00 -1.00000E+00  2.47254E-01
      21    -1     0     0   515   511  0.000000000E+00  0.000000000E+00  7.900217342E+01  7.900217342E+01  0.000000000E+00  0.00000E+00  9.000E+00
      21    -1     0     0   516   515  0.000000000E+00  0.000000000E+00 -2.565857143E+02  2.565857143E+02  0.000000000E+00  0.00000E+00  9.000E+00
      21     1     1     2   516   512 -1.942699877E+01  7.523551773E+00 -2.530130919E+02  2.538693302E+02  0.000000000E+00  0.00000E+00  9.000E+00
      21     1     1     2   512   513  2.086977122E+01 -1.099374875E+01  7.404827595E+01  7.771458701E+01  2.861022949E-06  0.00000E+00  9.000E+00
      21     1     1     2   513   511 -1.442772450E+00  3.470196979E+00  1.381275077E+00  4.003970561E+00  1.154238983E-07  0.00000E+00  9.000E+00
</event>
<event>
      5  10001  3.52971E+09  2.06804E+01 -1.00000E+00  1.65176E-01
       2    -1     0     0   513     0  0.000000000E+00  0.000000000E+00  5.985610570E+01  5.985610570E+01  0.000000000E+00  0.00000E+00  9.000E+00
       2    -1     0     0   511     0  0.000000000E+00  0.000000000E+00 -2.246065662E+02  2.246065662E+02  0.000000000E+00  0.00000E+00  9.000E+00
       2     1     1     2   513     0  1.044487918E+01 -3.473163543E+00 -2.223243838E+02  2.225969427E+02  3.300000131E-01  0.00000E+00  9.000E+00
      21     1     1     2   511   512 -1.335355071E+01  6.824667036E+00  2.628618542E+01  3.026312840E+01  8.259061849E-07  0.00000E+00  9.000E+00
       2     1     1     2   512     0  2.908671535E+00 -3.351503493E+00  3.128773780E+01  3.160260088E+01  3.300000131E-01  0.00000E+00  9.000E+00
</event>
<event>
      5  10001  3.52971E+09  8.28174E+00 -1.00000E+00  2.05719E-01
      21    -1     0     0   514   511  0.000000000E+00  0.000000000E+00  4.803422411E+00  4.803422411E+00  0.000000000E+00  0.00000E+00  9.000E+00
      21    -1     0     0   515   514  0.000000000E+00  0.000000000E+00 -8.163509238E+01  8.163509238E+01  0.000000000E+00  0.00000E+00  9.000E+00
      21     1     1     2   515   516  1.078798631E+01 -6.883257178E+00 -6.355248614E+01  6.482806778E+01  6.743495762E-07  0.00000E+00  9.000E+00
      21     1     1     2   516   513 -7.153640907E+00  3.941780472E-01 -9.715078836E-01  7.230061004E+00  3.360203589E-07  0.00000E+00  9.000E+00
      21     1     1     2   513   511 -3.634345402E+00  6.489079130E+00 -1.230767595E+01  1.438038601E+01  0.000000000E+00  0.00000E+00  9.000E+00
</event>
<event>
      5  10001  3.52971E+09  6.48423E+00 -1.00000E+00  2.20355E-01
      21    -1     0     0   512   516  0.000000000E+00  0.000000000E+00  6.549440917E+01  6.549440917E+01  0.000000000E+00  0.00000E+00  9.000E+00
      21    -1     0     0   515   511  0.000000000E+00  0.000000000E+00 -1.488883802E+02  1.488883802E+02  0.000000000E+00  0.00000E+00  9.000E+00
      21     1     1     2   512   511 -3.970348556E+00 -1.371091898E+01 -1.475392990E+02  1.482281948E+02  1.907348633E-06  0.00000E+00  9.000E+00
      21     1     1     2   515   514  2.429986887E+00  1.167937811E+01  3.667950149E+01  3.857069534E+01  4.768371582E-07  0.00000E+00  9.000E+00
      21     1     1     2   514   516  1.540361669E+00  2.031540867E+00  2.746582651E+01  2.758389926E+01  8.259061849E-07  0.00000E+00  9.000E+00
</event>
<event>
      5  10001  3.52971E+09  3.50689E+00 -1.00000E+00  2.77694E-01
      21    -1     0     0   513   514  0.000000000E+00  0.000000000E+00  9.172827457E+01  9.172827457E+01  0.000000000E+00  0.00000E+00  9.000E+00
      21    -1     0     0   516   513  0.000000000E+00  0.000000000E+00 -2.994346515E+00  2.994346515E+00  0.000000000E+00  0.00000E+00  9.000E+00
      21     1     1     2   515   514 -1.056493463E+01  2.584756378E-01  7.802547756E+01  7.873791845E+01  0.000000000E+00  0.00000E+00  9.000E+00
      21     1     1     2   516   511  7.364834993E+00 -2.597799831E+00  6.125418477E+00  9.925225940E+00  1.192092896E-07  0.00000E+00  9.000E+00
      21     1     1     2   511   515  3.200099637E+00  2.339324193E+00  4.583032022E+00  6.059476700E+00  8.429369702E-08  0.00000E+00  9.000E+00
</event>
<event>
      5  10001  3.52971E+09  8.75037E+00 -1.00000E+00  2.02702E-01
      21    -1     0     0   511   514  0.000000000E+00  0.000000000E+00  1.273858912E+01  1.273858912E+01  0.000000000E+00  0.00000E+00  9.000E+00
      21    -1     0     0   512   513  0.000000000E+00  0.000000000E+00 -1.995079418E+02  1.995079418E+02  0.000000000E+00  0.00000E+00  9.000E+00
      -5     1     1     2     0   513  3.750507257E+00 -1.329006934E+01 -1.716005490E+02  1.722221840E+02  4.800000191E+00  0.00000E+00  9.000E+00
       5     1     1     2   511     0 -9.971656096E+00  1.935613564E+01 -2.011242940E+01  3.002738301E+01  4.800000191E+00  0.00000E+00  9.000E+00
      21     1     1     2   512   514  6.221148840E+00 -6.066066306E+00  4.943625665E+00  9.996963941E+00  1.576990671E-07  0.00000E+00  9.000E+00
</event>
<event>
      5  10001  3.52971E+09  1.25740E+01 -1.00000E+00  1.84915E-01
      -2    -1     0     0     0   514  0.000000000E+00  0.000000000E+00  1.268565196E+01  1.268565196E+01  0.000000000E+00  0.00000E+00  9.000E+00
      21    -1     0     0   515   511  0.000000000E+00  0.000000000E+00 -1.615722133E+01  1.615722133E+01  0.000000000E+00  0.00000E+00  9.000E+00
      -2     1     1     2     0   511  9.655297508E+00 -5.008828633E+00  6.456800067E+00  1.265354896E+01  3.300000131E-01  0.00000E+00  9.000E+00
      21     1     1     2   513   514  2.221236302E-01  2.545568038E+00 -2.603961808E+00  3.648269814E+00  5.960464478E-08  0.00000E+00  9.000E+00
      21     1     1     2   515   513 -9.877421138E+00  2.463260595E+00 -7.324407625E+00  1.254105451E+01  8.429369702E-08  0.00000E+00  9.000E+00
</event>
<event>
      5  10001  3.52971E+09  8.32407E+00 -1.00000E+00  2.05436E-01
       3    -1     0     0   511     0  0.000000000E+00  0.000000000E+00  1.533468618E+00  1.533468618E+00  0.000000000E+00  0.00000E+00  9.000E+00
      21    -1     0     0   513   511  0.000000000E+00  0.000000000E+00 -1.210822225E+02  1.210822225E+02  0.000000000E+00  0.00000E+00  9.000E+00
      21     1     1     2   513   512 -8.616396423E+00  2.533419971E+00 -8.302176836E+01  8.350613466E+01  1.348699152E-06  0.00000E+00  9.000E+00
       3     1     1     2   514     0  4.956756918E+00 -6.704042678E+00 -1.992281314E+01  2.160282645E+01  5.000000000E-01  0.00000E+00  9.000E+00
      21     1     1     2   512   514  3.659639504E+00  4.170622707E+00 -1.660417242E+01  1.750673004E+01  4.768371582E-07  0.00000E+00  9.000E+00
</event>
<event>
      5  10001  3.52971E+09  3.27903E+00 -1.00000E+00  2.85609E-01
      21    -1     0     0   514   513  0.000000000E+00  0.000000000E+00  5.141431928E+00  5.141431928E+00  0.000000000E+00  0.00000E+00  9.000E+00
      21    -1     0     0   515   514  0.000000000E+00  0.000000000E+00 -2.252244494E+01  2.252244494E+01  0.000000000E+00  0.00000E+00  9.000E+00
      -1     1     1     2     0   513  8.250152725E+00 -5.930723529E+00 -1.183789410E+01  1.560394624E+01  3.300000131E-01  0.00000E+00  9.000E+00
       1     1     1     2   511     0 -5.227983779E+00  1.694330095E+00 -2.934538555E+00  6.238828849E+00  3.300000131E-01  0.00000E+00  9.000E+00
      21     1     1     2   515   511 -3.022168946E+00  4.236393434E+00 -2.608580364E+00  5.821101784E+00  4.214684851E-08  0.00000E+00  9.000E+00
</event>
<event>
      5  10001  3.52971E+09  2.91139E+01 -1.00000E+00  1.53947E-01
      -4    -1     0     0     0   512  0.000000000E+00  0.000000000E+00  3.602694452E+00  3.602694452E+00  0.000000000E+00  0.00000E+00  9.000E+00
      21    -1     0     0   516   511  0.000000000E+00  0.000000000E+00 -6.180217775E+01  6.180217775E+01  0.000000000E+00  0.00000E+00  9.000E+00
      -4     1     1     2     0   513  5.470740897E+00 -1.428773318E+00 -8.132581934E-01  5.906080600E+00  1.500000000E+00  0.00000E+00  9.000E+00
      21     1     1     2   516   512  2.081640204E+00 -2.641366155E+00 -3.215505013E+00  4.652903781E+00  8.429369702E-08  0.00000E+00  9.000E+00
      21     1     1     2   513   511 -7.552381102E+00  4.070139473E+00 -5.417072009E+01  5.484588782E+01  6.743495762E-07  0.00000E+00  9.000E+00
</event>
<event>
      5  10001  3.52971E+09  1.14776E+01 -1.00000E+00  1.89079E-01
       2    -1     0     0   513     0  0.000000000E+00  0.000000000E+00  3.709376225E+00  3.709376225E+00  0.000000000E+00  0.00000E+00  9.000E+00
      21    -1     0     0   514   511  0.000000000E+00  0.000000000E+00 -1.565694695E+02  1.565694695E+02  0.000000000E+00  0.00000E+00  9.000E+00
      21     1     1     2   513   512 -8.195831833E+00 -4.776899015E+00 -6.932828593E+01  6.997429281E+01  9.536743164E-07  0.00000E+00  9.000E+00
       2     1     1     2   514     0  1.816306622E+01  1.218087230E+01 -5.163291022E+01  5.607438758E+01  3.300000131E-01  0.00000E+00  9.000E+00
      21     1     1     2   512   511 -9.967234386E+00 -7.403973287E+00 -3.189889717E+01  3.423016539E+01  4.768371582E-07  0.00000E+00  9.000E+00
</event>
<event>
      5  10001  3.52971E+09  3.27562E+00 -1.00000E+00  2.85736E-01
      21    -1     0     0   515   514  0.000000000E+00  0.000000000E+00  7.564045503E-01  7.564045503E-01  0.000000000E+00  0.00000E+00  9.000E+00
      21    -1     0     0   512   513  0.000000000E+00  0.000000000E+00 -2.627841198E+02  2.627841198E+02  0.000000000E+00  0.00000E+00  9.000E+00
      21     1     1     2   512   514 -8.869031930E-01 -1.146750031E+01 -7.002935597E+01  7.096760428E+01  1.651812370E-06  0.00000E+00  9.000E+00
       2     1     1     2   515     0  3.130827584E+00  9.083528928E+00 -8.819377043E+01  8.871619143E+01  3.300000131E-01  0.00000E+00  9.000E+00
      -2     1     1     2     0   513 -2.243924391E+00  2.383971382E+00 -1.038045889E+02  1.038567287E+02  3.300000131E-01  0.00000E+00  9.000E+00
</event>
<event>
      5  10001  3.52971E+09  1.01257E+01 -1.00000E+00  1.95128E-01
      21    -1     0     0   511   513  0.000000000E+00  0.000000000E+00  1.182934104E+01  1.182934104E+01  0.000000000E+00  0.00000E+00  9.000E+00
      21    -1     0     0   512   516  0.000000000E+00  0.000000000E+00 -7.633082938E+01  7.633082938E+01  0.000000000E+00  0.00000E+00  9.000E+00
      21     1     1     2   511   516 -5.459113948E+00  1.108998695E+01  7.246626455E+00  1.432840991E+01  1.460009660E-07  0.00000E+00  9.000E+00
      21     1     1     2   514   513 -1.811720282E+00 -4.497961274E+00 -4.635687938E+01  4.660980854E+01  6.743495762E-07  0.00000E+00  9.000E+00
      21     1     1     2   512   514  7.270834230E+00 -6.592025678E+00 -2.539123541E+01  2.722195197E+01  3.371747881E-07  0.00000E+00  9.000E+00
</event>
<event>
      5  10001  3.52971E+09  9.67486E+00 -1.00000E+00  1.97427E-01
       1    -1     0     0   512     0  0.000000000E+00  0.000000000E+00  5.077397276E+01  5.077397276E+01  0.000000000E+00  0.00000E+00  9.000E+00
      21    -1     0     0   511   514  0.000000000E+00  0.000000000E+00 -1.416143636E+01  1.416143636E+01  0.000000000E+00  0.00000E+00  9.000E+00
      21     1     1     2   512   514 -1.483668244E+01  1.527323086E+00  1.720975287E+01  2.277356923E+01  0.000000000E+00  0.00000E+00  9.000E+00
       1     1     1     2   515     0  1.000251829E+01 -9.907259398E+00  2.660421230E+01  3.010144802E+01  3.300000131E-01  0.00000E+00  9.000E+00
      21     1     1     2   511   515  4.834164143E+00  8.379936312E+00 -7.201428769E+00  1.206039186E+01  1.884864366E-07  0.00000E+00  9.000E+00
</event>
<event>
      5  10001  3.52971E+09  2.91889E+00 -1.00000E+00  3.00517E-01
       2    -1     0     0   513     0  0.000000000E+00  0.000000000E+00  2.544171009E+02  2.544171009E+02  0.000000000E+00  0.00000E+00  9.000E+00
       3    -1     0     0   511     0  0.000000000E+00  0.000000000E+00 -2.724107110E+00  2.724107110E+00  0.000000000E+00  0.00000E+00  9.000E+00
       2     1     1     2   511     0  3.153209514E+00  9.145202344E+00  1.946180143E+02  1.948585585E+02  3.300000131E-01  0.00000E+00  9.000E+00
       3     1     1     2   512     0 -6.066240375E+00 -9.323438444E+00  9.552342369E+00  1.467048130E+01  5.000000000E-01  0.00000E+00  9.000E+00
      21     1     1     2   513   512  2.913030861E+00  1.782360998E-01  4.752263715E+01  4.761216818E+01  6.743495762E-07  0.00000E+00  9.000E+00
</event>
<event>
      5  10001  3.52971E+09  3.02351E+01 -1.00000E+00  1.52802E-01
      21    -1     0     0   514   512  0.000000000E+00  0.000000000E+00  3.134772880E+01  3.134772880E+01  0.000000000E+00  0.00000E+00  9.000E+00
      21    -1     0     0   511   515  0.000000000E+00  0.000000000E+00 -1.138613428E+02  1.138613428E+02  0.000000000E+00  0.00000E+00  9.000E+00
      21     1     1     2   514   515 -1.217532018E+01  9.566628766E+00  2.698610267E+01  3.111283569E+01  3.371747881E-07  0.00000E+00  9.000E+00
      21     1     1     2   511   516  1.222801693E+01  7.918064808E+00 -5.088587545E+01  5.293007150E+01  0.000000000E+00  0.00000E+00  9.000E+00
      21     1     1     2   516   512 -5.269674939E-02 -1.748469357E+01 -5.861384123E+01  6.116616442E+01  0.000000000E+00  0.00000E+00  9.000E+00
</event>
<event>
      5  10001  3.52971E+09  8.51352E+00 -1.00000E+00  2.04194E-01
       1    -1     0     0   511     0  0.000000000E+00  0.000000000E+00  1.113058052E+02  1.113058052E+02  0.000000000E+00  0.00000E+00  9.000E+00
      21    -1     0     0   513   516  0.000000000E+00  0.000000000E+00 -2.437223886E+00  2.437223886E+00  0.000000000E+00  0.00000E+00  9.000E+00
      21     1     1     2   511   516 -1.481129789E+01 -1.402762656E+00  4.324034359E+01  4.572821451E+01  4.768371582E-07  0.00000E+00  9.000E+00
      21     1     1     2   513   514  9.654567838E+00 -4.372853833E-01  2.181968650E+01  2.386421207E+01  4.768371582E-07  0.00000E+00  9.000E+00
       1     1     1     2   514     0  5.156730056E+00  1.840048039E+00  4.380855122E+01  4.415060251E+01  3.300000131E-01  0.00000E+00  9.000E+00
</event>
<event>
      5  10001  3.52971E+09  1.84264E+01 -1.00000E+00  1.69357E-01
      21    -1     0     0   512   514  0.000000000E+00  0.000000000E+00  1.200080169E+01  1.200080169E+01  0.000000000E+00  0.00000E+00  9.000E+00
      21    -1     0     0   515   512  0.000000000E+00  0.000000000E+00 -1.242148985E+01  1.242148985E+01  0.000000000E+00  0.00000E+00  9.000E+00
      21     1     1     2   513   514 -4.694162955E+00 -2.167928980E+00 -4.023992407E-01  5.186232453E+00  6.121276589E-08  0.00000E+00  9.000E+00
      21     1     1     2   511   513  1.189173269E+00  5.244915071E+00 -8.207075976E+00  9.812204810E+00  2.064765462E-07  0.00000E+00  9.000E+00
      21     1     1     2   515   511  3.504989686E+00 -3.076986092E+00  8.188787054E+00  9.423854282E+00  1.192092896E-07  0.00000E+00  9.000E+00
</event>
<event>
      5  10001  3.52971E+09  5.53442E+00 -1.00000E+00  2.31055E-01
      21    -1     0     0   515   512  0.000000000E+00  0.000000000E+00  2.180891991E+00  2.180891991E+00  0.000000000E+00  0.00000E+00  9.000E+00
       2    -1     0     0   514     0  0.000000000E+00  0.000000000E+00 -7.000420782E+02  7.000420782E+02  0.000000000E+00  0.00000E+00  9.000E+00
      21     1     1     2   514   511 -5.823488579E+00 -8.768382143E+00 -2.235727578E+01  2.471123884E+01  2.384185791E-07  0.00000E+00  9.000E+00
       2     1     1     2   515     0  1.135751833E+01  8.825270088E+00 -6.681655142E+02  6.683203887E+02  3.300000131E-01  0.00000E+00  9.000E+00
      21     1     1     2   511   512 -5.534029754E+00 -5.688794497E-02 -7.338396236E+00  9.191342714E+00  2.528810911E-07  0.00000E+00  9.000E+00
</event>
<event>
      5  10001  3.52971E+09  8.45241E+00 -1.00000E+00  2.04590E-01
       1    -1     0     0   513     0  0.000000000E+00  0.000000000E+00  3.980522426E+02  3.980522426E+02  0.000000000E+00  0.00000E+00  9.000E+00
      -3    -1     0     0     0   513  0.000000000E+00  0.000000000E+00 -4.081913973E+00  4.081913973E+00  0.000000000E+00  0.00000E+00  9.000E+00
      -3     1     1     2     0   512 -1.091424387E+01 -4.275169045E+00  5.241041039E+00  1.284975879E+01  5.000000000E-01  0.00000E+00  9.000E+00
       1     1     1     2   514     0  1.052137899E+01  9.909821335E+00  3.186752391E+02  3.190030108E+02  3.300000131E-01  0.00000E+00  9.000E+00
      21     1     1     2   512   514  3.928648827E-01 -5.634652290E+00  7.005404843E+01  7.028138694E+01  1.348699152E-06  0.00000E+00  9.000E+00
</event>
<event>
      5  10001  3.52971E+09  9.97482E+00 -1.00000E+00  1.95879E-01
      21    -1     0     0   511   514  0.000000000E+00  0.000000000E+00  2.999654354E+01  2.999654354E+01  0.000000000E+00  0.00000E+00  9.000E+00
      21    -1     0     0   512   515  0.000000000E+00  0.000000000E+00 -6.692776645E+02  6.692776645E+02  0.000000000E+00  0.00000E+00  9.000E+00
      21     1     1     2   511   515  1.641895870E+01 -1.616661085E+01  2.507954318E+01  3.405767163E+01  1.545128989E-06  0.00000E+00  9.000E+00
      21     1     1     2   513   514 -1.705245867E+01  6.128297658E+00 -5.760486046E+02  5.763335296E+02  7.629394531E-06  0.00000E+00  9.000E+00
      21     1     1     2   512   513  6.334999776E-01  1.003831320E+01 -8.831205954E+01  8.888300689E+01  9.536743164E-07  0.00000E+00  9.000E+00
</event>
<event>
      5  10001  3.52971E+09  7.56285E+00 -1.00000E+00  2.10908E-01
      21    -1     0     0   512   513  0.000000000E+00  0.000000000E+00  9.295195248E+01  9.295195248E+01  0.000000000E+00  0.00000E+00  9.000E+00
       3    -1     0     0   511     0  0.000000000E+00  0.000000000E+00 -8.916272591E+01  8.916272591E+01  0.000000000E+00  0.00000E+00  9.000E+00
      21     1     1     2   514   513  1.544084004E+01  7.855170628E-01  8.971154575E+01  9.103404868E+01  2.523185073E-06  0.00000E+00  9.000E+00
       3     1     1     2   512     0 -1.400323324E+01 -8.210408137E+00 -7.955084466E+01  8.119167586E+01  5.000000000E-01  0.00000E+00  9.000E+00
      21     1     1     2   511   514 -1.437606805E+00  7.424891074E+00 -6.371474518E+00  9.888953854E+00  1.460009660E-07  0.00000E+00  9.000E+00
</event>
<event>
      5  10001  3.52971E+09  1.42849E+01 -1.00000E+00  1.79402E-01
      21    -1     0     0   515   512  0.000000000E+00  0.000000000E+00  4.405121984E+02  4.405121984E+02  0.000000000E+00  0.00000E+00  9.000E+00
      21    -1     0     0   511   514  0.000000000E+00  0.000000000E+00 -1.280865972E+02  1.280865972E+02  0.000000000E+00  0.00000E+00  9.000E+00
      21     1     1     2   515   514  1.389359956E+01 -1.282161902E+01  5.288200132E+01  5.615987969E+01  9.536743164E-07  0.00000E+00  9.000E+00
      21     1     1     2   511   513 -1.877555598E+01 -6.031231609E-01 -1.256168324E+02  1.270136758E+02  0.000000000E+00  0.00000E+00  9.000E+00
      21     1     1     2   513   512  4.881956423E+00  1.342474218E+01  3.851604322E+02  3.854252401E+02  7.629394531E-06  0.00000E+00  9.000E+00
</event>
<event>
      5  10001  3.52971E+09  8.96133E+00 -1.00000E+00  2.01424E-01
      21    -1     0     0   513   511  0.000000000E+00  0.000000000E+00  7.882107584E-01  7.882107584E-01  0.000000000E+00  0.00000E+00  9.000E+00
      -4    -1     0     0     0   516  0.000000000E+00  0.000000000E+00 -2.713403261E+02  2.713403261E+02  0.000000000E+00  0.00000E+00  9.000E+00
      21     1     1     2   514   511  8.554955143E-01 -6.983524382E+00 -6.111816351E+01  6.152179611E+01  6.743495762E-07  0.00000E+00  9.000E+00
      21     1     1     2   513   516 -9.324788257E-02  1.158540249E+01 -6.091559547E+01  6.200758032E+01  0.000000000E+00  0.00000E+00  9.000E+00
      -4     1     1     2     0   514 -7.622476317E-01 -4.601878111E+00 -1.485183563E+02  1.485991604E+02  1.500000000E+00  0.00000E+00  9.000E+00
</event>
<event>
      5  10001  3.52971E+09  2.29457E+01 -1.00000E+00  1.61588E-01
      21    -1     0     0   512   511  0.000000000E+00  0.000000000E+00  4.360095862E+02  4.360095862E+02  0.000000000E+00  0.00000E+00  9.000E+00
      21    -1     0     0   515   512  0.000000000E+00  0.000000000E+00 -8.393670998E+01  8.393670998E+01  0.000000000E+00  0.00000E+00  9.000E+00
      21     1     1     2   515   514  5.307074358E+00 -1.071134421E+01 -8.207037703E+01  8.293638960E+01  1.348699152E-06  0.00000E+00  9.000E+00
      21     1     1     2   513   511  9.547988883E+00 -2.803577861E+00  3.616325860E+02  3.617694727E+02  6.607249480E-06  0.00000E+00  9.000E+00
      21     1     1     2   514   513 -1.485506324E+01  1.351492208E+01  7.251066727E+01  7.524043388E+01  1.348699152E-06  0.00000E+00  9.000E+00
</event>
<event>
      5  10001  3.52971E+09  4.76796E+00 -1.00000E+00  2.46696E-01
      21    -1     0     0   513   511  0.000000000E+00  0.000000000E+00  7.824190416E+00  7.824190416E+00  0.000000000E+00  0.00000E+00  9.000E+00
       2    -1     0     0   511     0  0.000000000E+00  0.000000000E+00 -1.165445997E+02  1.165445997E+02  0.000000000E+00  0.00000E+00  9.000E+00
      21     1     1     2   513   512  6.546421609E+00 -4.201672117E+00  3.455927772E+00  8.511939922E+00  3.908537939E-07  0.00000E+00  9.000E+00
       2     1     1     2   516     0 -5.012498678E+00  8.459789352E+00 -1.106409228E+02  1.110775219E+02  3.300000131E-01  0.00000E+00  9.000E+00
      21     1     1     2   512   516 -1.533922931E+00 -4.258117235E+00 -1.535414283E+00  4.779328296E+00  8.940696716E-08  0.00000E+00  9.000E+00
</event>
<event>
      5  10001  3.52971E+09  1.23258E+01 -1.00000E+00  1.85809E-01
      21    -1     0     0   514   512  0.000000000E+00  0.000000000E+00  1.008467145E+01  1.008467145E+01  0.000000000E+00  0.00000E+00  9.000E+00
      21    -1     0     0   511   514  0.000000000E+00  0.000000000E+00 -5.281168245E+01  5.281168245E+01  0.000000000E+00  0.00000E+00  9.000E+00
      21     1     1     2   511   515 -1.046096043E+01  3.896098168E+00 -4.682935842E+01  4.814145910E+01  0.000000000E+00  0.00000E+00  9.000E+00
      21     1     1     2   513   512  6.842421576E-01 -4.301024954E+00  1.731342636E+00  4.686635286E+00  2.327635788E-07  0.00000E+00  9.000E+00
      21     1     1     2   515   513  9.776718277E+00  4.049267865E-01  2.371004780E+00  1.006825951E+01  4.235705854E-07  0.00000E+00  9.000E+00
</event>
<event>
      5  10001  3.52971E+09  1.37083E+01 -1.00000E+00  1.81145E-01
      21    -1     0     0   513   511  0.000000000E+00  0.000000000E+00  1.260584986E+00  1.260584986E+00  0.000000000E+00  0.00000E+00  9.000E+00
      21    -1     0     0   516   513  0.000000000E+00  0.000000000E+00 -3.409205852E+02  3.409205852E+02  0.000000000E+00  0.00000E+00  9.000E+00
      -3     1     1     2     0   512 -1.515898677E+01 -9.351020080E+00 -9.745601696E+01  9.907149791E+01  5.000000000E-01  0.00000E+00  9.000E+00
       3     1     1     2   516     0  1.223234412E+01  8.333473275E+00 -1.264605463E+02  1.273247690E+02  5.000000000E-01  0.00000E+00  9.000E+00
      21     1     1     2   512   511  2.926642655E+00  1.017546805E+00 -1.157434369E+02  1.157849033E+02  1.348699152E-06  0.00000E+00  9.000E+00
</event>
<event>
      5  10001  3.52971E+09  1.03386E+01 -1.00000E+00  1.94096E-01
      21    -1     0     0   514   515  0.000000000E+00  0.000000000E+00  4.341784881E+00  4.341784881E+00  0.000000000E+00  0.00000E+00  9.000E+00
      21    -1     0     0   512   511  0.000000000E+00  0.000000000E+00 -6.652376978E+01  6.652376978E+01  0.000000000E+00  0.00000E+00  9.000E+00
      21     1     1     2   514   511 -8.824454441E+00  4.750293874E+00 -5.548495196E+01  5.638276494E+01  6.743495762E-07  0.00000E+00  9.000E+00
      21     1     1     2   513   515  4.796375068E+00 -4.260278928E+00 -7.968974680E+00  1.023033469E+01  2.064765462E-07  0.00000E+00  9.000E+00
      21     1     1     2   512   513  4.028079373E+00 -4.900149467E-01  1.271941738E+00  4.252455040E+00  8.429369702E-08  0.00000E+00  9.000E+00
</event>
<event>
      5  10001  3.52971E+09  6.69465E+00 -1.00000E+00  2.18322E-01
      21    -1     0     0   516   511  0.000000000E+00  0.000000000E+00  5.780897569E+00  5.780897569E+00  0.000000000E+00  0.00000E+00  9.000E+00
      21    -1     0     0   514   516  0.000000000E+00  0.000000000E+00 -7.553157467E+02  7.553157467E+02  0.000000000E+00  0.00000E+00  9.000E+00
      21     1     1     2   512   517 -4.849641382E+00 -1.221309913E+01 -4.939442182E+01  5.111250061E+01  9.536743164E-07  0.00000E+00  9.000E+00
      21     1     1     2   517   511 -1.773313200E+00  1.123594528E+01 -1.687943433E+00  1.149957647E+01  3.291774099E-07  0.00000E+00  9.000E+00
      21     1     1     2   514   512  6.622954581E+00  9.771538531E-01 -6.984524839E+02  6.984845672E+02  1.321449896E-05  0.00000E+00  9.000E+00
</event>
<event>
      5  10001  3.52971E+09  4.66188E+00 -1.00000E+00  2.48718E-01
      21    -1     0     0   513   511  0.000000000E+00  0.000000000E+00  1.521362922E+02  1.521362922E+02  0.000000000E+00  0.00000E+00  9.000E+00
      -2    -1     0     0     0   512  0.000000000E+00  0.000000000E+00 -1.053971099E+00  1.053971099E+00  0.000000000E+00  0.00000E+00  9.000E+00
      -2     1     1     2     0   515  3.271504140E+00  8.538322800E+00  4.253330457E+01  4.350628223E+01  3.300000131E-01  0.00000E+00  9.000E+00
      21     1     1     2   513   512 -5.688374751E+00 -8.484730340E+00  1.042709371E+02  1.047701130E+02  1.348699152E-06  0.00000E+00  9.000E+00
      21     1     1     2   515   511  2.416870611E+00 -5.359245979E-02  4.278079416E+00  4.913868048E+00  1.332800375E-07  0.00000E+00  9.000E+00
</event>
<event>
      5  10001  3.52971E+09  2.57756E+00 -1.00000E+00  3.18404E-01
       3    -1     0     0   512     0  0.000000000E+00  0.000000000E+00  9.025653526E+01  9.025653526E+01  0.000000000E+00  0.00000E+00  9.000E+00
      21    -1     0     0   513   512  0.000000000E+00  0.000000000E+00 -1.602793205E+02  1.602793205E+02  0.000000000E+00  0.00000E+00  9.000E+00
      21     1     1     2   513   514  1.036941863E+00 -1.376403173E+01 -1.594240368E+02  1.600204591E+02  2.697398305E-06  0.00000E+00  9.000E+00
       3     1     1     2   516     0 -1.518835414E+00  9.308197930E+00  5.247422871E+01  5.331739011E+01  5.000000000E-01  0.00000E+00  9.000E+00
      21     1     1     2   514   516  4.818935507E-01  4.455833804E+00  3.692702284E+01  3.719800656E+01  6.743495762E-07  0.00000E+00  9.000E+00
</event>
<event>
      5  10001 -3.52971E+09  1.38561E+01 -1.00000E+00  1.80688E-01
      21    -1     0     0   511   515  0.000000000E+00  0.000000000E+00  3.742805902E+02  3.742805902E+02  0.000000000E+00  0.00000E+00  9.000E+00
       5    -1     0     0   514     0  0.000000000E+00  0.000000000E+00 -2.463281009E+02  2.463281009E+02  0.000000000E+00  0.00000E+00  9.000E+00
      21     1     1     2   514   515 -7.927033083E+00  1.676419811E+01  3.736481452E+02  3.741080227E+02  5.394796609E-06  0.00000E+00  9.000E+00
      21     1     1     2   511   512  2.519840237E+00 -2.549949728E+00 -2.936945593E+01  2.958744295E+01  1.545128989E-06  0.00000E+00  9.000E+00
       5     1     1     2   512     0  5.407192846E+00 -1.421424838E+01 -2.163262000E+02  2.169132255E+02  4.800000191E+00  0.00000E+00  9.000E+00
</event>
<event>
      5  10001  3.52971E+09  1.81307E+01 -1.00000E+00  1.69960E-01
      21    -1     0     0   512   514  0.000000000E+00  0.000000000E+00  1.017021990E+02  1.017021990E+02  0.000000000E+00  0.00000E+00  9.000E+00
       1    -1     0     0   511     0  0.000000000E+00  0.000000000E+00 -4.873295220E+02  4.873295220E+02  0.000000000E+00  0.00000E+00  9.000E+00
      21     1     1     2   511   513  4.621802785E+01  2.221274537E+01 -2.723563218E+02  2.771416212E+02  6.607249480E-06  0.00000E+00  9.000E+00
       1     1     1     2   512     0 -3.866402418E+01 -3.869486096E+01 -2.081892110E+02  2.152557909E+02  3.300000131E-01  0.00000E+00  9.000E+00
      21     1     1     2   513   514 -7.554003676E+00  1.648211558E+01  9.491820979E+01  9.663430890E+01  1.348699152E-06  0.00000E+00  9.000E+00
</event>
<event>
      5  10001  3.52971E+09  1.91543E+01 -1.00000E+00  1.67929E-01
      21    -1     0     0   515   513  0.000000000E+00  0.000000000E+00  2.215128114E+02  2.215128114E+02  0.000000000E+00  0.00000E+00  9.000E+00
      21    -1     0     0   511   514  0.000000000E+00  0.000000000E+00 -7.339654079E+01  7.339654079E+01  0.000000000E+00  0.00000E+00  9.000E+00
      21     1     1     2   515   514 -9.385968227E+00 -7.219309521E-01 -6.761782075E+01  6.826995875E+01  1.348699152E-06  0.00000E+00  9.000E+00
      21     1     1     2   511   512  5.515346227E+00 -2.564548539E-01  2.204167194E+02  2.204858612E+02  2.697398305E-06  0.00000E+00  9.000E+00
      21     1     1     2   512   513  3.870622000E+00  9.783858060E-01 -4.682628029E+00  6.153532214E+00  2.858538343E-07  0.00000E+00  9.000E+00
</event>
<event>
      5  10001  3.52971E+09  9.19004E+00 -1.00000E+00  2.00091E-01
      21    -1     0     0   516   511  0.000000000E+00  0.000000000E+00  6.685326335E+01  6.685326335E+01  0.000000000E+00  0.00000E+00  9.000E+00
      21    -1     0     0   517   513  0.000000000E+00  0.000000000E+00 -3.437773246E+00  3.437773246E+00  0.000000000E+00  0.00000E+00  9.000E+00
      21     1     1     2   516   513  4.404681619E+00  6.889144083E+00  4.360685689E+01  4.436687384E+01  0.000000000E+00  0.00000E+00  9.000E+00
       5     1     1     2   517     0 -7.796866235E+00 -4.741186410E+00  1.399116032E+01  1.737994651E+01  4.800000191E+00  0.00000E+00  9.000E+00
      -5     1     1     2     0   511  3.392184616E+00 -2.147957674E+00  5.817472891E+00  8.544216249E+00  4.800000191E+00  0.00000E+00  9.000E+00
</event>
<event>
      5  10001  3.52971E+09  5.68382E+01 -1.00000E+00  1.35970E-01
      21    -1     0     0   512   513  0.000000000E+00  0.000000000E+00  1.304827534E+03  1.304827534E+03  0.000000000E+00  0.00000E+00  9.000E+00
      21    -1     0     0   514   511  0.000000000E+00  0.000000000E+00 -2.176857234E+00  2.176857234E+00  0.000000000E+00  0.00000E+00  9.000E+00
      21     1     1     2   512   511  3.814482166E+01  2.012813367E+01  8.786823810E+02  8.797402434E+02  1.078959322E-05  0.00000E+00  9.000E+00
      21     1     1     2   514   515 -1.123248328E+01  6.658196221E+00  1.664692016E+02  1.669805238E+02  1.907348633E-06  0.00000E+00  9.000E+00
      21     1     1     2   515   513 -2.691233838E+01 -2.678632989E+01  2.574990944E+02  2.602836242E+02  6.607249480E-06  0.00000E+00  9.000E+00
</event>
<event>
      5  10001  3.52971E+09  4.17235E+00 -1.00000E+00  2.59218E-01
      21    -1     0     0   516   511  0.000000000E+00  0.000000000E+00  3.753092148E+02  3.753092148E+02  0.000000000E+00  0.00000E+00  9.000E+00
      21    -1     0     0   517   513  0.000000000E+00  0.000000000E+00 -3.758327834E+01  3.758327834E+01  0.000000000E+00  0.00000E+00  9.000E+00
      21     1     1     2   516   513 -3.162496063E+00 -1.082486247E+01  3.730443751E+02  3.732147971E+02  5.394796609E-06  0.00000E+00  9.000E+00
      21     1     1     2   512   511 -5.819517451E-01  8.658137674E+00 -3.409486618E+01  3.518184071E+01  0.000000000E+00  0.00000E+00  9.000E+00
      21     1     1     2   517   512  3.744447808E+00  2.166724799E+00 -1.223572404E+00  4.495855332E+00  1.437015945E-07  0.00000E+00  9.000E+00
</event>
<event>
      5  10001  3.52971E+09  8.64578E+00 -1.00000E+00  2.03353E-01
      21    -1     0     0   514   512  0.000000000E+00  0.000000000E+00  5.610506714E-01  5.610506714E-01  0.000000000E+00  0.00000E+00  9.000E+00
      21    -1     0     0   517   515  0.000000000E+00  0.000000000E+00 -2.029672855E+02  2.029672855E+02  0.000000000E+00  0.00000E+00  9.000E+00
      21     1     1     2   514   515  9.383289953E-01  9.362412192E+00 -8.975980007E+01  9.025163119E+01  1.348699152E-06  0.00000E+00  9.000E+00
      21     1     1     2   517   511  3.117397721E+00 -3.810471721E+00 -5.556516335E+01  5.578284003E+01  6.743495762E-07  0.00000E+00  9.000E+00
      21     1     1     2   511   512 -4.055726717E+00 -5.551940471E+00 -5.708127144E+01  5.749386499E+01  6.743495762E-07  0.00000E+00  9.000E+00
</event>
<event>
      5  10001  3.52971E+09  1.28192E+01 -1.00000E+00  1.84058E-01
      21    -1     0     0   511   512  0.000000000E+00  0.000000000E+00  8.880832559E-01  8.880832559E-01  0.000000000E+00  0.00000E+00  9.000E+00
       2    -1     0     0   514     0  0.000000000E+00  0.000000000E+00 -5.778961238E+02  5.778961238E+02  0.000000000E+00  0.00000E+00  9.000E+00
      21     1     1     2   513   512  6.686272164E-01 -2.092161871E+01 -2.179322517E+02  2.189352130E+02  0.000000000E+00  0.00000E+00  9.000E+00
       2     1     1     2   511     0  4.914103321E+00  9.383466893E+00 -1.418004457E+02  1.421958971E+02  3.300000131E-01  0.00000E+00  9.000E+00
      21     1     1     2   514   513 -5.582730537E+00  1.153815182E+01 -2.172753432E+02  2.176530969E+02  4.672030912E-06  0.00000E+00  9.000E+00
</event>
<event>
      5  10001  3.52971E+09  7.08773E+00 -1.00000E+00  2.14786E-01
       2    -1     0     0   513     0  0.000000000E+00  0.000000000E+00  6.072069842E+02  6.072069842E+02  0.000000000E+00  0.00000E+00  9.000E+00
       5    -1     0     0   514     0  0.000000000E+00  0.000000000E+00 -3.978967052E+00  3.978967052E+00  0.000000000E+00  0.00000E+00  9.000E+00
       2     1     1     2   511     0  4.623152349E+00 -5.295659943E+00  5.169372453E+02  5.169851468E+02  3.300000131E-01  0.00000E+00  9.000E+00
       5     1     1     2   513     0 -1.003071355E+01  1.789921677E+00  4.455881573E+00  1.211255201E+01  4.800000191E+00  0.00000E+00  9.000E+00
      21     1     1     2   514   511  5.407561199E+00  3.505738265E+00  8.183489038E+01  8.208825253E+01  9.536743164E-07  0.00000E+00  9.000E+00
</event>
<event>
      5  10001  3.52971E+09  5.97405E+00 -1.00000E+00  2.25758E-01
      21    -1     0     0   514   513  0.000000000E+00  0.000000000E+00  2.324335853E+02  2.324335853E+02  0.000000000E+00  0.00000E+00  9.000E+00
       2    -1     0     0   511     0  0.000000000E+00  0.000000000E+00 -3.733809682E+00  3.733809682E+00  0.000000000E+00  0.00000E+00  9.000E+00
      21     1     1     2   514   512 -1.412208581E+01 -6.082972405E+00  1.535182802E+02  1.542864161E+02  1.907348633E-06  0.00000E+00  9.000E+00
       2     1     1     2   512     0  1.138504573E+01  7.730327158E-01  6.901244131E+00  1.333989942E+01  3.300000131E-01  0.00000E+00  9.000E+00
      21     1     1     2   511   513  2.737040077E+00  5.309939689E+00  6.828025135E+01  6.854107945E+01  0.000000000E+00  0.00000E+00  9.000E+00
</event>
<event>
      5  10001  3.52971E+09  2.30511E+01 -1.00000E+00  1.61434E-01
       2    -1     0     0   514     0  0.000000000E+00  0.000000000E+00  8.550781599E+02  8.550781599E+02  0.000000000E+00  0.00000E+00  9.000E+00
       4    -1     0     0   511     0  0.000000000E+00  0.000000000E+00 -8.425727703E-01  8.425727703E-01  0.000000000E+00  0.00000E+00  9.000E+00
       2     1     1     2   511     0 -9.702142369E+00  1.252584818E+01  6.383207882E+02  6.385174751E+02  3.300000131E-01  0.00000E+00  9.000E+00
      21     1     1     2   514   512 -4.518638054E+00 -3.817557743E+00  2.248082635E+01  2.324606182E+01  0.000000000E+00  0.00000E+00  9.000E+00
       4     1     1     2   512     0  1.422078042E+01 -8.708290432E+00  1.934339726E+02  1.941571958E+02  1.500000000E+00  0.00000E+00  9.000E+00
</event>
<event>
      5  10001  3.52971E+09  2.11915E+01 -1.00000E+00  1.64319E-01
      -5    -1     0     0     0   511  0.000000000E+00  0.000000000E+00  3.722749189E+00  3.722749189E+00  0.000000000E+00  0.00000E+00  9.000E+00
       1    -1     0     0   511     0  0.000000000E+00  0.000000000E+00 -2.361026724E+02  2.361026724E+02  0.000000000E+00  0.00000E+00  9.000E+00
      21     1     1     2   513   512  3.609716842E+00  1.200084601E+01 -2.769401068E+01  3.039750958E+01  4.768371582E-07  0.00000E+00  9.000E+00
       1     1     1     2   512     0 -1.099090387E+01 -7.309601711E+00 -1.952501012E+02  1.956960428E+02  3.300000131E-01  0.00000E+00  9.000E+00
      -5     1     1     2     0   513  7.381187033E+00 -4.691244300E+00 -9.435811321E+00  1.373186922E+01  4.800000191E+00  0.00000E+00  9.000E+00
</event>
<event>
      5  10001  3.52971E+09  9.11716E+00 -1.00000E+00  2.00510E-01
      21    -1     0     0   514   512  0.000000000E+00  0.000000000E+00  1.538428200E+01  1.538428200E+01  0.000000000E+00  0.00000E+00  9.000E+00
      21    -1     0     0   511   513  0.000000000E+00  0.000000000E+00 -1.159040538E+02  1.159040538E+02  0.000000000E+00  0.00000E+00  9.000E+00
      21     1     1     2   514   513  1.138304433E+01 -1.324556397E+00 -1.130486054E+02  1.136279690E+02  1.907348633E-06  0.00000E+00  9.000E+00
      21     1     1     2   511   515 -4.382179322E+00  5.996396532E-01  1.685982382E+00  4.733455389E+00  1.413648275E-07  0.00000E+00  9.000E+00
      21     1     1     2   515   512 -7.000865006E+00  7.249167442E-01  1.084285126E+01  1.292691141E+01  2.665600750E-07  0.00000E+00  9.000E+00
</event>
<event>
      5  10001  3.52971E+09  2.58617E+00 -1.00000E+00  3.17895E-01
      21    -1     0     0   511   513  0.000000000E+00  0.000000000E+00  2.309961449E+02  2.309961449E+02  0.000000000E+00  0.00000E+00  9.000E+00
       2    -1     0     0   512     0  0.000000000E+00  0.000000000E+00 -2.236700904E+02  2.236700904E+02  0.000000000E+00  0.00000E+00  9.000E+00
      21     1     1     2   511   515 -3.258375438E+00 -2.105252170E+01 -3.873376397E+01  4.420554436E+01  1.581489940E-06  0.00000E+00  9.000E+00
       2     1     1     2   515     0  2.301979392E+00  1.864969824E+01 -1.817084184E+02  1.826777725E+02  3.300000131E-01  0.00000E+00  9.000E+00
      21     1     1     2   512   513  9.563960457E-01  2.402823459E+00  2.277682368E+02  2.277829185E+02  0.000000000E+00  0.00000E+00  9.000E+00
</event>
<event>
      5  10001  3.52971E+09  5.47765E+00 -1.00000E+00  2.31789E-01
      21    -1     0     0   514   515  0.000000000E+00  0.000000000E+00  1.357822726E+01  1.357822726E+01  0.000000000E+00  0.00000E+00  9.000E+00
      21    -1     0     0   512   511  0.000000000E+00  0.000000000E+00 -1.338301906E+01  1.338301906E+01  0.000000000E+00  0.00000E+00  9.000E+00
      21     1     1     2   514   513 -7.030290548E+00  9.758605768E+00 -1.025486604E+00  1.207091523E+01  2.763753681E-07  0.00000E+00  9.000E+00
      21     1     1     2   512   515  1.642024168E+00 -8.773096449E+00  2.492588061E+00  9.266955267E+00  1.397852826E-07  0.00000E+00  9.000E+00
      21     1     1     2   513   511  5.388266380E+00 -9.855093189E-01 -1.271893254E+00  5.623375823E+00  1.341104507E-07  0.00000E+00  9.000E+00
</event>
<event>
      5  10001  3.52971E+09  1.38453E+01 -1.00000E+00  1.80721E-01
      21    -1     0     0   516   511  0.000000000E+00  0.000000000E+00  7.011958491E+02  7.011958491E+02  0.000000000E+00  0.00000E+00  9.000E+00
      21    -1     0     0   513   517  0.000000000E+00  0.000000000E+00 -2.597557473E+00  2.597557473E+00  0.000000000E+00  0.00000E+00  9.000E+00
      21     1     1     2   516   517  1.209285612E+01 -6.907609514E+00  6.445910258E+02  6.447414543E+02  1.525878906E-05  0.00000E+00  9.000E+00
      -4     1     1     2     0   511 -9.783884893E+00  1.341135564E+01  4.083041986E+01  4.410172389E+01  1.500000000E+00  0.00000E+00  9.000E+00
       4     1     1     2   513     0 -2.308971224E+00 -6.503746130E+00  1.317684597E+01  1.495022848E+01  1.500000000E+00  0.00000E+00  9.000E+00
</event>
<event>
      5  10001  3.52971E+09  9.23905E+00 -1.00000E+00  1.99812E-01
      21    -1     0     0   512   515  0.000000000E+00  0.000000000E+00  2.235648604E+01  2.235648604E+01  0.000000000E+00  0.00000E+00  9.000E+00
      21    -1     0     0   513   514  0.000000000E+00  0.000000000E+00 -2.787457447E+01  2.787457447E+01  0.000000000E+00  0.00000E+00  9.000E+00
      21     1     1     2   512   514  2.542231507E+00 -1.049442139E+01  1.928110192E+01  2.209879437E+01  4.129530925E-07  0.00000E+00  9.000E+00
      21     1     1     2   511   515 -3.632925930E+00  1.632695675E+00 -1.097533536E+01  1.167569408E+01  2.665600750E-07  0.00000E+00  9.000E+00
      21     1     1     2   513   511  1.090694423E+00  8.861725718E+00 -1.382385500E+01  1.645657206E+01  3.371747881E-07  0.00000E+00  9.000E+00
</event>
<event>
      5  10001  3.52971E+09  7.29724E+00 -1.00000E+00  2.13027E-01
      21    -1     0     0   516   512  0.000000000E+00  0.000000000E+00  2.799319394E+02  2.799319394E+02  0.000000000E+00  0.00000E+00  9.000E+00
      21    -1     0     0   513   517  0.000000000E+00  0.000000000E+00 -2.421117554E+01  2.421117554E+01  0.000000000E+00  0.00000E+00  9.000E+00
      21     1     1     2   516   517 -1.127463107E+01  2.337076759E+00 -2.197426135E+01  2.480821226E+01  4.129530925E-07  0.00000E+00  9.000E+00
      21     1     1     2   513   511  9.333834665E+00 -9.371490458E+00  2.578790017E+02  2.582179792E+02  7.629394531E-06  0.00000E+00  9.000E+00
      21     1     1     2   511   512  1.940796401E+00  7.034413699E+00  1.981602358E+01  2.111692348E+01  2.384185791E-07  0.00000E+00  9.000E+00
</event>
<event>
      5  10001  3.52971E+09  4.57481E+00 -1.00000E+00  2.50439E-01
       2    -1     0     0   515     0  0.000000000E+00  0.000000000E+00  5.957450758E+00  5.957450758E+00  0.000000000E+00  0.00000E+00  9.000E+00
      21    -1     0     0   514   515  0.000000000E+00  0.000000000E+00 -1.266076859E+02  1.266076859E+02  0.000000000E+00  0.00000E+00  9.000E+00
      21     1     1     2   514   511  8.572831444E+00 -6.467984997E+00 -1.176521391E+02  1.181412464E+02  2.336015456E-06  0.00000E+00  9.000E+00
       2     1     1     2   513     0 -4.341234127E+00  7.494228776E+00  7.216599868E-01  8.697095598E+00  3.300000131E-01  0.00000E+00  9.000E+00
      21     1     1     2   511   513 -4.231597317E+00 -1.026243779E+00 -3.719756055E+00  5.726794676E+00  7.300048300E-08  0.00000E+00  9.000E+00
</event>
<event>
      5  10001  3.52971E+09  9.71067E+00 -1.00000E+00  1.97238E-01
      21    -1     0     0   514   513  0.000000000E+00  0.000000000E+00  7.721959119E+01  7.721959119E+01  0.000000000E+00  0.00000E+00  9.000E+00
      -2    -1     0     0     0   512  0.000000000E+00  0.000000000E+00 -4.339426008E+01  4.339426008E+01  0.000000000E+00  0.00000E+00  9.000E+00
      -2     1     1     2     0   515 -5.311863667E+00 -9.167899418E+00 -2.890351670E+01  3.078617309E+01  3.300000131E-01  0.00000E+00  9.000E+00
      21     1     1     2   514   512 -1.372006592E+00  1.604476874E+01  7.359429280E+01  7.533549588E+01  1.348699152E-06  0.00000E+00  9.000E+00
      21     1     1     2   515   513  6.683870259E+00 -6.876869322E+00 -1.086544499E+01  1.449218231E+01  2.064765462E-07  0.00000E+00  9.000E+00
</event>
<event>
      5  10001  3.52971E+09  3.70762E+00 -1.00000E+00  2.71478E-01
      21    -1     0     0   511   515  0.000000000E+00  0.000000000E+00  1.657654297E+02  1.657654297E+02  0.000000000E+00  0.00000E+00  9.000E+00
      21    -1     0     0   512   511  0.000000000E+00  0.000000000E+00 -3.294260120E+01  3.294260120E+01  0.000000000E+00  0.00000E+00  9.000E+00
      21     1     1     2   513   516 -7.032112071E-02  1.206786323E+01  2.261697900E+01  2.563524931E+01  5.331201500E-07  0.00000E+00  9.000E+00
      21     1     1     2   516   515  3.856088202E-01 -8.373671236E+00  1.414054315E+02  1.416536732E+02  2.697398305E-06  0.00000E+00  9.000E+00
      21     1     1     2   512   513 -3.152876995E-01 -3.694191994E+00 -3.119958197E+01  3.141910845E+01  7.539457465E-07  0.00000E+00  9.000E+00
</event>
<event>
      5  10001  3.52971E+09  3.79703E+01 -1.00000E+00  1.46254E-01
      21    -1     0     0   514   516  0.000000000E+00  0.000000000E+00  3.011162419E+01  3.011162419E+01  0.000000000E+00  0.00000E+00  9.000E+00
      21    -1     0     0   512   513  0.000000000E+00  0.000000000E+00 -4.611895682E+01  4.611895682E+01  0.000000000E+00  0.00000E+00  9.000E+00
      21     1     1     2   514   513  9.501988378E+00  7.443707828E-02  2.662584773E+01  2.827064010E+01  4.768371582E-07  0.00000E+00  9.000E+00
      21     1     1     2   512   511  4.215168582E+00 -4.952540126E+00 -7.483784777E+00  9.914753374E+00  1.192092896E-07  0.00000E+00  9.000E+00
      21     1     1     2   511   516 -1.371715696E+01  4.878103048E+00 -3.514939559E+01  3.804518754E+01  9.536743164E-07  0.00000E+00  9.000E+00
</event>
<event>
      5  10001  3.52971E+09  7.36487E+00 -1.00000E+00  2.12476E-01
       2    -1     0     0   512     0  0.000000000E+00  0.000000000E+00  2.994892390E+02  2.994892390E+02  0.000000000E+00  0.00000E+00  9.000E+00
      21    -1     0     0   513   515  0.000000000E+00  0.000000000E+00 -5.776270952E+00  5.776270952E+00  0.000000000E+00  0.00000E+00  9.000E+00
      21     1     1     2   512   515 -4.048317556E-01 -1.410686761E+01  2.567391422E+01  2.929705572E+01  4.768371582E-07  0.00000E+00  9.000E+00
       2     1     1     2   511     0  7.389647592E+00  1.177196127E+01  2.682408869E+02  2.686009461E+02  3.300000131E-01  0.00000E+00  9.000E+00
      21     1     1     2   513   511 -6.984815837E+00  2.334906340E+00 -2.018330053E-01  7.367508158E+00  1.948935741E-07  0.00000E+00  9.000E+00
</event>
<event>
      5  10001  3.52971E+09  1.07336E+01 -1.00000E+00  1.92264E-01
      21    -1     0     0   514   511  0.000000000E+00  0.000000000E+00  1.064457693E+02  1.064457693E+02  0.000000000E+00  0.00000E+00  9.000E+00
      21    -1     0     0   513   516  0.000000000E+00  0.000000000E+00 -1.691126789E+01  1.691126789E+01  0.000000000E+00  0.00000E+00  9.000E+00
      21     1     1     2   514   516  1.119689681E+01  1.326381200E+01  9.662987862E+01  9.817653818E+01  0.000000000E+00  0.00000E+00  9.000E+00
      21     1     1     2   512   511 -1.167507049E+00 -1.096189420E+01 -9.568467801E+00  1.459732076E+01  4.460403188E-07  0.00000E+00  9.000E+00
      21     1     1     2   513   512 -1.002938976E+01 -2.301917797E+00  2.473090579E+00  1.058317823E+01  4.214684851E-08  0.00000E+00  9.000E+00
</event>
<event>
      5  10001  3.52971E+09  9.35901E+00 -1.00000E+00  1.99138E-01
      21    -1     0     0   515   512  0.000000000E+00  0.000000000E+00  2.736334249E-01  2.736334249E-01  0.000000000E+00  0.00000E+00  9.000E+00
      21    -1     0     0   513   517  0.000000000E+00  0.000000000E+00 -5.117761378E+02  5.117761378E+02  0.000000000E+00  0.00000E+00  9.000E+00
      21     1     1     2   515   517 -5.802287949E+00  4.138103457E+00 -2.408066639E+02  2.409120998E+02  0.000000000E+00  0.00000E+00  9.000E+00
      21     1     1     2   511   512  7.914586388E+00 -1.723780206E+00 -7.884059030E+01  7.925560406E+01  1.651812370E-06  0.00000E+00  9.000E+00
      21     1     1     2   513   511 -2.112298439E+00 -2.414323251E+00 -1.918552502E+02  1.918820674E+02  2.697398305E-06  0.00000E+00  9.000E+00
</event>
<event>
      5  10001  3.52971E+09  4.08150E+00 -1.00000E+00  2.61415E-01
      21    -1     0     0   514   511  0.000000000E+00  0.000000000E+00  4.724964834E+01  4.724964834E+01  0.000000000E+00  0.00000E+00  9.000E+00
      21    -1     0     0   512   516  0.000000000E+00  0.000000000E+00 -4.097593742E+01  4.097593742E+01  0.000000000E+00  0.00000E+00  9.000E+00
      21     1     1     2   514   516 -1.502018640E+01  4.475171973E+00  4.074801784E+01  4.365815069E+01  6.743495762E-07  0.00000E+00  9.000E+00
      21     1     1     2   513   511  1.224026595E+01 -1.486748535E+00 -2.816768341E+00  1.264787396E+01  3.897159347E-07  0.00000E+00  9.000E+00
      21     1     1     2   512   513  2.779920447E+00 -2.988423438E+00 -3.165753858E+01  3.191956111E+01  3.371747881E-07  0.00000E+00  9.000E+00
</event>
<event>
      5  10001  3.52971E+09  3.45086E+00 -1.00000E+00  2.79549E-01
      21    -1     0     0   511   513  0.000000000E+00  0.000000000E+00  8.844081000E+01  8.844081000E+01  0.000000000E+00  0.00000E+00  9.000E+00
      21    -1     0     0   512   515  0.000000000E+00  0.000000000E+00 -3.725062984E+00  3.725062984E+00  0.000000000E+00  0.00000E+00  9.000E+00
      21     1     1     2   512   517 -7.197844974E+00  1.077895078E+01  1.235713861E+01  1.790792078E+01  4.460403188E-07  0.00000E+00  9.000E+00
      21     1     1     2   517   513  3.765390388E+00 -1.113490953E+01  3.931231659E+01  4.103197059E+01  4.768371582E-07  0.00000E+00  9.000E+00
      21     1     1     2   511   515  3.432454586E+00  3.559587524E-01  3.304629181E+01  3.322598161E+01  0.000000000E+00  0.00000E+00  9.000E+00
</event>
<event>
      5  10001  3.52971E+09  1.41653E+01 -1.00000E+00  1.79755E-01
      -3    -1     0     0     0   512  0.000000000E+00  0.000000000E+00  9.658365808E-01  9.658365808E-01  0.000000000E+00  0.00000E+00  9.000E+00
       2    -1     0     0   512     0  0.000000000E+00  0.000000000E+00 -1.333667043E+03  1.333667043E+03  0.000000000E+00  0.00000E+00  9.000E+00
      -3     1     1     2     0   511  1.604553368E+01 -4.121009119E+00 -8.805543312E+01  8.960162482E+01  5.000000000E-01  0.00000E+00  9.000E+00
       2     1     1     2   513     0 -7.705369276E+00  3.925621574E+00 -1.146190994E+03  1.146223664E+03  3.300000131E-01  0.00000E+00  9.000E+00
      21     1     1     2   511   513 -8.340164403E+00  1.953875445E-01 -9.845477956E+01  9.880759149E+01  1.907348633E-06  0.00000E+00  9.000E+00
</event>
<event>
      5  10001  3.52971E+09  4.86608E+00 -1.00000E+00  2.44896E-01
      21    -1     0     0   514   512  0.000000000E+00  0.000000000E+00  2.554975361E+02  2.554975361E+02  0.000000000E+00  0.00000E+00  9.000E+00
      21    -1     0     0   511   515  0.000000000E+00  0.000000000E+00 -3.836173537E+01  3.836173537E+01  0.000000000E+00  0.00000E+00  9.000E+00
      21     1     1     2   514   515  1.122857717E+01  4.969494853E+00  2.541745882E+02  2.544710163E+02  2.697398305E-06  0.00000E+00  9.000E+00
      21     1     1     2   511   516 -3.985611800E+00 -4.263651915E+00 -2.059717828E+01  2.140811954E+01  5.331201500E-07  0.00000E+00  9.000E+00
      21     1     1     2   516   512 -7.242965366E+00 -7.058429377E-01 -1.644160925E+01  1.798013560E+01  8.596304120E-07  0.00000E+00  9.000E+00
</event>
<event>
      5  10001  3.52971E+09  7.47888E+00 -1.00000E+00  2.11565E-01
      21    -1     0     0   513   511  0.000000000E+00  0.000000000E+00  3.055023752E+00  3.055023752E+00  0.000000000E+00  0.00000E+00  9.000E+00
      21    -1     0     0   512   513  0.000000000E+00  0.000000000E+00 -3.738623453E+02  3.738623453E+02  0.000000000E+00  0.00000E+00  9.000E+00
      21     1     1     2   512   517 -1.053027191E+01 -1.229267191E+01 -3.497258567E+02  3.501002303E+02  6.607249480E-06  0.00000E+00  9.000E+00
      21     1     1     2   514   511  9.470816428E-01  3.219771985E+00 -4.847366132E+00  5.895833587E+00  5.960464478E-08  0.00000E+00  9.000E+00
      21     1     1     2   517   514  9.583190270E+00  9.072899929E+00 -1.623409872E+01  2.092130517E+01  0.000000000E+00  0.00000E+00  9.000E+00
</event>
<event>
      5  10001  3.52971E+09  1.08876E+01 -1.00000E+00  1.91578E-01
      21    -1     0     0   514   511  0.000000000E+00  0.000000000E+00  4.927743831E+00  4.927743831E+00  0.000000000E+00  0.00000E+00  9.000E+00
       2    -1     0     0   511     0  0.000000000E+00  0.000000000E+00 -6.914258464E+01  6.914258464E+01  0.000000000E+00  0.00000E+00  9.000E+00
      21     1     1     2   512   515  1.454207255E+00 -1.268079126E+01 -1.972374060E+01  2.349346992E+01  4.768371582E-07  0.00000E+00  9.000E+00
       2     1     1     2   515     0  3.039235001E+00  1.340313461E+01 -4.388218581E+01  4.598517259E+01  3.300000131E-01  0.00000E+00  9.000E+00
      21     1     1     2   514   512 -4.493442256E+00 -7.223433507E-01 -6.089144012E-01  4.591685962E+00  1.035067736E-07  0.00000E+00  9.000E+00
</event>
<event>
      5  10001  3.52971E+09  1.04153E+01 -1.00000E+00  1.93732E-01
      21    -1     0     0   513   511  0.000000000E+00  0.000000000E+00  1.807131045E+01  1.807131045E+01  0.000000000E+00  0.00000E+00  9.000E+00
       3    -1     0     0   514     0  0.000000000E+00  0.000000000E+00 -1.335601766E+01  1.335601766E+01  0.000000000E+00  0.00000E+00  9.000E+00
      21     1     1     2   515   511 -2.129322570E+00 -5.816400219E+00  3.008739080E+00  6.886002975E+00  0.000000000E+00  0.00000E+00  9.000E+00
       3     1     1     2   513     0  9.817044920E+00  6.100233838E+00 -6.518864401E+00  1.327903675E+01  5.000000000E-01  0.00000E+00  9.000E+00
      21     1     1     2   514   515 -7.687722350E+00 -2.838336188E-01  8.225418111E+00  1.126228838E+01  1.192092896E-07  0.00000E+00  9.000E+00
</event>
<event>
      5  10001  3.52971E+09  2.89328E+01 -1.00000E+00  1.54138E-01
      21    -1     0     0   514   511  0.000000000E+00  0.000000000E+00  1.037681336E+01  1.037681336E+01  0.000000000E+00  0.00000E+00  9.000E+00
       1    -1     0     0   511     0  0.000000000E+00  0.000000000E+00 -3.649008158E+02  3.649008158E+02  0.000000000E+00  0.00000E+00  9.000E+00
      21     1     1     2   514   512 -1.274509211E+01 -1.428814671E+01 -8.425337009E-01  1.916502993E+01  5.400514684E-07  0.00000E+00  9.000E+00
      21     1     1     2   512   513  2.225754999E+01  1.903294894E+01 -2.091515182E+02  2.111918778E+02  2.697398305E-06  0.00000E+00  9.000E+00
       1     1     1     2   513     0 -9.512457885E+00 -4.744802228E+00 -1.445299506E+02  1.449207215E+02  3.300000131E-01  0.00000E+00  9.000E+00
</event>
<event>
      5  10001  3.52971E+09  7.49944E+00 -1.00000E+00  2.11403E-01
      21    -1     0     0   515   513  0.000000000E+00  0.000000000E+00  2.469678864E+01  2.469678864E+01  0.000000000E+00  0.00000E+00  9.000E+00
      21    -1     0     0   511   515  0.000000000E+00  0.000000000E+00 -4.026913510E+02  4.026913510E+02  0.000000000E+00  0.00000E+00  9.000E+00
      21     1     1     2   516   513 -1.208003357E+01  3.116002372E-02  2.310662652E+01  2.607382541E+01  1.815741803E-06  0.00000E+00  9.000E+00
      21     1     1     2   511   512  5.881671941E+00 -7.894745760E-01 -1.230565141E+02  1.231995252E+02  2.336015456E-06  0.00000E+00  9.000E+00
      21     1     1     2   512   516  6.198361633E+00  7.583145523E-01 -2.780446748E+02  2.781147891E+02  6.607249480E-06  0.00000E+00  9.000E+00
</event>
<event>
      5  10001  3.52971E+09  1.34109E+01 -1.00000E+00  1.82087E-01
      -2    -1     0     0     0   514  0.000000000E+00  0.000000000E+00  4.712895225E+02  4.712895225E+02  0.000000000E+00  0.00000E+00  9.000E+00
      21    -1     0     0   514   515  0.000000000E+00  0.000000000E+00 -8.008247840E-01  8.008247840E-01  0.000000000E+00  0.00000E+00  9.000E+00
      21     1     1     2   511   512 -6.537006080E+00  7.877019345E+00  1.397521360E+02  1.401265122E+02  2.697398305E-06  0.00000E+00  9.000E+00
      21     1     1     2   512   515  1.610963379E+01 -3.549296207E+00  1.460940159E+02  1.470223769E+02  2.697398305E-06  0.00000E+00  9.000E+00
      -2     1     1     2     0   511 -9.572627707E+00 -4.327723138E+00  1.846425457E+02  1.849414582E+02  3.300000131E-01  0.00000E+00  9.000E+00
</event>
<event>
      5  10001  3.52971E+09  1.93265E+01 -1.00000E+00  1.67603E-01
       5    -1     0     0   511     0  0.000000000E+00  0.000000000E+00  1.716658232E+02  1.716658232E+02  0.000000000E+00  0.00000E+00  9.000E+00
      21    -1     0     0   512   511  0.000000000E+00  0.000000000E+00 -1.314252209E+02  1.314252209E+02  0.000000000E+00  0.00000E+00  9.000E+00
      21     1     1     2   514   513  4.149335035E+00 -5.756213236E+00 -2.867392447E+01  2.953887128E+01  3.371747881E-07  0.00000E+00  9.000E+00
       5     1     1     2   513     0 -6.608651390E+00  1.073310594E+01  1.708921449E+02  1.714235661E+02  4.800000191E+00  0.00000E+00  9.000E+00
      21     1     1     2   512   514  2.459316356E+00 -4.976892706E+00 -1.019776182E+02  1.021286067E+02  1.348699152E-06  0.00000E+00  9.000E+00
</event>
<event>
      5  10001  3.52971E+09  3.44534E+00 -1.00000E+00  2.79734E-01
       2    -1     0     0   512     0  0.000000000E+00  0.000000000E+00  1.998676307E+02  1.998676307E+02  0.000000000E+00  0.00000E+00  9.000E+00
      21    -1     0     0   515   511  0.000000000E+00  0.000000000E+00 -2.377254151E+00  2.377254151E+00  0.000000000E+00  0.00000E+00  9.000E+00
      21     1     1     2   512   513  1.375593411E+01  5.807728153E-01  5.273807762E+01  5.450566807E+01  6.743495762E-07  0.00000E+00  9.000E+00
       2     1     1     2   515     0 -2.055413562E+01  4.587130084E-01  1.278247549E+02  1.294679874E+02  3.300000131E-01  0.00000E+00  9.000E+00
      21     1     1     2   513   511  6.798201516E+00 -1.039485824E+00  1.692754404E+01  1.827122934E+01  2.384185791E-07  0.00000E+00  9.000E+00
</event>
<event>
      5  10001  3.52971E+09  1.71203E+01 -1.00000E+00  1.72136E-01
      21    -1     0     0   514   515  0.000000000E+00  0.000000000E+00  3.047572754E+02  3.047572754E+02  0.000000000E+00  0.00000E+00  9.000E+00
      21    -1     0     0   516   514  0.000000000E+00  0.000000000E+00 -4.119722021E+00  4.119722021E+00  0.000000000E+00  0.00000E+00  9.000E+00
      21     1     1     2   511   515  9.848198470E+00  4.240176543E-01  2.356043706E+02  2.358104880E+02  3.814697266E-06  0.00000E+00  9.000E+00
      21     1     1     2   516   512 -6.679885357E+00 -8.065721845E+00  3.592940068E+00  1.107185421E+01  2.493441184E-07  0.00000E+00  9.000E+00
      21     1     1     2   512   511 -3.168313114E+00  7.641704190E+00  6.144024267E+01  6.199465517E+01  9.536743164E-07  0.00000E+00  9.000E+00
</event>
<event>
      5  10001  3.52971E+09  1.27688E+01 -1.00000E+00  1.84232E-01
      21    -1     0     0   514   511  0.000000000E+00  0.000000000E+00  7.079386020E+01  7.079386020E+01  0.000000000E+00  0.00000E+00  9.000E+00
      21    -1     0     0   517   513  0.000000000E+00  0.000000000E+00 -1.473459377E+01  1.473459377E+01  0.000000000E+00  0.00000E+00  9.000E+00
      21     1     1     2   516   511 -1.378598273E+01 -1.816900294E+01  4.419503856E+00  2.323140120E+01  2.230201594E-07  0.00000E+00  9.000E+00
      21     1     1     2   517   516  3.989954948E+00  9.978735827E+00  1.861115766E+00  1.090681718E+01  2.665600750E-07  0.00000E+00  9.000E+00
      21     1     1     2   514   513  9.796027781E+00  8.190267110E+00  4.977864681E+01  5.139023559E+01  6.743495762E-07  0.00000E+00  9.000E+00
</event>
<event>
      5  10001  3.52971E+09  4.01475E+00 -1.00000E+00  2.63086E-01
      21    -1     0     0   512   511  0.000000000E+00  0.000000000E+00  1.461145377E+00  1.461145377E+00  0.000000000E+00  0.00000E+00  9.000E+00
      21    -1     0     0   515   512  0.000000000E+00  0.000000000E+00 -1.023281022E+02  1.023281022E+02  0.000000000E+00  0.00000E+00  9.000E+00
      21     1     1     2   515   513  1.104274103E+01 -4.603038944E-01 -3.120463890E+01  3.310413113E+01  3.371747881E-07  0.00000E+00  9.000E+00
      21     1     1     2   516   511 -7.210216098E+00 -2.916971897E-01 -3.113267657E+01  3.195803270E+01  3.371747881E-07  0.00000E+00  9.000E+00
      21     1     1     2   513   516 -3.832524930E+00  7.520010841E-01 -3.852964136E+01  3.872708376E+01  6.743495762E-07  0.00000E+00  9.000E+00
</event>
<event>
      5  10001  3.52971E+09  2.21582E+01 -1.00000E+00  1.62776E-01
      -3    -1     0     0     0   514  0.000000000E+00  0.000000000E+00  5.646568889E+01  5.646568889E+01  0.000000000E+00  0.00000E+00  9.000E+00
      21    -1     0     0   515   512  0.000000000E+00  0.000000000E+00 -3.680302546E+01  3.680302546E+01  0.000000000E+00  0.00000E+00  9.000E+00
      -3     1     1     2     0   512  2.168686245E+01 -1.814192828E+01  3.381879460E+01  4.408412903E+01  5.000000000E-01  0.00000E+00  9.000E+00
      21     1     1     2   511   514 -1.672535765E+01 -3.452845273E+00  7.085902382E+00  1.848971989E+01  3.153981341E-07  0.00000E+00  9.000E+00
      21     1     1     2   515   511 -4.961504793E+00  2.159477355E+01 -2.124203354E+01  3.069486543E+01  5.840038640E-07  0.00000E+00  9.000E+00
</event>
<event>
      5  10001  3.52971E+09  1.94067E+01 -1.00000E+00  1.67452E-01
      21    -1     0     0   513   514  0.000000000E+00  0.000000000E+00  1.266743066E+02  1.266743066E+02  0.000000000E+00  0.00000E+00  9.000E+00
      21    -1     0     0   515   513  0.000000000E+00  0.000000000E+00 -1.255926586E+00  1.255926586E+00  0.000000000E+00  0.00000E+00  9.000E+00
      21     1     1     2   511   514  3.367117702E+00  1.609172014E+00  1.693280289E+01  1.733916751E+01  0.000000000E+00  0.00000E+00  9.000E+00
      21     1     1     2   515   512 -1.025112921E+01  3.977545268E+00  3.828098668E+01  3.982888973E+01  6.743495762E-07  0.00000E+00  9.000E+00
      21     1     1     2   512   511  6.884011509E+00 -5.586717283E+00  7.020459049E+01  7.076217599E+01  0.000000000E+00  0.00000E+00  9.000E+00
</event>
<event>
      5  10001  3.52971E+09  2.51700E+01 -1.00000E+00  1.58528E-01
      21    -1     0     0   516   514  0.000000000E+00  0.000000000E+00  2.912623311E+01  2.912623311E+01  0.000000000E+00  0.00000E+00  9.000E+00
      21    -1     0     0   517   513  0.000000000E+00  0.000000000E+00 -3.934609211E+02  3.934609211E+02  0.000000000E+00  0.00000E+00  9.000E+00
      21     1     1     2   517   511  5.141630569E+01  7.253521204E+00 -3.332885218E+02  3.373091887E+02  3.814697266E-06  0.00000E+00  9.000E+00
      21     1     1     2   511   514 -2.633516762E+01 -9.366167903E+00  1.579304265E+01  3.210430424E+01  6.307962682E-07  0.00000E+00  9.000E+00
      21     1     1     2   516   513 -2.508113807E+01  2.112646699E+00 -4.683920890E+01  5.317366127E+01  0.000000000E+00  0.00000E+00  9.000E+00
</event>
<event>
      5  10001  3.52971E+09  1.60928E+01 -1.00000E+00  1.74550E-01
      21    -1     0     0   512   511  0.000000000E+00  0.000000000E+00  1.522713843E+01  1.522713843E+01  0.000000000E+00  0.00000E+00  9.000E+00
      21    -1     0     0   517   515  0.000000000E+00  0.000000000E+00 -9.210257956E+00  9.210257956E+00  0.000000000E+00  0.00000E+00  9.000E+00
      21     1     1     2   512   515 -3.206660385E+00  3.237393205E+00 -6.875340458E-01  4.608263084E+00  2.513397901E-07  0.00000E+00  9.000E+00
      -2     1     1     2     0   511  1.090517812E+00 -3.261725802E+00  1.285766041E+01  1.331376789E+01  3.300000131E-01  0.00000E+00  9.000E+00
       2     1     1     2   517     0  2.116142573E+00  2.433259751E-02 -6.153245888E+00  6.515365411E+00  3.300000131E-01  0.00000E+00  9.000E+00
</event>
<event>
      5  10001  3.52971E+09  1.11511E+01 -1.00000E+00  1.90437E-01
       4    -1     0     0   512     0  0.000000000E+00  0.000000000E+00  3.584994454E+02  3.584994454E+02  0.000000000E+00  0.00000E+00  9.000E+00
      -4    -1     0     0     0   512  0.000000000E+00  0.000000000E+00 -4.457794596E+02  4.457794596E+02  0.000000000E+00  0.00000E+00  9.000E+00
      -4     1     1     2     0   513 -6.292339096E-02 -9.903518631E+00 -3.785718345E+02  3.787043273E+02  1.500000000E+00  0.00000E+00  9.000E+00
       4     1     1     2   511     0  1.045233863E+01  7.694267388E+00  3.578931634E+02  3.581315674E+02  1.500000000E+00  0.00000E+00  9.000E+00
      21     1     1     2   513   511 -1.038941524E+01  2.209251243E+00 -6.660134311E+01  6.744301034E+01  1.348699152E-06  0.00000E+00  9.000E+00
</event>
<event>
      5  10001  3.52971E+09  1.03575E+01 -1.00000E+00  1.94005E-01
      21    -1     0     0   512   511  0.000000000E+00  0.000000000E+00  4.033894694E+01  4.033894694E+01  0.000000000E+00  0.00000E+00  9.000E+00
      21    -1     0     0   513   515  0.000000000E+00  0.000000000E+00 -1.094173236E+02  1.094173236E+02  0.000000000E+00  0.00000E+00  9.000E+00
      21     1     1     2   514   515 -3.164337967E+01 -1.269280001E+01 -8.498566642E+01  9.156950445E+01  1.348699152E-06  0.00000E+00  9.000E+00
      21     1     1     2   513   511  3.909841458E+01  5.502461024E+00  3.357609759E-01  3.948513436E+01  7.121153307E-07  0.00000E+00  9.000E+00
      21     1     1     2   512   514 -7.455034915E+00  7.190338982E+00  1.557152879E+01  1.870163172E+01  1.685873940E-07  0.00000E+00  9.000E+00
</event>
<event>
      5  10001  3.52971E+09  6.98936E+00 -1.00000E+00  2.15641E-01
      21    -1     0     0   516   511  0.000000000E+00  0.000000000E+00  2.548053343E+02  2.548053343E+02  0.000000000E+00  0.00000E+00  9.000E+00
       4    -1     0     0   512     0  0.000000000E+00  0.000000000E+00 -5.463592530E-01  5.463592530E-01  0.000000000E+00  0.00000E+00  9.000E+00
      21     1     1     2   512   513  2.543936189E+00  3.171374457E+00  3.934773460E+01  3.955721736E+01  6.743495762E-07  0.00000E+00  9.000E+00
       4     1     1     2   516     0 -6.103492219E+00 -7.820408515E+00  6.507583847E+01  6.584471246E+01  1.500000000E+00  0.00000E+00  9.000E+00
      21     1     1     2   513   511  3.559556030E+00  4.649034058E+00  1.498354020E+02  1.499497637E+02  1.907348633E-06  0.00000E+00  9.000E+00
</event>
<event>
      5  10001  3.52971E+09  5.42227E+00 -1.00000E+00  2.32518E-01
       2    -1     0     0   513     0  0.000000000E+00  0.000000000E+00  4.160497046E+00  4.160497046E+00  0.000000000E+00  0.00000E+00  9.000E+00
      21    -1     0     0   512   515  0.000000000E+00  0.000000000E+00 -1.148058264E+03  1.148058264E+03  0.000000000E+00  0.00000E+00  9.000E+00
      21     1     1     2   513   515 -7.079276511E+00  8.436802826E+00 -2.025720088E+02  2.028711772E+02  0.000000000E+00  0.00000E+00  9.000E+00
       2     1     1     2   514     0  1.169558405E+01 -1.128116701E+01 -1.249464881E+01  2.050064790E+01  3.300000131E-01  0.00000E+00  9.000E+00
      21     1     1     2   512   514 -4.616307534E+00  2.844364183E+00 -9.288311091E+02  9.288469357E+02  1.078959322E-05  0.00000E+00  9.000E+00
</event>
<event>
      5  10001  3.52971E+09  2.97580E+00 -1.00000E+00  2.97929E-01
      21    -1     0     0   511   513  0.000000000E+00  0.000000000E+00  8.850749486E+01  8.850749486E+01  0.000000000E+00  0.00000E+00  9.000E+00
      21    -1     0     0   512   511  0.000000000E+00  0.000000000E+00 -1.680686083E+00  1.680686083E+00  0.000000000E+00  0.00000E+00  9.000E+00
      21     1     1     2   512   516 -1.067991713E+01  4.711586931E+00  3.264081358E+01  3.466529089E+01  4.768371582E-07  0.00000E+00  9.000E+00
      21     1     1     2   516   514  7.704600264E+00 -4.765438993E+00  3.793868447E+01  3.900530802E+01  1.066240300E-06  0.00000E+00  9.000E+00
      21     1     1     2   514   513  2.975316867E+00  5.385206233E-02  1.624731072E+01  1.651758203E+01  0.000000000E+00  0.00000E+00  9.000E+00
</event>
<event>
      5  10001  3.52971E+09  7.64604E+00 -1.00000E+00  2.10268E-01
      21    -1     0     0   515   516  0.000000000E+00  0.000000000E+00  8.776066546E+01  8.776066546E+01  0.000000000E+00  0.00000E+00  9.000E+00
      21    -1     0     0   513   515  0.000000000E+00  0.000000000E+00 -4.172939027E+00  4.172939027E+00  0.000000000E+00  0.00000E+00  9.000E+00
      21     1     1     2   513   512 -1.604834587E+01  7.378099562E+00  5.435737964E+01  5.715514395E+01  6.743495762E-07  0.00000E+00  9.000E+00
      21     1     1     2   511   516  8.200495712E+00 -3.131131324E-01  1.437491254E+01  1.655247052E+01  2.920019320E-07  0.00000E+00  9.000E+00
      21     1     1     2   512   511  7.847850160E+00 -7.064986429E+00  1.485543426E+01  1.822599003E+01  2.384185791E-07  0.00000E+00  9.000E+00
</event>
<event>
      5  10001  3.52971E+09  7.70924E+00 -1.00000E+00  2.09790E-01
      21    -1     0     0   514   513  0.000000000E+00  0.000000000E+00  3.696624427E+00  3.696624427E+00  0.000000000E+00  0.00000E+00  9.000E+00
      21    -1     0     0   512   517  0.000000000E+00  0.000000000E+00 -9.672901058E+02  9.672901058E+02  0.000000000E+00  0.00000E+00  9.000E+00
      21     1     1     2   514   517 -1.235229043E+01 -9.303081378E+00 -9.025486217E+02  9.026810848E+02  0.000000000E+00  0.00000E+00  9.000E+00
      21     1     1     2   512   511  1.042808234E+01  1.837841232E+00 -5.951049671E+01  6.044519650E+01  3.932099939E-06  0.00000E+00  9.000E+00
      21     1     1     2   511   513  1.924208095E+00  7.465240146E+00 -1.534362990E+00  7.860448907E+00  9.782700278E-07  0.00000E+00  9.000E+00
</event>
<event>
      5  10001  3.52971E+09  1.30701E+01 -1.00000E+00  1.83206E-01
      21    -1     0     0   515   512  0.000000000E+00  0.000000000E+00  6.236797440E+01  6.236797440E+01  0.000000000E+00  0.00000E+00  9.000E+00
      21    -1     0     0   516   514  0.000000000E+00  0.000000000E+00 -2.024841403E+02  2.024841403E+02  0.000000000E+00  0.00000E+00  9.000E+00
      21     1     1     2   515   513  1.120125063E+01  3.664508473E+00  4.996058375E+01  5.133182801E+01  0.000000000E+00  0.00000E+00  9.000E+00
      21     1     1     2   516   512 -2.169421171E+01 -1.145715026E+01 -1.594607669E+00  2.458552190E+01  4.679059526E-07  0.00000E+00  9.000E+00
      21     1     1     2   513   514  1.049296108E+01  7.792641786E+00 -1.884821420E+02  1.889347648E+02  0.000000000E+00  0.00000E+00  9.000E+00
</event>
<event>
      5  10001  3.52971E+09  1.52064E+01 -1.00000E+00  1.76823E-01
      21    -1     0     0   511   514  0.000000000E+00  0.000000000E+00  6.053957765E+00  6.053957765E+00  0.000000000E+00  0.00000E+00  9.000E+00
      21    -1     0     0   513   517  0.000000000E+00  0.000000000E+00 -4.983236005E+01  4.983236005E+01  0.000000000E+00  0.00000E+00  9.000E+00
      21     1     1     2   511   517  8.752792658E+00  3.598151933E+00 -2.394427275E+01  2.574657791E+01  3.371747881E-07  0.00000E+00  9.000E+00
      21     1     1     2   512   514 -4.951963143E+00 -6.747483680E+00  1.270557629E+00  8.465505991E+00  4.026072051E-07  0.00000E+00  9.000E+00
      21     1     1     2   513   512 -3.800829514E+00  3.149331747E+00 -2.110468717E+01  2.167423392E+01  2.384185791E-07  0.00000E+00  9.000E+00
</event>
<event>
      5  10001  3.52971E+09  6.20158E+00 -1.00000E+00  2.23260E-01
      21    -1     0     0   511   512  0.000000000E+00  0.000000000E+00  5.869435775E+01  5.869435775E+01  0.000000000E+00  0.00000E+00  9.000E+00
      21    -1     0     0   513   515  0.000000000E+00  0.000000000E+00 -1.204794792E+01  1.204794792E+01  0.000000000E+00  0.00000E+00  9.000E+00
      21     1     1     2   513   516 -1.470380336E+01  4.062595274E+00  2.946055518E+01  3.317575659E+01  7.539457465E-07  0.00000E+00  9.000E+00
      21     1     1     2   516   512  1.222325820E+01  1.621279849E+00 -5.895026748E+00  1.366703807E+01  1.685873940E-07  0.00000E+00  9.000E+00
      21     1     1     2   511   515  2.480545164E+00 -5.683875123E+00  2.308088139E+01  2.389951101E+01  0.000000000E+00  0.00000E+00  9.000E+00
</event>
<event>
      5  10001  3.52971E+09  1.49920E+01 -1.00000E+00  1.77402E-01
      21    -1     0     0   514   515  0.000000000E+00  0.000000000E+00  1.024367433E+02  1.024367433E+02  0.000000000E+00  0.00000E+00  9.000E+00
      21    -1     0     0   517   514  0.000000000E+00  0.000000000E+00 -2.410649521E+00  2.410649521E+00  0.000000000E+00  0.00000E+00  9.000E+00
      21     1     1     2   517   513 -1.332114791E+00 -9.941796879E+00  3.187769512E+01  3.341857719E+01  0.000000000E+00  0.00000E+00  9.000E+00
      21     1     1     2   512   515  6.913882730E+00  9.384526915E+00  2.160742038E+01  2.455100274E+01  3.371747881E-07  0.00000E+00  9.000E+00
      21     1     1     2   513   512 -5.581767939E+00  5.572699632E-01  4.654097827E+01  4.687781289E+01  6.743495762E-07  0.00000E+00  9.000E+00
</event>
<event>
      5  10001  3.52971E+09  9.66611E+00 -1.00000E+00  1.97473E-01
      21    -1     0     0   511   515  0.000000000E+00  0.000000000E+00  1.111937541E+00  1.111937541E+00  0.000000000E+00  0.00000E+00  9.000E+00
      21    -1     0     0   516   511  0.000000000E+00  0.000000000E+00 -3.370859063E+02  3.370859063E+02  0.000000000E+00  0.00000E+00  9.000E+00
      21     1     1     2   512   515 -1.078200220E+01 -1.040657142E+01 -6.294948781E+01  6.470847175E+01  6.743495762E-07  0.00000E+00  9.000E+00
      21     1     1     2   516   514  2.311644176E+00  4.002371723E+00 -5.030359124E+01  5.051548247E+01  6.743495762E-07  0.00000E+00  9.000E+00
      21     1     1     2   514   512  8.470358025E+00  6.404199693E+00 -2.227208897E+02  2.229738896E+02  2.697398305E-06  0.00000E+00  9.000E+00
</event>
<event>
      5  10001  3.52971E+09  5.82853E+00 -1.00000E+00  2.27439E-01
      21    -1     0     0   513   511  0.000000000E+00  0.000000000E+00  7.121559797E+01  7.121559797E+01  0.000000000E+00  0.00000E+00  9.000E+00
      21    -1     0     0   517   513  0.000000000E+00  0.000000000E+00 -8.522164854E+00  8.522164854E+00  0.000000000E+00  0.00000E+00  9.000E+00
      21     1     1     2   516   512  1.029713605E+01  1.981457562E+01  2.454006871E+01  3.317926145E+01  3.371747881E-07  0.00000E+00  9.000E+00
      21     1     1     2   517   516 -4.471678689E+00 -1.962538105E+01  2.446589560E+01  3.168172248E+01  6.743495762E-07  0.00000E+00  9.000E+00
      21     1     1     2   512   511 -5.825457360E+00 -1.891945713E-01  1.368746881E+01  1.487677890E+01  0.000000000E+00  0.00000E+00  9.000E+00
</event>
<event>
      5  10001  3.52971E+09  5.98249E+00 -1.00000E+00  2.25663E-01
       1    -1     0     0   513     0  0.000000000E+00  0.000000000E+00  8.901353558E+01  8.901353558E+01  0.000000000E+00  0.00000E+00  9.000E+00
      21    -1     0     0   512   513  0.000000000E+00  0.000000000E+00 -6.125822112E+00  6.125822112E+00  0.000000000E+00  0.00000E+00  9.000E+00
      -2     1     1     2     0   514  3.558929262E+00  1.353668160E+00 -1.277679548E+00  4.029858560E+00  3.300000131E-01  0.00000E+00  9.000E+00
       1     1     1     2   514     0 -1.022602006E+01  2.299775765E+00  8.269729429E+01  8.335953357E+01  3.300000131E-01  0.00000E+00  9.000E+00
       2     1     1     2   512     0  6.667090799E+00 -3.653443925E+00  1.468098724E+00  7.749965555E+00  3.300000131E-01  0.00000E+00  9.000E+00
</event>
<event>
      5  10001  3.52971E+09  1.67259E+00 -1.00000E+00  4.03648E-01
      -2    -1     0     0     0   511  0.000000000E+00  0.000000000E+00  3.436670614E+02  3.436670614E+02  0.000000000E+00  0.00000E+00  9.000E+00
      -1    -1     0     0     0   513  0.000000000E+00  0.000000000E+00 -9.198712574E-01  9.198712574E-01  0.000000000E+00  0.00000E+00  9.000E+00
      -2     1     1     2     0   513  8.530276952E+00  1.175819970E+01  2.682891376E+02  2.686823239E+02  3.300000131E-01  0.00000E+00  9.000E+00
      -1     1     1     2     0   514 -6.814985537E+00 -7.446427735E+00  4.983321859E+01  5.084635571E+01  3.300000131E-01  0.00000E+00  9.000E+00
      21     1     1     2   514   511 -1.715291414E+00 -4.311771963E+00  2.462483396E+01  2.505825312E+01  0.000000000E+00  0.00000E+00  9.000E+00
</event>
<event>
      5  10001  3.52971E+09  4.75525E+00 -1.00000E+00  2.46934E-01
      21    -1     0     0   512   513  0.000000000E+00  0.000000000E+00  5.312882962E+02  5.312882962E+02  0.000000000E+00  0.00000E+00  9.000E+00
      21    -1     0     0   511   514  0.000000000E+00  0.000000000E+00 -3.453958173E+00  3.453958173E+00  0.000000000E+00  0.00000E+00  9.000E+00
      -3     1     1     2     0   514  1.795727649E-01  1.162960784E+01  1.120543209E+01  1.615833324E+01  5.000000000E-01  0.00000E+00  9.000E+00
       3     1     1     2   512     0  3.900538332E+00 -9.188631533E+00  2.488635901E+01  2.681838947E+01  5.000000000E-01  0.00000E+00  9.000E+00
      21     1     1     2   511   513 -4.080111097E+00 -2.440976310E+00  4.917425470E+02  4.917655317E+02  5.394796609E-06  0.00000E+00  9.000E+00
</event>
<event>
      5  10001  3.52971E+09  6.53512E+00 -1.00000E+00  2.19854E-01
      -2    -1     0     0     0   513  0.000000000E+00  0.000000000E+00  1.637894280E+01  1.637894280E+01  0.000000000E+00  0.00000E+00  9.000E+00
      21    -1     0     0   515   512  0.000000000E+00  0.000000000E+00 -1.317949369E+01  1.317949369E+01  0.000000000E+00  0.00000E+00  9.000E+00
      21     1     1     2   514   512  4.210432007E+00  3.120145970E-01  1.283651437E+00  4.412805435E+00  9.064022497E-08  0.00000E+00  9.000E+00
      21     1     1     2   515   513 -1.146792533E+01 -2.430026758E+00 -6.840507273E+00  1.357243093E+01  1.192092896E-07  0.00000E+00  9.000E+00
      -2     1     1     2     0   514  7.257493327E+00  2.118012161E+00  8.756304951E+00  1.157320013E+01  3.300000131E-01  0.00000E+00  9.000E+00
</event>
<event>
      5  10001  3.52971E+09  6.79764E+00 -1.00000E+00  2.17364E-01
       5    -1     0     0   513     0  0.000000000E+00  0.000000000E+00  1.638265308E+02  1.638265308E+02  0.000000000E+00  0.00000E+00  9.000E+00
      21    -1     0     0   516   512  0.000000000E+00  0.000000000E+00 -1.053229713E+02  1.053229713E+02  0.000000000E+00  0.00000E+00  9.000E+00
      21     1     1     2   516   511  3.642817179E+00 -8.697145956E+00 -1.033489465E+02  1.037782020E+02  1.348699152E-06  0.00000E+00  9.000E+00
       5     1     1     2   511     0 -1.010450315E+01  6.594244588E+00  1.555882234E+02  1.561291783E+02  4.800000191E+00  0.00000E+00  9.000E+00
      21     1     1     2   513   512  6.461685973E+00  2.102901369E+00  6.264282628E+00  9.242121868E+00  8.429369702E-08  0.00000E+00  9.000E+00
</event>
<event>
      5  10001  3.52971E+09  2.71217E+00 -1.00000E+00  3.10814E-01
      -4    -1     0     0     0   511  0.000000000E+00  0.000000000E+00  1.531975180E+01  1.531975180E+01  0.000000000E+00  0.00000E+00  9.000E+00
      -2    -1     0     0     0   513  0.000000000E+00  0.000000000E+00 -2.311882656E+01  2.311882656E+01  0.000000000E+00  0.00000E+00  9.000E+00
      -4     1     1     2     0   513  9.242791169E+00 -1.230581181E+01  3.226326209E+00  1.579624556E+01  1.500000000E+00  0.00000E+00  9.000E+00
      -2     1     1     2     0   512 -7.782843540E+00  1.002614219E+01 -1.380943058E+01  1.875914320E+01  3.300000131E-01  0.00000E+00  9.000E+00
      21     1     1     2   512   511 -1.459947630E+00  2.279669619E+00  2.784029606E+00  3.883189604E+00  2.980232239E-08  0.00000E+00  9.000E+00
</event>
<event>
      5  10001  3.52971E+09  2.11737E+01 -1.00000E+00  1.64348E-01
      21    -1     0     0   514   513  0.000000000E+00  0.000000000E+00  1.126349691E+02  1.126349691E+02  0.000000000E+00  0.00000E+00  9.000E+00
      21    -1     0     0   515   511  0.000000000E+00  0.000000000E+00 -1.980187434E+01  1.980187434E+01  0.000000000E+00  0.00000E+00  9.000E+00
      21     1     1     2   514   511  3.657007405E+01 -1.006446188E+01  1.876074500E+01  4.231582756E+01  7.907449699E-07  0.00000E+00  9.000E+00
      21     1     1     2   516   513 -2.690034618E+01  1.033718251E+01  7.505527067E+01  8.039763443E+01  9.536743164E-07  0.00000E+00  9.000E+00
      21     1     1     2   515   516 -9.669727874E+00 -2.727206338E-01 -9.829208906E-01  9.723381468E+00  2.923818956E-07  0.00000E+00  9.000E+00
</event>
<event>
      5  10001  3.52971E+09  4.06128E+00 -1.00000E+00  2.61916E-01
      21    -1     0     0   512   513  0.000000000E+00  0.000000000E+00  4.665772492E-01  4.665772492E-01  0.000000000E+00  0.00000E+00  9.000E+00
       2    -1     0     0   515     0  0.000000000E+00  0.000000000E+00 -3.465681397E+02  3.465681397E+02  0.000000000E+00  0.00000E+00  9.000E+00
      21     1     1     2   515   513 -8.736597005E+00  1.760895782E+00 -5.924894823E+01  5.991549672E+01  1.507891493E-06  0.00000E+00  9.000E+00
       2     1     1     2   511     0  7.099072026E+00 -2.400237849E+00 -2.775864115E+02  2.776877431E+02  3.300000131E-01  0.00000E+00  9.000E+00
      21     1     1     2   512   511  1.637524979E+00  6.393420679E-01 -9.266202743E+00  9.431477064E+00  3.371747881E-07  0.00000E+00  9.000E+00
</event>
<event>
      5  10001  3.52971E+09  7.89424E+00 -1.00000E+00  2.08424E-01
      21    -1     0     0   514   515  0.000000000E+00  0.000000000E+00  1.657119573E+01  1.657119573E+01  0.000000000E+00  0.00000E+00  9.000E+00
      21    -1     0     0   513   514  0.000000000E+00  0.000000000E+00 -4.592328336E+02  4.592328336E+02  0.000000000E+00  0.00000E+00  9.000E+00
      21     1     1     2   511   515  7.758419970E+00 -2.288685335E+00  1.492683873E+01  1.697768168E+01  7.539457465E-07  0.00000E+00  9.000E+00
      21     1     1     2   516   511 -1.380883568E+01 -2.781966160E+00 -8.538261148E+01  8.653677612E+01  0.000000000E+00  0.00000E+00  9.000E+00
      21     1     1     2   513   516  6.050415713E+00  5.070651495E+00 -3.722058651E+02  3.722895715E+02  5.394796609E-06  0.00000E+00  9.000E+00
</event>
<event>
      5  10001  3.52971E+09  5.22234E+00 -1.00000E+00  2.35255E-01
      21    -1     0     0   511   513  0.000000000E+00  0.000000000E+00  1.714555932E+02  1.714555932E+02  0.000000000E+00  0.00000E+00  9.000E+00
       1    -1     0     0   515     0  0.000000000E+00  0.000000000E+00 -9.897977401E+01  9.897977401E+01  0.000000000E+00  0.00000E+00  9.000E+00
      21     1     1     2   515   513 -1.141157346E+01 -3.240449395E+00  1.609354251E+02  1.613720409E+02  0.000000000E+00  0.00000E+00  9.000E+00
       1     1     1     2   512     0  6.900585131E+00  5.871742097E+00 -9.787636513E+01  9.829540773E+01  3.300000131E-01  0.00000E+00  9.000E+00
      21     1     1     2   511   512  4.510988331E+00 -2.631292702E+00  9.416759185E+00  1.076791858E+01  1.192092896E-07  0.00000E+00  9.000E+00
</event>
<event>
      5  10001  3.52971E+09  5.26306E+00 -1.00000E+00  2.34683E-01
      21    -1     0     0   512   513  0.000000000E+00  0.000000000E+00  2.772763724E+00  2.772763724E+00  0.000000000E+00  0.00000E+00  9.000E+00
       1    -1     0     0   513     0  0.000000000E+00  0.000000000E+00 -5.435473688E+02  5.435473688E+02  0.000000000E+00  0.00000E+00  9.000E+00
      21     1     1     2   512   515 -2.703383317E+00 -4.115180443E+00 -3.510234223E-02  4.923842362E+00  1.247267043E-06  0.00000E+00  9.000E+00
       1     1     1     2   514     0  5.815764263E+00  8.044652961E+00 -5.186526516E+02  5.187477435E+02  3.300000131E-01  0.00000E+00  9.000E+00
      21     1     1     2   515   514 -3.112380946E+00 -3.929472519E+00 -2.208685119E+01  2.264854664E+01  0.000000000E+00  0.00000E+00  9.000E+00
</event>
<event>
      5  10001  3.52971E+09  5.51742E+00 -1.00000E+00  2.31274E-01
      21    -1     0     0   511   514  0.000000000E+00  0.000000000E+00  1.826404271E+01  1.826404271E+01  0.000000000E+00  0.00000E+00  9.000E+00
      21    -1     0     0   513   516  0.000000000E+00  0.000000000E+00 -2.789862699E+02  2.789862699E+02  0.000000000E+00  0.00000E+00  9.000E+00
      21     1     1     2   511   516 -1.143425329E+01 -6.960703688E+00  1.559337885E+01  2.055108289E+01  8.760057960E-07  0.00000E+00  9.000E+00
      21     1     1     2   512   514  3.315426347E+00  2.605220983E+00 -1.447597859E+02  1.448211823E+02  1.907348633E-06  0.00000E+00  9.000E+00
      21     1     1     2   513   512  8.118826944E+00  4.355482705E+00 -1.315558201E+02  1.318780474E+02  2.697398305E-06  0.00000E+00  9.000E+00
</event>
<event>
      5  10001  3.52971E+09  1.08395E+01 -1.00000E+00  1.91791E-01
      21    -1     0     0   513   512  0.000000000E+00  0.000000000E+00  1.300403449E+01  1.300403449E+01  0.000000000E+00  0.00000E+00  9.000E+00
       5    -1     0     0   514     0  0.000000000E+00  0.000000000E+00 -1.014386471E+01  1.014386471E+01  0.000000000E+00  0.00000E+00  9.000E+00
      21     1     1     2   511   512 -7.268327015E-01 -3.620406094E+00  5.997260155E+00  7.042922364E+00  8.429369702E-08  0.00000E+00  9.000E+00
       5     1     1     2   513     0 -2.818805271E+00  7.997078041E+00 -1.845830585E-01  9.745408821E+00  4.800000191E+00  0.00000E+00  9.000E+00
      21     1     1     2   514   511  3.545637973E+00 -4.376671947E+00 -2.952507313E+00  6.359568020E+00  1.685873940E-07  0.00000E+00  9.000E+00
</event>
<event>
      5  10001  3.52971E+09  7.13539E+00 -1.00000E+00  2.14379E-01
      21    -1     0     0   513   514  0.000000000E+00  0.000000000E+00  1.460524059E+01  1.460524059E+01  0.000000000E+00  0.00000E+00  9.000E+00
      21    -1     0     0   512   511  0.000000000E+00  0.000000000E+00 -2.843049319E+02  2.843049319E+02  0.000000000E+00  0.00000E+00  9.000E+00
      21     1     1     2   515   511 -6.166315726E+00 -9.713921250E+00 -2.430905587E+02  2.433626994E+02  2.697398305E-06  0.00000E+00  9.000E+00
      21     1     1     2   512   514  1.009655201E+01  3.758504799E+00 -3.942969886E+01  4.087502749E+01  1.430511475E-06  0.00000E+00  9.000E+00
      21     1     1     2   513   515 -3.930236282E+00  5.955416451E+00  1.282056624E+01  1.467244564E+01  6.307962682E-07  0.00000E+00  9.000E+00
</event>
<event>
      5  10001  3.52971E+09  1.16234E+01 -1.00000E+00  1.88492E-01
      21    -1     0     0   516   511  0.000000000E+00  0.000000000E+00  9.391407744E+01  9.391407744E+01  0.000000000E+00  0.00000E+00  9.000E+00
      21    -1     0     0   517   515  0.000000000E+00  0.000000000E+00 -5.371220917E+00  5.371220917E+00  0.000000000E+00  0.00000E+00  9.000E+00
      21     1     1     2   516   515  1.515696938E+00 -1.792133838E+01  1.916241476E+01  2.628059828E+01  4.768371582E-07  0.00000E+00  9.000E+00
      21     1     1     2   517   512  5.505100360E+00  1.075613358E+01  4.605311930E+01  4.761187181E+01  6.743495762E-07  0.00000E+00  9.000E+00
      21     1     1     2   512   511 -7.020797299E+00  7.165204792E+00  2.332732246E+01  2.539282827E+01  0.000000000E+00  0.00000E+00  9.000E+00
</event>
<event>
      5  10001  3.52971E+09  1.75938E+01 -1.00000E+00  1.71094E-01
      21    -1     0     0   513   515  0.000000000E+00  0.000000000E+00  5.292650070E+01  5.292650070E+01  0.000000000E+00  0.00000E+00  9.000E+00
      21    -1     0     0   514   511  0.000000000E+00  0.000000000E+00 -3.588650371E+02  3.588650371E+02  0.000000000E+00  0.00000E+00  9.000E+00
      21     1     1     2   513   511  7.641638274E+00 -1.468614240E+01  5.126872109E+01  5.387540418E+01  1.507891493E-06  0.00000E+00  9.000E+00
      21     1     1     2   516   515  4.266216737E+00  6.264015156E+00 -1.538104404E+02  1.539970456E+02  1.907348633E-06  0.00000E+00  9.000E+00
      21     1     1     2   514   516 -1.190785501E+01  8.422127249E+00 -2.033968171E+02  2.039190880E+02  0.000000000E+00  0.00000E+00  9.000E+00
</event>
<event>
      5  10001  3.52971E+09  1.08325E+01 -1.00000E+00  1.91822E-01
      21    -1     0     0   512   511  0.000000000E+00  0.000000000E+00  2.466804350E+02  2.466804350E+02  0.000000000E+00  0.00000E+00  9.000E+00
      21    -1     0     0   514   517  0.000000000E+00  0.000000000E+00 -4.092310360E+01  4.092310360E+01  0.000000000E+00  0.00000E+00  9.000E+00
      21     1     1     2   512   517  1.259690608E+01 -8.084458007E+00  2.445370073E+02  2.449946703E+02  0.000000000E+00  0.00000E+00  9.000E+00
      21     1     1     2   513   511 -3.774158962E+00  7.792040104E+00 -1.627211337E+01  1.843208719E+01  5.331201500E-07  0.00000E+00  9.000E+00
      21     1     1     2   514   513 -8.822747113E+00  2.924179039E-01 -2.250756255E+01  2.417678115E+01  4.129530925E-07  0.00000E+00  9.000E+00
</event>
<event>
      5  10001  3.52971E+09  8.38127E+00 -1.00000E+00  2.05056E-01
      21    -1     0     0   515   511  0.000000000E+00  0.000000000E+00  7.061928931E+01  7.061928931E+01  0.000000000E+00  0.00000E+00  9.000E+00
      21    -1     0     0   514   512  0.000000000E+00  0.000000000E+00 -1.303199343E+03  1.303199343E+03  0.000000000E+00  0.00000E+00  9.000E+00
      21     1     1     2   513   511  1.945159474E+01 -8.817668212E+00  6.885413089E+01  7.209027085E+01  3.814697266E-06  0.00000E+00  9.000E+00
      21     1     1     2   514   513 -1.272165188E+01  3.822314346E+00 -1.139503341E+03  1.139580762E+03  0.000000000E+00  0.00000E+00  9.000E+00
      21     1     1     2   515   512 -6.729942857E+00  4.995353866E+00 -1.619308438E+02  1.621475990E+02  3.303624740E-06  0.00000E+00  9.000E+00
</event>
<event>
      5  10001  3.52971E+09  7.53266E+00 -1.00000E+00  2.11143E-01
      21    -1     0     0   516   512  0.000000000E+00  0.000000000E+00  9.400159099E+01  9.400159099E+01  0.000000000E+00  0.00000E+00  9.000E+00
      21    -1     0     0   511   513  0.000000000E+00  0.000000000E+00 -1.284757107E+01  1.284757107E+01  0.000000000E+00  0.00000E+00  9.000E+00
      21     1     1     2   516   517  1.452803722E+01  7.772929428E+00  8.225686830E+01  8.389084979E+01  9.536743164E-07  0.00000E+00  9.000E+00
      21     1     1     2   511   512 -7.360424922E+00 -1.008947200E+01  4.808953482E+00  1.338279992E+01  2.384185791E-07  0.00000E+00  9.000E+00
      21     1     1     2   517   513 -7.167612296E+00  2.316542569E+00 -5.911801857E+00  9.575512346E+00  3.153981341E-07  0.00000E+00  9.000E+00
</event>
<event>
      5  10001  3.52971E+09  8.23757E+00 -1.00000E+00  2.06017E-01
      -2    -1     0     0     0   514  0.000000000E+00  0.000000000E+00  1.634629303E+01  1.634629303E+01  0.000000000E+00  0.00000E+00  9.000E+00
      21    -1     0     0   514   511  0.000000000E+00  0.000000000E+00 -6.209998928E+01  6.209998928E+01  0.000000000E+00  0.00000E+00  9.000E+00
      -2     1     1     2     0   512 -2.124477290E+01  3.797657610E+00  2.976963082E+00  2.178838654E+01  3.300000131E-01  0.00000E+00  9.000E+00
      21     1     1     2   512   513  1.303203606E+01 -4.433673613E+00 -9.881575783E+00  1.694511627E+01  1.192092896E-07  0.00000E+00  9.000E+00
      21     1     1     2   513   511  8.212736841E+00  6.360160035E-01 -3.884908354E+01  3.971277949E+01  8.259061849E-07  0.00000E+00  9.000E+00
</event>
<event>
      5  10001  3.52971E+09  7.00388E+00 -1.00000E+00  2.15514E-01
      21    -1     0     0   515   511  0.000000000E+00  0.000000000E+00  9.706122695E+00  9.706122695E+00  0.000000000E+00  0.00000E+00  9.000E+00
      21    -1     0     0   514   516  0.000000000E+00  0.000000000E+00 -3.236400699E+01  3.236400699E+01  0.000000000E+00  0.00000E+00  9.000E+00
      21     1     1     2   515   516 -1.259381475E+01 -4.965554439E+00 -2.381381535E+01  2.739267607E+01  0.000000000E+00  0.00000E+00  9.000E+00
      21     1     1     2   512   511  6.489180869E+00  3.998823692E-01 -1.374758979E+00  6.645249168E+00  8.161702119E-08  0.00000E+00  9.000E+00
      21     1     1     2   514   512  6.104633880E+00  4.565672070E+00  2.530690032E+00  8.032204448E+00  2.149076030E-07  0.00000E+00  9.000E+00
</event>
<event>
      4  10001  3.52971E+09  8.94427E-01 -1.00000E+00  7.37506E-01
      -4    -1     0     0     0   511  0.000000000E+00  0.000000000E+00  1.044976364E+00  1.044976364E+00  0.000000000E+00  0.00000E+00  9.000E+00
       1    -1     0     0   511     0  0.000000000E+00  0.000000000E+00 -1.466953946E+02  1.466953946E+02  0.000000000E+00  0.00000E+00  9.000E+00
      -4     1     1     2     0   513 -9.911816861E+00 -1.291487153E+00 -2.997150163E+01  3.162993775E+01  1.500000000E+00  0.00000E+00  9.000E+00
       1     1     1     2   513     0  9.911816861E+00  1.291487153E+00 -1.156789166E+02  1.161104332E+02  3.300000131E-01  0.00000E+00  9.000E+00
</event>
<event>
      5  10001  3.52971E+09  5.14425E+00 -1.00000E+00  2.36371E-01
      21    -1     0     0   512   513  0.000000000E+00  0.000000000E+00  7.565459858E+00  7.565459858E+00  0.000000000E+00  0.00000E+00  9.000E+00
      21    -1     0     0   511   514  0.000000000E+00  0.000000000E+00 -1.343343622E+02  1.343343622E+02  0.000000000E+00  0.00000E+00  9.000E+00
      21     1     1     2   512   514 -1.487236076E+01  5.964089436E+00 -1.241426088E+02  1.251724602E+02  1.907348633E-06  0.00000E+00  9.000E+00
      21     1     1     2   511   515  4.053762774E+00 -1.603818908E+00  1.074802291E+00  4.490036490E+00  3.075565016E-07  0.00000E+00  9.000E+00
      21     1     1     2   515   513  1.081859799E+01 -4.360270528E+00 -3.701095839E+00  1.223732536E+01  4.214684851E-08  0.00000E+00  9.000E+00
</event>
<event>
      5  10001  3.52971E+09  4.99892E+00 -1.00000E+00  2.42557E-01
      21    -1     0     0   512   511  0.000000000E+00  0.000000000E+00  2.125844547E+01  2.125844547E+01  0.000000000E+00  0.00000E+00  9.000E+00
      21    -1     0     0   517   513  0.000000000E+00  0.000000000E+00 -1.617623821E+02  1.617623821E+02  0.000000000E+00  0.00000E+00  9.000E+00
      21     1     1     2   516   513 -7.306180637E+00  1.390011239E+01 -1.573164922E+02  1.580982990E+02  2.697398305E-06  0.00000E+00  9.000E+00
      21     1     1     2   517   511  9.523765361E+00 -9.419983053E+00  1.244856499E+01  1.828674268E+01  2.920019320E-07  0.00000E+00  9.000E+00
      21     1     1     2   512   516 -2.217584723E+00 -4.480129333E+00  4.363990616E+00  6.635785932E+00  1.192092896E-07  0.00000E+00  9.000E+00
</event>
<event>
      5  10001  3.52971E+09  4.30874E+00 -1.00000E+00  2.56079E-01
      -3    -1     0     0     0   514  0.000000000E+00  0.000000000E+00  2.716485910E+02  2.716485910E+02  0.000000000E+00  0.00000E+00  9.000E+00
      21    -1     0     0   513   512  0.000000000E+00  0.000000000E+00 -2.291851927E+01  2.291851927E+01  0.000000000E+00  0.00000E+00  9.000E+00
      -3     1     1     2     0   511  8.408909658E+00 -9.361681316E+00  2.670251550E+02  2.673219673E+02  5.000000000E-01  0.00000E+00  9.000E+00
      21     1     1     2   511   512 -4.565781657E+00  1.130982546E+01 -4.848376566E+00  1.312498645E+01  1.037531804E-06  0.00000E+00  9.000E+00
      21     1     1     2   513   514 -3.843128001E+00 -1.948144141E+00 -1.344670667E+01  1.412015647E+01  6.529361695E-07  0.00000E+00  9.000E+00
</event>
<event>
      5  10001  3.52971E+09  3.72176E+00 -1.00000E+00  2.71064E-01
      21    -1     0     0   515   511  0.000000000E+00  0.000000000E+00  1.995659960E-01  1.995659960E-01  0.000000000E+00  0.00000E+00  9.000E+00
      21    -1     0     0   513   514  0.000000000E+00  0.000000000E+00 -6.996880503E+02  6.996880503E+02  0.000000000E+00  0.00000E+00  9.000E+00
      21     1     1     2   515   514  8.018749792E+00 -7.546829708E+00 -4.480842933E+02  4.482195766E+02  5.394796609E-06  0.00000E+00  9.000E+00
       1     1     1     2   513     0 -2.419795281E+00  4.537621285E+00 -1.153538066E+02  1.154688487E+02  3.300000131E-01  0.00000E+00  9.000E+00
      -1     1     1     2     0   511 -5.598954511E+00  3.009208423E+00 -1.360503845E+02  1.361991911E+02  3.300000131E-01  0.00000E+00  9.000E+00
</event>
<event>
      5  10001  3.52971E+09  6.06739E+00 -1.00000E+00  2.24715E-01
      -1    -1     0     0     0   511  0.000000000E+00  0.000000000E+00  9.066363809E+01  9.066363809E+01  0.000000000E+00  0.00000E+00  9.000E+00
      21    -1     0     0   513   515  0.000000000E+00  0.000000000E+00 -1.826041542E+01  1.826041542E+01  0.000000000E+00  0.00000E+00  9.000E+00
      -1     1     1     2     0   515  6.497871286E+00  1.194925497E+01  4.831576704E+01  5.019491279E+01  3.300000131E-01  0.00000E+00  9.000E+00
      21     1     1     2   512   511 -3.260235413E+00 -6.818086722E+00  4.051663982E+01  4.121545274E+01  6.743495762E-07  0.00000E+00  9.000E+00
      21     1     1     2   513   512 -3.237635873E+00 -5.131168252E+00 -1.642918419E+01  1.751368799E+01  5.331201500E-07  0.00000E+00  9.000E+00
</event>
<event>
      5  10001  3.52971E+09  1.19760E+01 -1.00000E+00  1.87115E-01
      21    -1     0     0   511   512  0.000000000E+00  0.000000000E+00  7.469497135E+01  7.469497135E+01  0.000000000E+00  0.00000E+00  9.000E+00
      21    -1     0     0   513   514  0.000000000E+00  0.000000000E+00 -1.924615358E+01  1.924615358E+01  0.000000000E+00  0.00000E+00  9.000E+00
      21     1     1     2   513   516 -3.864836113E+00  2.305588716E+01  9.766780975E-01  2.339796553E+01  5.709303636E-07  0.00000E+00  9.000E+00
      21     1     1     2   516   512  1.478376390E+01 -2.797534746E+01  3.156154055E+01  4.469128083E+01  6.743495762E-07  0.00000E+00  9.000E+00
      21     1     1     2   511   514 -1.091892779E+01  4.919460299E+00  2.291059912E+01  2.585187858E+01  0.000000000E+00  0.00000E+00  9.000E+00
</event>
<event>
      5  10001  3.52971E+09  8.68831E+00 -1.00000E+00  2.03087E-01
      21    -1     0     0   515   514  0.000000000E+00  0.000000000E+00  1.213298640E+01  1.213298640E+01  0.000000000E+00  0.00000E+00  9.000E+00
      21    -1     0     0   517   515  0.000000000E+00  0.000000000E+00 -2.106059435E+01  2.106059435E+01  0.000000000E+00  0.00000E+00  9.000E+00
      21     1     1     2   517   513 -7.213136016E+00 -8.194455571E+00 -9.954042991E+00  1.477367270E+01  0.000000000E+00  0.00000E+00  9.000E+00
      21     1     1     2   513   512  9.414295897E+00  5.279793844E+00  5.922295021E+00  1.231173296E+01  3.264680848E-07  0.00000E+00  9.000E+00
      21     1     1     2   512   514 -2.201159881E+00  2.914661727E+00 -4.895859988E+00  6.108175081E+00  8.429369702E-08  0.00000E+00  9.000E+00
</event>
<event>
      5  10001  3.52971E+09  4.94758E+00 -1.00000E+00  2.43448E-01
      21    -1     0     0   511   513  0.000000000E+00  0.000000000E+00  3.008059650E+00  3.008059650E+00  0.000000000E+00  0.00000E+00  9.000E+00
      21    -1     0     0   516   514  0.000000000E+00  0.000000000E+00 -4.247668609E+01  4.247668609E+01  0.000000000E+00  0.00000E+00  9.000E+00
      21     1     1     2   511   514  7.148299366E+00 -6.681702020E+00 -1.509060640E+01  1.798526417E+01  3.371747881E-07  0.00000E+00  9.000E+00
      21     1     1     2   516   515 -8.532200531E+00  3.749388250E+00 -1.600713473E+01  1.852254627E+01  2.384185791E-07  0.00000E+00  9.000E+00
      21     1     1     2   515   513  1.383901165E+00  2.932313771E+00 -8.370885315E+00  8.976935303E+00  1.192092896E-07  0.00000E+00  9.000E+00
</event>
<event>
      5  10001  3.52971E+09  8.44550E+00 -1.00000E+00  2.04635E-01
       2    -1     0     0   512     0  0.000000000E+00  0.000000000E+00  8.324878294E+00  8.324878294E+00  0.000000000E+00  0.00000E+00  9.000E+00
       1    -1     0     0   515     0  0.000000000E+00  0.000000000E+00 -1.525096158E+03  1.525096158E+03  0.000000000E+00  0.00000E+00  9.000E+00
      21     1     1     2   515   513  3.156337459E+00  1.166072725E+01 -1.268981876E+02  1.274718991E+02  2.336015456E-06  0.00000E+00  9.000E+00
       1     1     1     2   512     0  5.005768758E+00 -9.491420616E+00 -1.395662972E+03  1.395704262E+03  3.300000131E-01  0.00000E+00  9.000E+00
       2     1     1     2   513     0 -8.162106217E+00 -2.169306636E+00  5.789880034E+00  1.024487579E+01  3.300000131E-01  0.00000E+00  9.000E+00
</event>
<event>
      5  10001  3.52971E+09  9.25581E+00 -1.00000E+00  1.99717E-01
       2    -1     0     0   513     0  0.000000000E+00  0.000000000E+00  1.186697951E+03  1.186697951E+03  0.000000000E+00  0.00000E+00  9.000E+00
      21    -1     0     0   511   512  0.000000000E+00  0.000000000E+00 -2.725439229E-01  2.725439229E-01  0.000000000E+00  0.00000E+00  9.000E+00
      21     1     1     2   514   512  3.731913321E+00 -4.734881878E+00  1.487590809E+02  1.488811957E+02  3.303624740E-06  0.00000E+00  9.000E+00
       2     1     1     2   511     0 -7.848920320E+00  9.194223524E+00  9.850285154E+02  9.851027481E+02  3.300000131E-01  0.00000E+00  9.000E+00
      21     1     1     2   513   514  4.117006999E+00 -4.459341646E+00  5.263781086E+01  5.298655119E+01  1.348699152E-06  0.00000E+00  9.000E+00
</event>
<event>
      5  10001  3.52971E+09  4.55548E+00 -1.00000E+00  2.50829E-01
      -2    -1     0     0     0   514  0.000000000E+00  0.000000000E+00  2.284401783E+02  2.284401783E+02  0.000000000E+00  0.00000E+00  9.000E+00
      -3    -1     0     0     0   512  0.000000000E+00  0.000000000E+00 -1.642864353E+01  1.642864353E+01  0.000000000E+00  0.00000E+00  9.000E+00
      -3     1     1     2     0   511 -3.461725077E+00 -3.771576950E-01 -6.235560316E+00  7.159469316E+00  5.000000000E-01  0.00000E+00  9.000E+00
      -2     1     1     2     0   512  1.282037573E+01  1.868981971E+00  2.254398441E+02  2.258120620E+02  3.300000131E-01  0.00000E+00  9.000E+00
      21     1     1     2   511   514 -9.358650651E+00 -1.491824276E+00 -7.192749064E+00  1.189729048E+01  5.331201500E-07  0.00000E+00  9.000E+00
</event>
<event>
      5  10001  3.52971E+09  2.50998E+01 -1.00000E+00  1.58618E-01
      -3    -1     0     0     0   513  0.000000000E+00  0.000000000E+00  5.798825845E+01  5.798825845E+01  0.000000000E+00  0.00000E+00  9.000E+00
      21    -1     0     0   514   515  0.000000000E+00  0.000000000E+00 -1.410407254E+02  1.410407254E+02  0.000000000E+00  0.00000E+00  9.000E+00
      -3     1     1     2     0   512 -3.649925864E+01 -1.678952270E+01  4.506440237E+01  6.037494774E+01  5.000000000E-01  0.00000E+00  9.000E+00
      21     1     1     2   514   513  1.144104257E+01  1.534872424E+01 -9.601344128E+01  9.790332833E+01  1.348699152E-06  0.00000E+00  9.000E+00
      21     1     1     2   512   515  2.505821607E+01  1.440798463E+00 -3.210342805E+01  4.075070779E+01  0.000000000E+00  0.00000E+00  9.000E+00
</event>
<event>
      5  10001  3.52971E+09  1.55444E+01 -1.00000E+00  1.75934E-01
       2    -1     0     0   512     0  0.000000000E+00  0.000000000E+00  1.531666676E+03  1.531666676E+03  0.000000000E+00  0.00000E+00  9.000E+00
      21    -1     0     0   511   515  0.000000000E+00  0.000000000E+00 -4.841964507E-01  4.841964507E-01  0.000000000E+00  0.00000E+00  9.000E+00
      21     1     1     2   513   515  6.739917233E+00  1.314929179E+01  1.569597211E+02  1.576536850E+02  1.907348633E-06  0.00000E+00  9.000E+00
       2     1     1     2   511     0  7.104500607E-01 -1.827208775E+01  9.812970701E+02  9.814674842E+02  3.300000131E-01  0.00000E+00  9.000E+00
      21     1     1     2   512   513 -7.450367293E+00  5.122795957E+00  3.929256880E+02  3.930297028E+02  5.394796609E-06  0.00000E+00  9.000E+00
</event>
<event>
      5  10001  3.52971E+09  6.18994E+00 -1.00000E+00  2.23384E-01
      21    -1     0     0   514   515  0.000000000E+00  0.000000000E+00  2.421741438E+01  2.421741438E+01  0.000000000E+00  0.00000E+00  9.000E+00
      21    -1     0     0   516   513  0.000000000E+00  0.000000000E+00 -6.505875402E+01  6.505875402E+01  0.000000000E+00  0.00000E+00  9.000E+00
      21     1     1     2   514   513 -5.032459844E+00  8.341066181E+00 -4.134654182E+01  4.247864825E+01  9.536743164E-07  0.00000E+00  9.000E+00
      21     1     1     2   516   511  1.430487292E+00 -1.337506996E+01 -2.071152589E+01  2.469627695E+01  6.307962682E-07  0.00000E+00  9.000E+00
      21     1     1     2   511   515  3.601972552E+00  5.034003783E+00  2.121672808E+01  2.210124319E+01  2.384185791E-07  0.00000E+00  9.000E+00
</event>
<event>
      5  10001  3.52971E+09  1.08247E+01 -1.00000E+00  1.91857E-01
      21    -1     0     0   512   513  0.000000000E+00  0.000000000E+00  2.162659682E+02  2.162659682E+02  0.000000000E+00  0.00000E+00  9.000E+00
      21    -1     0     0   517   515  0.000000000E+00  0.000000000E+00 -9.431288575E+01  9.431288575E+01  0.000000000E+00  0.00000E+00  9.000E+00
      21     1     1     2   512   515 -1.610227575E+01  1.598504247E+01  2.135818976E+02  2.147836862E+02  0.000000000E+00  0.00000E+00  9.000E+00
      21     1     1     2   517   514  1.201900086E+01 -3.712907177E+00 -6.482273103E+01  6.603202647E+01  1.348699152E-06  0.00000E+00  9.000E+00
      21     1     1     2   514   513  4.083274890E+00 -1.227213529E+01 -2.680608408E+01  2.976314133E+01  7.539457465E-07  0.00000E+00  9.000E+00
</event>
<event>
      5  10001  3.52971E+09  4.15144E+01 -1.00000E+00  1.43844E-01
      -4    -1     0     0     0   511  0.000000000E+00  0.000000000E+00  1.010901594E+01  1.010901594E+01  0.000000000E+00  0.00000E+00  9.000E+00
      21    -1     0     0   511   512  0.000000000E+00  0.000000000E+00 -6.352927678E+01  6.352927678E+01  0.000000000E+00  0.00000E+00  9.000E+00
      -4     1     1     2     0   513 -4.657535348E+00 -5.291931106E+00  2.958272645E+00  7.790927249E+00  1.500000000E+00  0.00000E+00  9.000E+00
      -2     1     1     2     0   512  1.181935910E+01  7.879511808E-01 -3.586991059E+00  1.238117610E+01  3.300000131E-01  0.00000E+00  9.000E+00
       2     1     1     2   513     0 -7.161823756E+00  4.503979925E+00 -5.279154242E+01  5.346618937E+01  3.300000131E-01  0.00000E+00  9.000E+00
</event>
<event>
      5  10001  3.52971E+09  1.44489E+01 -1.00000E+00  1.78925E-01
      21    -1     0     0   514   513  0.000000000E+00  0.000000000E+00  2.694712961E+02  2.694712961E+02  0.000000000E+00  0.00000E+00  9.000E+00
      21    -1     0     0   511   515  0.000000000E+00  0.000000000E+00 -9.478260860E-01  9.478260860E-01  0.000000000E+00  0.00000E+00  9.000E+00
      21     1     1     2   514   515  5.577165845E+00  8.447156538E+00  4.089563344E+01  4.212970528E+01  4.768371582E-07  0.00000E+00  9.000E+00
      21     1     1     2   511   512  2.797798105E+00 -8.406500530E+00  1.029009673E+02  1.032816828E+02  1.348699152E-06  0.00000E+00  9.000E+00
      21     1     1     2   512   513 -8.374963950E+00 -4.065600858E-02  1.247268692E+02  1.250077341E+02  0.000000000E+00  0.00000E+00  9.000E+00
</event>
<event>
      5  10001  3.52971E+09  5.70605E+00 -1.00000E+00  2.28908E-01
      21    -1     0     0   511   513  0.000000000E+00  0.000000000E+00  1.350656176E+01  1.350656176E+01  0.000000000E+00  0.00000E+00  9.000E+00
       2    -1     0     0   514     0  0.000000000E+00  0.000000000E+00 -2.653777788E+01  2.653777788E+01  0.000000000E+00  0.00000E+00  9.000E+00
      21     1     1     2   511   512 -1.977648876E-01 -8.952827950E+00  7.289052487E+00  1.154653738E+01  1.460009660E-07  0.00000E+00  9.000E+00
       2     1     1     2   512     0  2.941610625E+00  1.395529179E+01 -1.412570335E+01  2.007604635E+01  3.300000131E-01  0.00000E+00  9.000E+00
      21     1     1     2   514   513 -2.743845738E+00 -5.002463842E+00 -6.194565253E+00  8.421755909E+00  0.000000000E+00  0.00000E+00  9.000E+00
</event>
<event>
      5  10001  3.52971E+09  1.50844E+01 -1.00000E+00  1.77151E-01
      21    -1     0     0   514   513  0.000000000E+00  0.000000000E+00  1.467533622E+01  1.467533622E+01  0.000000000E+00  0.00000E+00  9.000E+00
      -4    -1     0     0     0   515  0.000000000E+00  0.000000000E+00 -5.506818042E+01  5.506818042E+01  0.000000000E+00  0.00000E+00  9.000E+00
      -4     1     1     2     0   513  1.644483193E+01 -2.868171868E+00 -3.498388369E+01  3.879150712E+01  1.500000000E+00  0.00000E+00  9.000E+00
      21     1     1     2   514   511 -1.266278518E+01  9.578088501E+00  6.179433676E+00  1.703735040E+01  7.152557373E-07  0.00000E+00  9.000E+00
      21     1     1     2   511   515 -3.782046745E+00 -6.709916632E+00 -1.158839418E+01  1.391465912E+01  2.920019320E-07  0.00000E+00  9.000E+00
</event>
<event>
      5  10001  3.52971E+09  3.37020E+00 -1.00000E+00  2.82321E-01
      21    -1     0     0   512   514  0.000000000E+00  0.000000000E+00  1.053884625E+02  1.053884625E+02  0.000000000E+00  0.00000E+00  9.000E+00
      21    -1     0     0   516   512  0.000000000E+00  0.000000000E+00 -5.366852167E+01  5.366852167E+01  0.000000000E+00  0.00000E+00  9.000E+00
      21     1     1     2   516   515  6.630189136E-01  1.167021030E+01 -4.976731482E+01  5.112161018E+01  6.743495762E-07  0.00000E+00  9.000E+00
      21     1     1     2   515   513 -3.996993444E+00 -1.117737501E+01  7.836369098E+00  1.422386549E+01  5.591411304E-07  0.00000E+00  9.000E+00
      21     1     1     2   513   514  3.333974530E+00 -4.928352931E-01  9.365088657E+01  9.371150852E+01  1.348699152E-06  0.00000E+00  9.000E+00
</event>
<event>
      5  10001  3.52971E+09  5.58094E+00 -1.00000E+00  2.30462E-01
      21    -1     0     0   513   514  0.000000000E+00  0.000000000E+00  1.522288131E+01  1.522288131E+01  0.000000000E+00  0.00000E+00  9.000E+00
       1    -1     0     0   514     0  0.000000000E+00  0.000000000E+00 -4.298701266E+02  4.298701266E+02  0.000000000E+00  0.00000E+00  9.000E+00
      21     1     1     2   512   511  9.937936876E+00 -8.783185854E-01  1.000608832E+01  1.412996236E+01  9.233911863E-07  0.00000E+00  9.000E+00
       1     1     1     2   511     0 -1.294470687E+01  6.564456047E+00 -4.242712206E+02  4.245195344E+02  3.300000131E-01  0.00000E+00  9.000E+00
      21     1     1     2   513   512  3.006769998E+00 -5.686137462E+00 -3.821129022E-01  6.443511102E+00  6.430416515E-07  0.00000E+00  9.000E+00
</event>
<event>
      5  10001  3.52971E+09  6.42828E+00 -1.00000E+00  2.20914E-01
      21    -1     0     0   515   511  0.000000000E+00  0.000000000E+00  6.573612210E+01  6.573612210E+01  0.000000000E+00  0.00000E+00  9.000E+00
      21    -1     0     0   514   516  0.000000000E+00  0.000000000E+00 -7.908682882E+01  7.908682882E+01  0.000000000E+00  0.00000E+00  9.000E+00
      21     1     1     2   514   512 -7.681888776E+00 -1.405524550E+01 -6.275567928E+00  1.720302572E+01  7.202056631E-07  0.00000E+00  9.000E+00
      21     1     1     2   512   511  3.234511417E+00  1.869675789E+01  5.861826563E+01  6.161275749E+01  9.536743164E-07  0.00000E+00  9.000E+00
      21     1     1     2   515   516  4.447377359E+00 -4.641512394E+00 -6.569340443E+01  6.600716771E+01  9.536743164E-07  0.00000E+00  9.000E+00
</event>
<event>
      5  10001  3.52971E+09  1.33631E+01 -1.00000E+00  1.82242E-01
      21    -1     0     0   516   511  0.000000000E+00  0.000000000E+00  8.974877846E+02  8.974877846E+02  0.000000000E+00  0.00000E+00  9.000E+00
       1    -1     0     0   513     0  0.000000000E+00  0.000000000E+00 -8.131256579E+01  8.131256579E+01  0.000000000E+00  0.00000E+00  9.000E+00
      -4     1     1     2     0   511 -1.937121321E+01 -1.749941648E+01  7.245488240E+02  7.250204975E+02  1.500000000E+00  0.00000E+00  9.000E+00
       4     1     1     2   513     0  6.974599559E+00  1.251162367E+01  1.718489197E+02  1.724514046E+02  1.500000000E+00  0.00000E+00  9.000E+00
       1     1     1     2   516     0  1.239661365E+01  4.987792818E+00 -8.022252483E+01  8.132844826E+01  3.300000131E-01  0.00000E+00  9.000E+00
</event>
<event>
      5  10001  3.52971E+09  5.53851E+00 -1.00000E+00  2.31002E-01
      21    -1     0     0   512   513  0.000000000E+00  0.000000000E+00  4.599548717E+01  4.599548717E+01  0.000000000E+00  0.00000E+00  9.000E+00
      21    -1     0     0   511   514  0.000000000E+00  0.000000000E+00 -2.812065084E+00  2.812065084E+00  0.000000000E+00  0.00000E+00  9.000E+00
      21     1     1     2   512   514 -4.781822512E-01 -1.088736207E+01  1.714098772E+01  2.031198589E+01  2.384185791E-07  0.00000E+00  9.000E+00
      21     1     1     2   515   513  1.348104580E+00  3.080806630E+00  1.131773127E+01  1.180676910E+01  1.685873940E-07  0.00000E+00  9.000E+00
      21     1     1     2   511   515 -8.699223284E-01  7.806555436E+00  1.472470310E+01  1.668879726E+01  1.685873940E-07  0.00000E+00  9.000E+00
</event>
<event>
      5  10001  3.52971E+09  5.68030E+00 -1.00000E+00  2.29223E-01
      21    -1     0     0   516   514  0.000000000E+00  0.000000000E+00  4.219077764E+01  4.219077764E+01  0.000000000E+00  0.00000E+00  9.000E+00
       2    -1     0     0   511     0  0.000000000E+00  0.000000000E+00 -2.593659623E+02  2.593659623E+02  0.000000000E+00  0.00000E+00  9.000E+00
      21     1     1     2   516   517  8.682912478E+00  4.089759745E+00 -3.012437015E+01  3.161640051E+01  1.066240300E-06  0.00000E+00  9.000E+00
      21     1     1     2   511   514 -9.274864889E+00 -9.739112267E+00  4.031718208E+01  4.250115995E+01  9.536743164E-07  0.00000E+00  9.000E+00
       2     1     1     2   517     0  5.919524108E-01  5.649352522E+00 -2.273679966E+02  2.274391795E+02  3.300000131E-01  0.00000E+00  9.000E+00
</event>
<event>
      5  10001  3.52971E+09  4.20155E+00 -1.00000E+00  2.58531E-01
      21    -1     0     0   512   513  0.000000000E+00  0.000000000E+00  2.597796443E+02  2.597796443E+02  0.000000000E+00  0.00000E+00  9.000E+00
      21    -1     0     0   513   514  0.000000000E+00  0.000000000E+00 -1.073953927E+00  1.073953927E+00  0.000000000E+00  0.00000E+00  9.000E+00
      21     1     1     2   511   514  9.025728997E+00  1.741569242E+00  2.794342913E+01  2.941652731E+01  6.743495762E-07  0.00000E+00  9.000E+00
       5     1     1     2   512     0 -7.506309115E+00 -3.587236307E+00  1.984967655E+02  1.987290086E+02  4.800000191E+00  0.00000E+00  9.000E+00
      -5     1     1     2     0   511 -1.519419883E+00  1.845667065E+00  3.226549578E+01  3.270806236E+01  4.800000191E+00  0.00000E+00  9.000E+00
</event>
<event>
      5  10001  3.52971E+09  5.17965E+00 -1.00000E+00  2.35862E-01
       2    -1     0     0   512     0  0.000000000E+00  0.000000000E+00  3.310961588E+02  3.310961588E+02  0.000000000E+00  0.00000E+00  9.000E+00
       2    -1     0     0   511     0  0.000000000E+00  0.000000000E+00 -2.391390597E+00  2.391390597E+00  0.000000000E+00  0.00000E+00  9.000E+00
       2     1     1     2   515     0 -1.365020564E+01  1.113353198E+00  2.006485115E+01  2.429557205E+01  3.300000131E-01  0.00000E+00  9.000E+00
       2     1     1     2   511     0  8.490331443E+00 -1.560987160E+00  2.767027586E+02  2.768375840E+02  3.300000131E-01  0.00000E+00  9.000E+00
      21     1     1     2   512   515  5.159874194E+00  4.476339615E-01  3.193715843E+01  3.235439331E+01  3.371747881E-07  0.00000E+00  9.000E+00
</event>
<event>
      5  10001  3.52971E+09  4.70452E+00 -1.00000E+00  2.47896E-01
      21    -1     0     0   511   513  0.000000000E+00  0.000000000E+00  2.125459955E+01  2.125459955E+01  0.000000000E+00  0.00000E+00  9.000E+00
      -1    -1     0     0     0   512  0.000000000E+00  0.000000000E+00 -1.042398181E+02  1.042398181E+02  0.000000000E+00  0.00000E+00  9.000E+00
      -3     1     1     2     0   512  1.285886261E+01  8.702837318E+00 -1.929948768E+01  2.477518819E+01  5.000000000E-01  0.00000E+00  9.000E+00
      -1     1     1     2     0   513 -1.315566288E+01 -4.008309821E+00 -8.131289342E+01  8.246837909E+01  3.300000131E-01  0.00000E+00  9.000E+00
       3     1     1     2   511     0  2.968002660E-01 -4.694527497E+00  1.762716256E+01  1.825085036E+01  5.000000000E-01  0.00000E+00  9.000E+00
</event>
<event>
      5  10001  3.52971E+09  4.82618E+00 -1.00000E+00  2.45620E-01
       2    -1     0     0   512     0  0.000000000E+00  0.000000000E+00  6.623812855E+02  6.623812855E+02  0.000000000E+00  0.00000E+00  9.000E+00
      21    -1     0     0   511   514  0.000000000E+00  0.000000000E+00 -2.208089605E+00  2.208089605E+00  0.000000000E+00  0.00000E+00  9.000E+00
      21     1     1     2   512   514  1.220808849E+01  4.134397885E+00  1.752876835E+01  2.175749044E+01  1.327458468E-06  0.00000E+00  9.000E+00
       2     1     1     2   513     0 -6.524313568E+00 -1.454314810E+00  5.047307291E+02  5.047750980E+02  3.300000131E-01  0.00000E+00  9.000E+00
      21     1     1     2   511   513 -5.683774920E+00 -2.680083075E+00  1.379136984E+02  1.380567867E+02  1.907348633E-06  0.00000E+00  9.000E+00
</event>
<event>
      5  10001  3.52971E+09  1.59823E+01 -1.00000E+00  1.74823E-01
      21    -1     0     0   515   513  0.000000000E+00  0.000000000E+00  2.592166710E+01  2.592166710E+01  0.000000000E+00  0.00000E+00  9.000E+00
      21    -1     0     0   511   512  0.000000000E+00  0.000000000E+00 -2.817445519E+02  2.817445519E+02  0.000000000E+00  0.00000E+00  9.000E+00
      21     1     1     2   515   516 -4.906255309E+00  1.614118188E+01  1.523224221E+01  2.272950277E+01  4.460403188E-07  0.00000E+00  9.000E+00
      21     1     1     2   511   513  1.865670021E+01 -7.994993626E+00 -8.680653296E+00  2.207591737E+01  3.953724850E-07  0.00000E+00  9.000E+00
      21     1     1     2   516   512 -1.375044491E+01 -8.146188250E+00 -2.623744738E+02  2.628607989E+02  0.000000000E+00  0.00000E+00  9.000E+00
</event>
<event>
      5  10001  3.52971E+09  6.27758E+00 -1.00000E+00  2.22458E-01
      21    -1     0     0   514   511  0.000000000E+00  0.000000000E+00  6.518247126E+01  6.518247126E+01  0.000000000E+00  0.00000E+00  9.000E+00
      21    -1     0     0   517   514  0.000000000E+00  0.000000000E+00 -2.089842640E+00  2.089842640E+00  0.000000000E+00  0.00000E+00  9.000E+00
      21     1     1     2   517   512  8.579403270E+00 -5.802522888E+00  4.354910510E+01  4.476382454E+01  4.768371582E-07  0.00000E+00  9.000E+00
      21     1     1     2   512   513 -2.299963537E+00  5.558769047E-01  1.813308269E+00  2.981093471E+00  5.575503985E-08  0.00000E+00  9.000E+00
      21     1     1     2   513   511 -6.279439733E+00  5.246645983E+00  1.773021525E+01  1.952739589E+01  0.000000000E+00  0.00000E+00  9.000E+00
</event>
<event>
      5  10001  3.52971E+09  1.20801E+01 -1.00000E+00  1.86721E-01
      21    -1     0     0   515   512  0.000000000E+00  0.000000000E+00  7.720375091E+00  7.720375091E+00  0.000000000E+00  0.00000E+00  9.000E+00
      21    -1     0     0   516   511  0.000000000E+00  0.000000000E+00 -1.495924179E+03  1.495924179E+03  0.000000000E+00  0.00000E+00  9.000E+00
      21     1     1     2   515   511 -1.483615217E+01  2.020570356E+00 -1.456187058E+03  1.456264036E+03  2.157918644E-05  0.00000E+00  9.000E+00
      21     1     1     2   514   512  9.290986575E+00  7.159528131E+00  1.833459312E+00  1.187193529E+01  9.403093198E-07  0.00000E+00  9.000E+00
      21     1     1     2   516   514  5.545165594E+00 -9.180098487E+00 -3.385020452E+01  3.550858229E+01  8.259061849E-07  0.00000E+00  9.000E+00
</event>
<event>
      5  10001  3.52971E+09  4.01703E+00 -1.00000E+00  2.63028E-01
      21    -1     0     0   513   511  0.000000000E+00  0.000000000E+00  2.040037803E+02  2.040037803E+02  0.000000000E+00  0.00000E+00  9.000E+00
      21    -1     0     0   516   513  0.000000000E+00  0.000000000E+00 -2.202594635E+00  2.202594635E+00  0.000000000E+00  0.00000E+00  9.000E+00
      21     1     1     2   516   517 -8.871285454E+00  5.895048077E+00  1.280609327E+01  1.665675005E+01  3.769728732E-07  0.00000E+00  9.000E+00
      21     1     1     2   512   511  5.792463764E+00 -6.767968097E+00  1.734467151E+02  1.736753322E+02  4.264961200E-06  0.00000E+00  9.000E+00
      21     1     1     2   517   512  3.078821690E+00  8.729200208E-01  1.554837726E+01  1.587429267E+01  1.685873940E-07  0.00000E+00  9.000E+00
</event>
<event>
      5  10001  3.52971E+09  4.91428E+00 -1.00000E+00  2.44034E-01
      21    -1     0     0   513   514  0.000000000E+00  0.000000000E+00  1.930673343E+01  1.930673343E+01  0.000000000E+00  0.00000E+00  9.000E+00
      21    -1     0     0   511   512  0.000000000E+00  0.000000000E+00 -1.923688204E+01  1.923688204E+01  0.000000000E+00  0.00000E+00  9.000E+00
      -3     1     1     2     0   512 -1.336375562E+01  5.255773524E+00  6.123041639E+00  1.561905114E+01  5.000000000E-01  0.00000E+00  9.000E+00
      21     1     1     2   511   514  9.200724210E+00 -7.860788209E+00 -1.069384641E+01  1.614941696E+01  3.153981341E-07  0.00000E+00  9.000E+00
       3     1     1     2   513     0  4.163031415E+00  2.605014686E+00  4.640656169E+00  6.775147360E+00  5.000000000E-01  0.00000E+00  9.000E+00
</event>
<event>
      5  10001  3.52971E+09  5.56222E+00 -1.00000E+00  2.30700E-01
      21    -1     0     0   512   511  0.000000000E+00  0.000000000E+00  3.753084212E+02  3.753084212E+02  0.000000000E+00  0.00000E+00  9.000E+00
      21    -1     0     0   517   516  0.000000000E+00  0.000000000E+00 -1.889743945E+02  1.889743945E+02  0.000000000E+00  0.00000E+00  9.000E+00
      21     1     1     2   515   516  1.061957122E+01 -4.175831336E+00  3.706125227E+02  3.707881536E+02  5.394796609E-06  0.00000E+00  9.000E+00
      21     1     1     2   517   511 -1.588182179E+01  2.373877592E+00 -1.867278201E+02  1.874170386E+02  5.394796609E-06  0.00000E+00  9.000E+00
      21     1     1     2   512   515  5.262250568E+00  1.801953744E+00  2.449324116E+00  6.077623463E+00  0.000000000E+00  0.00000E+00  9.000E+00
</event>
<event>
      5  10001  3.52971E+09  8.75768E+00 -1.00000E+00  2.02657E-01
      -3    -1     0     0     0   513  0.000000000E+00  0.000000000E+00  3.389254874E+02  3.389254874E+02  0.000000000E+00  0.00000E+00  9.000E+00
      21    -1     0     0   511   514  0.000000000E+00  0.000000000E+00 -9.458876910E+01  9.458876910E+01  0.000000000E+00  0.00000E+00  9.000E+00
      -3     1     1     2     0   512 -1.130360083E+01 -5.448339505E+00  3.360011382E+02  3.362357368E+02  5.000000000E-01  0.00000E+00  9.000E+00
      21     1     1     2   511   513  1.905638399E+01  1.375141073E+00 -3.441202027E+01  3.936018195E+01  6.743495762E-07  0.00000E+00  9.000E+00
      21     1     1     2   512   514 -7.752783157E+00  4.073198432E+00 -5.725239963E+01  5.791833781E+01  9.536743164E-07  0.00000E+00  9.000E+00
</event>
<event>
      5  10001  3.52971E+09  7.64468E+00 -1.00000E+00  2.10279E-01
       1    -1     0     0   515     0  0.000000000E+00  0.000000000E+00  1.118068197E+03  1.118068197E+03  0.000000000E+00  0.00000E+00  9.000E+00
      21    -1     0     0   512   516  0.000000000E+00  0.000000000E+00 -1.972492112E+01  1.972492112E+01  0.000000000E+00  0.00000E+00  9.000E+00
      21     1     1     2   515   516  2.274608398E+00 -1.012425912E+01  7.179616422E+00  1.261829457E+01  2.920019320E-07  0.00000E+00  9.000E+00
      21     1     1     2   512   511 -3.366964952E+00  1.769048258E+01 -1.222119465E+01  2.176343781E+01  3.371747881E-07  0.00000E+00  9.000E+00
       1     1     1     2   511     0  1.092356553E+00 -7.566223466E+00  1.103384854E+03  1.103411386E+03  3.300000131E-01  0.00000E+00  9.000E+00
</event>
<event>
      5  10001  3.52971E+09  6.23108E+00 -1.00000E+00  2.22947E-01
      21    -1     0     0   513   512  0.000000000E+00  0.000000000E+00  4.190133828E+02  4.190133828E+02  0.000000000E+00  0.00000E+00  9.000E+00
      21    -1     0     0   515   514  0.000000000E+00  0.000000000E+00 -1.037604290E+01  1.037604290E+01  0.000000000E+00  0.00000E+00  9.000E+00
      21     1     1     2   513   514  9.805263837E+00  6.006726436E+00  1.540050292E+02  1.544337171E+02  1.907348633E-06  0.00000E+00  9.000E+00
      21     1     1     2   517   512 -1.309598731E+01 -1.129799622E+01  2.635278942E+02  2.640948705E+02  3.814697266E-06  0.00000E+00  9.000E+00
      21     1     1     2   515   517  3.290723475E+00  5.291269780E+00 -8.895583537E+00  1.086083806E+01  6.951036328E-07  0.00000E+00  9.000E+00
</event>
<event>
      5  10001  3.52971E+09  7.99857E+00 -1.00000E+00  2.07675E-01
      21    -1     0     0   511   514  0.000000000E+00  0.000000000E+00  1.517698310E+02  1.517698310E+02  0.000000000E+00  0.00000E+00  9.000E+00
      21    -1     0     0   515   516  0.000000000E+00  0.000000000E+00 -1.441916578E+00  1.441916578E+00  0.000000000E+00  0.00000E+00  9.000E+00
      21     1     1     2   511   516 -5.143239791E-01 -1.061484707E+01  1.241389872E+02  1.245930481E+02  1.348699152E-06  0.00000E+00  9.000E+00
       2     1     1     2   515     0  1.938139586E+00  2.326053686E+00  8.507618198E+00  9.036336548E+00  3.300000131E-01  0.00000E+00  9.000E+00
      -2     1     1     2     0   514 -1.423815607E+00  8.288793382E+00  1.768130901E+01  1.958236286E+01  3.300000131E-01  0.00000E+00  9.000E+00
</event>
<event>
      5  10001  3.52971E+09  7.15706E+00 -1.00000E+00  2.14195E-01
      21    -1     0     0   512   513  0.000000000E+00  0.000000000E+00  8.483834102E+01  8.483834102E+01  0.000000000E+00  0.00000E+00  9.000E+00
      21    -1     0     0   515   512  0.000000000E+00  0.000000000E+00 -1.488348255E+01  1.488348255E+01  0.000000000E+00  0.00000E+00  9.000E+00
      -4     1     1     2     0   511  1.059701600E+01  6.390307968E+00  1.474463555E+01  1.930769436E+01  1.500000000E+00  0.00000E+00  9.000E+00
      21     1     1     2   511   513 -8.828006703E+00  5.314300642E-01  6.643680115E+01  6.702286675E+01  0.000000000E+00  0.00000E+00  9.000E+00
       4     1     1     2   515     0 -1.769009293E+00 -6.921738032E+00 -1.122657823E+01  1.339126245E+01  1.500000000E+00  0.00000E+00  9.000E+00
</event>
<event>
      5  10001  3.52971E+09  5.88509E+00 -1.00000E+00  2.26778E-01
      21    -1     0     0   514   511  0.000000000E+00  0.000000000E+00  3.494418514E+02  3.494418514E+02  0.000000000E+00  0.00000E+00  9.000E+00
      21    -1     0     0   515   516  0.000000000E+00  0.000000000E+00 -3.381756423E-01  3.381756423E-01  0.000000000E+00  0.00000E+00  9.000E+00
      21     1     1     2   514   516  9.993170052E+00 -1.820341523E+00  1.778065704E+02  1.780964726E+02  1.907348633E-06  0.00000E+00  9.000E+00
      21     1     1     2   512   511 -4.308286995E+00  4.154614177E-01  3.591635912E+01  3.617621867E+01  8.259061849E-07  0.00000E+00  9.000E+00
      21     1     1     2   515   512 -5.684883057E+00  1.404880105E+00  1.353807463E+02  1.355073358E+02  1.907348633E-06  0.00000E+00  9.000E+00
</event>
<event>
      5  10001  3.52971E+09  1.16139E+01 -1.00000E+00  1.88530E-01
      21    -1     0     0   513   512  0.000000000E+00  0.000000000E+00  6.719019053E+00  6.719019053E+00  0.000000000E+00  0.00000E+00  9.000E+00
      21    -1     0     0   515   517  0.000000000E+00  0.000000000E+00 -3.468651319E+01  3.468651319E+01  0.000000000E+00  0.00000E+00  9.000E+00
      21     1     1     2   513   517  1.332217495E+00  7.180507464E+00 -1.948221707E+01  2.080603934E+01  2.384185791E-07  0.00000E+00  9.000E+00
      21     1     1     2   515   511 -3.870776242E+00 -4.655089177E+00  4.232692087E+00  7.387045842E+00  1.576990671E-07  0.00000E+00  9.000E+00
      21     1     1     2   511   512  2.538558747E+00 -2.525418287E+00 -1.271796916E+01  1.321244707E+01  2.384185791E-07  0.00000E+00  9.000E+00
</event>
<event>
      5  10001  3.52971E+09  4.39877E+00 -1.00000E+00  2.54102E-01
      21    -1     0     0   514   515  0.000000000E+00  0.000000000E+00  1.472796205E+03  1.472796205E+03  0.000000000E+00  0.00000E+00  9.000E+00
      21    -1     0     0   512   514  0.000000000E+00  0.000000000E+00 -5.739215171E+00  5.739215171E+00  0.000000000E+00  0.00000E+00  9.000E+00
      21     1     1     2   512   516 -1.436584173E+01 -3.084700600E+00  3.764683533E+00  1.516791444E+01  3.908537939E-07  0.00000E+00  9.000E+00
      21     1     1     2   513   515  3.324334092E+00  4.651608094E-01  2.594140248E+02  2.594357412E+02  0.000000000E+00  0.00000E+00  9.000E+00
      21     1     1     2   516   513  1.104150764E+01  2.619539791E+00  1.203878282E+03  1.203931765E+03  1.525878906E-05  0.00000E+00  9.000E+00
</event>
<event>
      5  10001  3.52971E+09  7.17533E+00 -1.00000E+00  2.14041E-01
      21    -1     0     0   511   513  0.000000000E+00  0.000000000E+00  2.110514610E+02  2.110514610E+02  0.000000000E+00  0.00000E+00  9.000E+00
      21    -1     0     0   512   517  0.000000000E+00  0.000000000E+00 -1.074963540E+00  1.074963540E+00  0.000000000E+00  0.00000E+00  9.000E+00
      21     1     1     2   511   517  1.021058537E+01 -3.112425431E+00  1.574161192E+02  1.577776215E+02  0.000000000E+00  0.00000E+00  9.000E+00
      21     1     1     2   514   513 -4.222527872E+00  4.946999353E-01  6.125449353E+00  7.456245666E+00  2.795705652E-07  0.00000E+00  9.000E+00
      21     1     1     2   512   514 -5.988057496E+00  2.617725496E+00  4.643492894E+01  4.689255746E+01  6.743495762E-07  0.00000E+00  9.000E+00
</event>
<event>
      5  10001  3.52971E+09  8.40599E+00 -1.00000E+00  2.04894E-01
      21    -1     0     0   511   514  0.000000000E+00  0.000000000E+00  3.958630497E+00  3.958630497E+00  0.000000000E+00  0.00000E+00  9.000E+00
      21    -1     0     0   512   516  0.000000000E+00  0.000000000E+00 -6.801545065E+02  6.801545065E+02  0.000000000E+00  0.00000E+00  9.000E+00
      21     1     1     2   515   516 -8.049687453E+00 -2.433949727E+00 -2.434669505E+02  2.436121457E+02  2.697398305E-06  0.00000E+00  9.000E+00
      21     1     1     2   512   514  1.177215463E+01  9.970785874E+00 -4.317643107E+02  4.320398364E+02  9.344061824E-06  0.00000E+00  9.000E+00
      21     1     1     2   511   515 -3.722467178E+00 -7.536836146E+00 -9.646148515E-01  8.461154933E+00  1.971238338E-07  0.00000E+00  9.000E+00
</event>
<event>
      5  10001  3.52971E+09  4.93265E+00 -1.00000E+00  2.43710E-01
      21    -1     0     0   513   512  0.000000000E+00  0.000000000E+00  8.815017906E+01  8.815017906E+01  0.000000000E+00  0.00000E+00  9.000E+00
      21    -1     0     0   514   515  0.000000000E+00  0.000000000E+00 -3.348840856E+02  3.348840856E+02  0.000000000E+00  0.00000E+00  9.000E+00
      21     1     1     2   513   515 -1.348944295E+01 -6.117513424E-01 -2.356249593E+02  2.360115691E+02  3.814697266E-06  0.00000E+00  9.000E+00
      21     1     1     2   517   512  1.622598629E+01 -3.492188822E+00  8.711144051E+01  8.867852661E+01  1.907348633E-06  0.00000E+00  9.000E+00
      21     1     1     2   514   517 -2.736543336E+00  4.103940165E+00 -9.822038774E+01  9.834416893E+01  1.348699152E-06  0.00000E+00  9.000E+00
</event>
<event>
      5  10001  3.52971E+09  2.76562E+00 -1.00000E+00  3.08006E-01
      21    -1     0     0   513   512  0.000000000E+00  0.000000000E+00  9.873826250E+00  9.873826250E+00  0.000000000E+00  0.00000E+00  9.000E+00
      -4    -1     0     0     0   511  0.000000000E+00  0.000000000E+00 -4.334379772E+01  4.334379772E+01  0.000000000E+00  0.00000E+00  9.000E+00
      -4     1     1     2     0   512  1.092969779E+01 -3.738961465E+00 -3.781061401E+01  3.956425986E+01  1.500000000E+00  0.00000E+00  9.000E+00
      21     1     1     2   514   511 -8.318949201E+00  2.837772665E+00  3.454391448E-01  8.796430964E+00  1.320771717E-07  0.00000E+00  9.000E+00
      21     1     1     2   513   514 -2.610748587E+00  9.011888003E-01  3.995203393E+00  4.856933147E+00  1.032382731E-07  0.00000E+00  9.000E+00
</event>
<event>
      5  10001  3.52971E+09  9.41448E+00 -1.00000E+00  1.98831E-01
       2    -1     0     0   511     0  0.000000000E+00  0.000000000E+00  2.903909487E+02  2.903909487E+02  0.000000000E+00  0.00000E+00  9.000E+00
      21    -1     0     0   514   511  0.000000000E+00  0.000000000E+00 -8.062601567E-01  8.062601567E-01  0.000000000E+00  0.00000E+00  9.000E+00
      21     1     1     2   514   513  6.663788518E+00  7.620641833E+00  4.296892303E+01  4.414531239E+01  4.768371582E-07  0.00000E+00  9.000E+00
      21     1     1     2   513   512 -8.415270346E+00 -3.791587193E+00  1.155337595E+02  1.159018658E+02  0.000000000E+00  0.00000E+00  9.000E+00
       2     1     1     2   512     0  1.751481828E+00 -3.829054640E+00  1.310820059E+02  1.311500306E+02  3.300000131E-01  0.00000E+00  9.000E+00
</event>
<event>
      5  10001  3.52971E+09  1.07282E+01 -1.00000E+00  1.92289E-01
      21    -1     0     0   515   513  0.000000000E+00  0.000000000E+00  7.084034709E+01  7.084034709E+01  0.000000000E+00  0.00000E+00  9.000E+00
      21    -1     0     0   511   516  0.000000000E+00  0.000000000E+00 -1.111024675E+01  1.111024675E+01  0.000000000E+00  0.00000E+00  9.000E+00
      21     1     1     2   515   516  1.098711202E+01  1.111128970E+00  5.435059297E+00  1.230817240E+01  3.264680848E-07  0.00000E+00  9.000E+00
      21     1     1     2   514   513 -6.212753103E+00 -1.071836312E+01  5.720134693E+01  5.852756359E+01  1.168007728E-06  0.00000E+00  9.000E+00
      21     1     1     2   511   514 -4.774358922E+00  9.607234151E+00 -2.906305880E+00  1.111485785E+01  1.519626234E-07  0.00000E+00  9.000E+00
</event>
<event>
      5  10001  3.52971E+09  1.71595E+01 -1.00000E+00  1.72048E-01
      21    -1     0     0   511   515  0.000000000E+00  0.000000000E+00  2.463319068E+01  2.463319068E+01  0.000000000E+00  0.00000E+00  9.000E+00
       1    -1     0     0   513     0  0.000000000E+00  0.000000000E+00 -8.177698973E+02  8.177698973E+02  0.000000000E+00  0.00000E+00  9.000E+00
      21     1     1     2   513   512  5.268418008E+00 -2.036139273E+01  1.478726944E+01  2.571003461E+01  2.158972058E-06  0.00000E+00  9.000E+00
       1     1     1     2   511     0 -1.714197449E+01  3.274952812E+01 -7.932615973E+02  7.941224399E+02  3.300000131E-01  0.00000E+00  9.000E+00
      21     1     1     2   512   515  1.187355649E+01 -1.238813539E+01 -1.466237876E+01  2.257061349E+01  6.529361695E-07  0.00000E+00  9.000E+00
</event>
<event>
      5  10001  3.52971E+09  9.36516E+00 -1.00000E+00  1.99104E-01
      -3    -1     0     0     0   514  0.000000000E+00  0.000000000E+00  6.520498542E+00  6.520498542E+00  0.000000000E+00  0.00000E+00  9.000E+00
      -5    -1     0     0     0   511  0.000000000E+00  0.000000000E+00 -2.432449102E+02  2.432449102E+02  0.000000000E+00  0.00000E+00  9.000E+00
      -5     1     1     2     0   513 -3.784545010E+00  2.281332308E+00 -2.266540753E+02  2.267479595E+02  4.800000191E+00  0.00000E+00  9.000E+00
      -3     1     1     2     0   511  7.360897044E+00 -6.657202225E+00  1.586209327E+00  1.006316087E+01  5.000000000E-01  0.00000E+00  9.000E+00
      21     1     1     2   513   514 -3.576352035E+00  4.375869917E+00 -1.165654570E+01  1.295428844E+01  2.384185791E-07  0.00000E+00  9.000E+00
</event>
<event>
      5  10001  3.52971E+09  7.12049E+00 -1.00000E+00  2.14506E-01
      21    -1     0     0   512   515  0.000000000E+00  0.000000000E+00  7.926364362E+00  7.926364362E+00  0.000000000E+00  0.00000E+00  9.000E+00
      21    -1     0     0   513   514  0.000000000E+00  0.000000000E+00 -1.502232426E+01  1.502232426E+01  0.000000000E+00  0.00000E+00  9.000E+00
      21     1     1     2   512   514  9.802833642E+00 -6.996103337E-01 -3.869605274E+00  1.056214216E+01  1.519626234E-07  0.00000E+00  9.000E+00
      -4     1     1     2     0   515 -3.728436565E+00  3.187509721E+00 -6.218234619E-01  5.167022533E+00  1.500000000E+00  0.00000E+00  9.000E+00
       4     1     1     2   513     0 -6.074397077E+00 -2.487899387E+00 -2.604531163E+00  7.219523930E+00  1.500000000E+00  0.00000E+00  9.000E+00
</event>
<event>
      5  10001  3.52971E+09  1.02984E+01 -1.00000E+00  1.94288E-01
      21    -1     0     0   511   515  0.000000000E+00  0.000000000E+00  2.944136607E+01  2.944136607E+01  0.000000000E+00  0.00000E+00  9.000E+00
      21    -1     0     0   512   511  0.000000000E+00  0.000000000E+00 -3.699841871E+01  3.699841871E+01  0.000000000E+00  0.00000E+00  9.000E+00
      21     1     1     2   516   515  1.052118410E+01 -1.103197814E+00  2.314436641E+01  2.544747643E+01  5.840038640E-07  0.00000E+00  9.000E+00
      21     1     1     2   513   516 -1.204837584E+01 -9.081384355E+00 -2.505633874E+01  2.924816256E+01  3.371747881E-07  0.00000E+00  9.000E+00
      21     1     1     2   512   513  1.527191749E+00  1.018458217E+01 -5.645080314E+00  1.174414579E+01  1.460009660E-07  0.00000E+00  9.000E+00
</event>
<event>
      5  10001  3.52971E+09  5.77186E+00 -1.00000E+00  2.28112E-01
      21    -1     0     0   514   513  0.000000000E+00  0.000000000E+00  5.491423230E+00  5.491423230E+00  0.000000000E+00  0.00000E+00  9.000E+00
      21    -1     0     0   512   517  0.000000000E+00  0.000000000E+00 -6.682932960E+01  6.682932960E+01  0.000000000E+00  0.00000E+00  9.000E+00
      21     1     1     2   514   517  2.647692320E+00  1.213263615E+01 -4.805359218E+01  4.963223606E+01  0.000000000E+00  0.00000E+00  9.000E+00
      21     1     1     2   511   513 -5.647934791E+00 -1.192568384E+01 -5.413614808E+00  1.426283028E+01  1.032382731E-07  0.00000E+00  9.000E+00
      21     1     1     2   512   511  3.000242471E+00 -2.069523109E-01 -7.870699383E+00  8.425686496E+00  8.429369702E-08  0.00000E+00  9.000E+00
</event>
<event>
      5  10001  3.52971E+09  6.77796E+00 -1.00000E+00  2.17546E-01
      21    -1     0     0   512   514  0.000000000E+00  0.000000000E+00  2.515776865E+01  2.515776865E+01  0.000000000E+00  0.00000E+00  9.000E+00
       1    -1     0     0   513     0  0.000000000E+00  0.000000000E+00 -9.260312877E+01  9.260312877E+01  0.000000000E+00  0.00000E+00  9.000E+00
      21     1     1     2   513   511  1.160901291E+01  1.728762391E+00 -9.757837061E+00  1.526345912E+01  1.685873940E-07  0.00000E+00  9.000E+00
       1     1     1     2   512     0 -9.414823308E+00  4.684123877E+00 -7.922402967E+01  7.991955763E+01  3.300000131E-01  0.00000E+00  9.000E+00
      21     1     1     2   511   514 -2.194189600E+00 -6.412886268E+00  2.153650661E+01  2.257788067E+01  2.384185791E-07  0.00000E+00  9.000E+00
</event>
<event>
      5  10001  3.52971E+09  1.14281E+01 -1.00000E+00  1.89281E-01
      21    -1     0     0   515   513  0.000000000E+00  0.000000000E+00  3.499026222E+01  3.499026222E+01  0.000000000E+00  0.00000E+00  9.000E+00
      21    -1     0     0   514   515  0.000000000E+00  0.000000000E+00 -3.868260335E+00  3.868260335E+00  0.000000000E+00  0.00000E+00  9.000E+00
      21     1     1     2   516   513  6.406178338E+00 -1.511976179E+00  1.501438461E+01  1.639380792E+01  2.920019320E-07  0.00000E+00  9.000E+00
      21     1     1     2   512   516 -8.912932922E+00  2.960543420E+00  1.701138366E+01  1.943173602E+01  4.129530925E-07  0.00000E+00  9.000E+00
      21     1     1     2   514   512  2.506754585E+00 -1.448567242E+00 -9.037663872E-01  3.032978616E+00  1.405772735E-07  0.00000E+00  9.000E+00
</event>
<event>
      5  10001  3.52971E+09  9.39116E+00 -1.00000E+00  1.98960E-01
      21    -1     0     0   511   512  0.000000000E+00  0.000000000E+00  2.372011163E+00  2.372011163E+00  0.000000000E+00  0.00000E+00  9.000E+00
      21    -1     0     0   513   515  0.000000000E+00  0.000000000E+00 -8.615171324E+02  8.615171324E+02  0.000000000E+00  0.00000E+00  9.000E+00
      21     1     1     2   511   517 -4.308594511E+01 -5.051372824E+00 -4.337198862E+02  4.358839923E+02  5.394796609E-06  0.00000E+00  9.000E+00
      21     1     1     2   513   512  3.526037863E+01 -1.403912588E-01 -2.694327159E+02  2.717302015E+02  5.394796609E-06  0.00000E+00  9.000E+00
      21     1     1     2   517   515  7.825566478E+00  5.191764083E+00 -1.559925190E+02  1.562749497E+02  0.000000000E+00  0.00000E+00  9.000E+00
</event>
<event>
      5  10001  3.52971E+09  8.75717E+00 -1.00000E+00  2.02660E-01
      -3    -1     0     0     0   512  0.000000000E+00  0.000000000E+00  3.795198979E+01  3.795198979E+01  0.000000000E+00  0.00000E+00  9.000E+00
      -2    -1     0     0     0   511  0.000000000E+00  0.000000000E+00 -1.896157560E+02  1.896157560E+02  0.000000000E+00  0.00000E+00  9.000E+00
      -3     1     1     2     0   511 -2.882882560E+01  2.439555350E+00  8.758241380E+00  3.023258851E+01  5.000000000E-01  0.00000E+00  9.000E+00
      -2     1     1     2     0   514  3.026411985E+01 -1.107813757E+01 -1.762896007E+02  1.792115351E+02  3.300000131E-01  0.00000E+00  9.000E+00
      21     1     1     2   514   512 -1.435294249E+00  8.638582218E+00  1.586759310E+01  1.812362224E+01  5.057621821E-07  0.00000E+00  9.000E+00
</event>
<event>
      5  10001  3.52971E+09  2.15056E+01 -1.00000E+00  1.63806E-01
      21    -1     0     0   513   511  0.000000000E+00  0.000000000E+00  1.097849235E+01  1.097849235E+01  0.000000000E+00  0.00000E+00  9.000E+00
      21    -1     0     0   512   513  0.000000000E+00  0.000000000E+00 -3.643547394E+01  3.643547394E+01  0.000000000E+00  0.00000E+00  9.000E+00
      21     1     1     2   512   515 -3.458074824E+00 -1.396454088E+01 -2.067794357E+01  2.519015747E+01  0.000000000E+00  0.00000E+00  9.000E+00
      21     1     1     2   515   516 -5.978690068E+00  3.004018577E+00  7.646833993E-01  6.734508389E+00  1.652618722E-07  0.00000E+00  9.000E+00
      21     1     1     2   516   511  9.436764892E+00  1.096052230E+01 -5.543721422E+00  1.548930043E+01  2.795705652E-07  0.00000E+00  9.000E+00
</event>
<event>
      5  10001  3.52971E+09  9.32512E+00 -1.00000E+00  1.99327E-01
      21    -1     0     0   515   512  0.000000000E+00  0.000000000E+00  9.599324273E+01  9.599324273E+01  0.000000000E+00  0.00000E+00  9.000E+00
      21    -1     0     0   514   513  0.000000000E+00  0.000000000E+00 -2.481246430E+01  2.481246430E+01  0.000000000E+00  0.00000E+00  9.000E+00
      21     1     1     2   515   513  2.572291957E+01 -2.272130867E+01 -4.699138030E+00  3.464113677E+01  8.450416850E-07  0.00000E+00  9.000E+00
       5     1     1     2   514     0 -1.649074461E+01  2.270726380E+01  4.213952448E+01  5.085611086E+01  4.800000191E+00  0.00000E+00  9.000E+00
      -5     1     1     2     0   512 -9.232174958E+00  1.404487211E-02  3.374039198E+01  3.530845939E+01  4.800000191E+00  0.00000E+00  9.000E+00
</event>
<event>
      5  10001  3.52971E+09  9.14614E+00 -1.00000E+00  2.00343E-01
      21    -1     0     0   513   514  0.000000000E+00  0.000000000E+00  3.501604800E+01  3.501604800E+01  0.000000000E+00  0.00000E+00  9.000E+00
      21    -1     0     0   511   516  0.000000000E+00  0.000000000E+00 -1.143835906E+02  1.143835906E+02  0.000000000E+00  0.00000E+00  9.000E+00
      21     1     1     2   513   516  2.844267475E+00 -1.847707399E+01 -9.966883000E+01  1.014069415E+02  1.348699152E-06  0.00000E+00  9.000E+00
       1     1     1     2   511     0 -1.164083560E+01  1.597362054E+01 -5.580419070E+00  2.054058382E+01  3.300000131E-01  0.00000E+00  9.000E+00
      -1     1     1     2     0   514  8.796568129E+00  2.503453455E+00  2.588170648E+01  2.745211322E+01  3.300000131E-01  0.00000E+00  9.000E+00
</event>
<event>
      5  10001  3.52971E+09  9.26034E+00 -1.00000E+00  1.99691E-01
      21    -1     0     0   513   511  0.000000000E+00  0.000000000E+00  7.553750049E+01  7.553750049E+01  0.000000000E+00  0.00000E+00  9.000E+00
       4    -1     0     0   514     0  0.000000000E+00  0.000000000E+00 -1.183902828E+02  1.183902828E+02  0.000000000E+00  0.00000E+00  9.000E+00
      21     1     1     2   514   511 -3.502698010E+00 -9.304782734E+00  6.407974793E+01  6.484644917E+01  1.651812370E-06  0.00000E+00  9.000E+00
       4     1     1     2   512     0  1.273442052E+01  1.002472531E+01 -1.153949795E+02  1.165371695E+02  1.500000000E+00  0.00000E+00  9.000E+00
      21     1     1     2   513   512 -9.231722507E+00 -7.199425797E-01  8.462449276E+00  1.254416460E+01  2.920019320E-07  0.00000E+00  9.000E+00
</event>
<event>
      5  10001  3.52971E+09  8.62946E+00 -1.00000E+00  2.03456E-01
       5    -1     0     0   515     0  0.000000000E+00  0.000000000E+00  4.664134127E+02  4.664134127E+02  0.000000000E+00  0.00000E+00  9.000E+00
      21    -1     0     0   511   512  0.000000000E+00  0.000000000E+00 -3.779131240E+01  3.779131240E+01  0.000000000E+00  0.00000E+00  9.000E+00
      21     1     1     2   515   512 -1.072821271E+01 -3.957275250E+00  3.938555948E+01  4.101191133E+01  2.185142372E-06  0.00000E+00  9.000E+00
       5     1     1     2   513     0  5.713423254E+00  1.097627481E+01  4.256067164E+02  4.258136198E+02  4.800000191E+00  0.00000E+00  9.000E+00
      21     1     1     2   511   513  5.014789459E+00 -7.018999559E+00 -3.637017556E+01  3.737919392E+01  1.261592536E-06  0.00000E+00  9.000E+00
</event>
<event>
      5  10001  3.52971E+09  2.86149E+01 -1.00000E+00  1.54477E-01
      21    -1     0     0   513   511  0.000000000E+00  0.000000000E+00  2.181941178E+02  2.181941178E+02  0.000000000E+00  0.00000E+00  9.000E+00
      21    -1     0     0   514   513  0.000000000E+00  0.000000000E+00 -1.328641505E+00  1.328641505E+00  0.000000000E+00  0.00000E+00  9.000E+00
      -5     1     1     2     0   511 -4.520909283E-02  3.568701128E+00  4.462812354E+01  4.502718162E+01  4.800000191E+00  0.00000E+00  9.000E+00
      21     1     1     2   514   512  3.150477269E+00 -8.536150227E+00  1.588816238E+02  1.591419547E+02  0.000000000E+00  0.00000E+00  9.000E+00
       5     1     1     2   512     0 -3.105268176E+00  4.967449099E+00  1.335572898E+01  1.535362301E+01  4.800000191E+00  0.00000E+00  9.000E+00
</event>
<event>
      5  10001  3.52971E+09  1.19588E+01 -1.00000E+00  1.87181E-01
       2    -1     0     0   514     0  0.000000000E+00  0.000000000E+00  1.240588669E+03  1.240588669E+03  0.000000000E+00  0.00000E+00  9.000E+00
      21    -1     0     0   511   513  0.000000000E+00  0.000000000E+00 -1.145990517E+02  1.145990517E+02  0.000000000E+00  0.00000E+00  9.000E+00
      21     1     1     2   514   513 -6.109287920E+00 -1.456613465E+01  1.178907458E+01  1.970984416E+01  2.861022949E-06  0.00000E+00  9.000E+00
       2     1     1     2   512     0  1.800761262E+01  1.576741136E+01  1.224398730E+03  1.224632698E+03  3.300000131E-01  0.00000E+00  9.000E+00
      21     1     1     2   511   512 -1.189832470E+01 -1.201276710E+00 -1.101981872E+02  1.108451788E+02  1.907348633E-06  0.00000E+00  9.000E+00
</event>
<event>
      5  10001  3.52971E+09  1.36447E+01 -1.00000E+00  1.81344E-01
      21    -1     0     0   515   512  0.000000000E+00  0.000000000E+00  2.970390807E+02  2.970390807E+02  0.000000000E+00  0.00000E+00  9.000E+00
      21    -1     0     0   513   516  0.000000000E+00  0.000000000E+00 -9.797199401E+00  9.797199401E+00  0.000000000E+00  0.00000E+00  9.000E+00
      21     1     1     2   515   516 -1.475239067E+01  1.950576598E-01  2.521115328E+00  1.496753488E+01  6.828569911E-07  0.00000E+00  9.000E+00
      21     1     1     2   511   512  4.293026554E+00 -8.957526613E+00  2.748464933E+02  2.750259301E+02  6.607249480E-06  0.00000E+00  9.000E+00
      21     1     1     2   513   511  1.045936411E+01  8.762468953E+00  9.874272675E+00  1.684281510E+01  2.064765462E-07  0.00000E+00  9.000E+00
</event>
<event>
      5  10001  3.52971E+09  1.12573E+01 -1.00000E+00  1.89989E-01
      -2    -1     0     0     0   514  0.000000000E+00  0.000000000E+00  3.960683477E+02  3.960683477E+02  0.000000000E+00  0.00000E+00  9.000E+00
      21    -1     0     0   514   515  0.000000000E+00  0.000000000E+00 -1.165756819E+00  1.165756819E+00  0.000000000E+00  0.00000E+00  9.000E+00
      -2     1     1     2     0   512  4.012853739E+00  1.005679106E+01  3.376417016E+02  3.378154372E+02  3.300000131E-01  0.00000E+00  9.000E+00
      21     1     1     2   516   515 -5.201817888E+00 -9.051892376E+00  5.686084479E+01  5.781134261E+01  1.348699152E-06  0.00000E+00  9.000E+00
      21     1     1     2   512   516  1.188964149E+00 -1.004898682E+00  4.000444740E-01  1.607324700E+00  3.006196171E-07  0.00000E+00  9.000E+00
</event>
<event>
      5  10001  3.52971E+09  4.28226E+00 -1.00000E+00  2.56674E-01
      -2    -1     0     0     0   511  0.000000000E+00  0.000000000E+00  6.182108919E+01  6.182108919E+01  0.000000000E+00  0.00000E+00  9.000E+00
      21    -1     0     0   511   513  0.000000000E+00  0.000000000E+00 -1.982363296E+01  1.982363296E+01  0.000000000E+00  0.00000E+00  9.000E+00
      -2     1     1     2     0   514 -4.353981160E+00  1.348139774E+01  5.769420294E+01  5.940904973E+01  3.300000131E-01  0.00000E+00  9.000E+00
      21     1     1     2   515   513  1.355952419E+00 -7.657996583E+00 -1.300773184E+01  1.515534910E+01  0.000000000E+00  0.00000E+00  9.000E+00
      21     1     1     2   514   515  2.998028740E+00 -5.823401154E+00 -2.689014867E+00  7.080323318E+00  1.837138534E-07  0.00000E+00  9.000E+00
</event>
<event>
      5  10001  3.52971E+09  7.14269E+00 -1.00000E+00  2.14317E-01
      21    -1     0     0   512   511  0.000000000E+00  0.000000000E+00  5.661180224E+01  5.661180224E+01  0.000000000E+00  0.00000E+00  9.000E+00
      -2    -1     0     0     0   512  0.000000000E+00  0.000000000E+00 -2.343596006E+01  2.343596006E+01  0.000000000E+00  0.00000E+00  9.000E+00
      21     1     1     2   516   513  4.951951729E+00  7.057615862E+00 -1.048786696E+01  1.357671245E+01  2.384185791E-07  0.00000E+00  9.000E+00
      21     1     1     2   513   511 -1.094272431E+01 -6.283946805E+00  5.347552893E+01  5.494418438E+01  0.000000000E+00  0.00000E+00  9.000E+00
      -2     1     1     2     0   516  5.990772584E+00 -7.736690563E-01 -9.811819796E+00  1.152686548E+01  3.300000131E-01  0.00000E+00  9.000E+00
</event>
<event>
      5  10001  3.52971E+09  3.04254E+00 -1.00000E+00  2.95014E-01
      21    -1     0     0   512   515  0.000000000E+00  0.000000000E+00  5.955966161E+01  5.955966161E+01  0.000000000E+00  0.00000E+00  9.000E+00
      -1    -1     0     0     0   514  0.000000000E+00  0.000000000E+00 -5.025328229E+00  5.025328229E+00  0.000000000E+00  0.00000E+00  9.000E+00
      -1     1     1     2     0   511  3.643060360E+00 -1.137681053E+01  7.476804861E+00  1.409663852E+01  3.300000131E-01  0.00000E+00  9.000E+00
      21     1     1     2   511   515 -6.676947797E+00  1.115192308E+01  2.457264657E+01  2.779859672E+01  5.840038640E-07  0.00000E+00  9.000E+00
      21     1     1     2   512   514  3.033887438E+00  2.248874482E-01  2.248488195E+01  2.268975460E+01  2.384185791E-07  0.00000E+00  9.000E+00
</event>
<event>
      5  10001  3.52971E+09  1.03570E+01 -1.00000E+00  1.94008E-01
      21    -1     0     0   513   511  0.000000000E+00  0.000000000E+00  7.703113678E+00  7.703113678E+00  0.000000000E+00  0.00000E+00  9.000E+00
      21    -1     0     0   517   516  0.000000000E+00  0.000000000E+00 -1.723996546E+01  1.723996546E+01  0.000000000E+00  0.00000E+00  9.000E+00
      21     1     1     2   513   516  4.964790513E+00 -6.447502051E+00  1.097347885E+00  8.211187485E+00  5.372690075E-08  0.00000E+00  9.000E+00
      21     1     1     2   517   515 -6.539928163E+00  5.842266326E-01 -3.783136124E+00  7.577869098E+00  1.032382731E-07  0.00000E+00  9.000E+00
      21     1     1     2   515   511  1.575137650E+00  5.863275418E+00 -6.851063542E+00  9.154022553E+00  2.064765462E-07  0.00000E+00  9.000E+00
</event>
<event>
      5  10001  3.52971E+09  1.10084E+01 -1.00000E+00  1.91050E-01
      21    -1     0     0   513   515  0.000000000E+00  0.000000000E+00  1.134151458E+02  1.134151458E+02  0.000000000E+00  0.00000E+00  9.000E+00
      21    -1     0     0   511   512  0.000000000E+00  0.000000000E+00 -6.491654718E+01  6.491654718E+01  0.000000000E+00  0.00000E+00  9.000E+00
      21     1     1     2   514   515 -3.293436444E+01  1.641562978E+01  8.332661891E+01  9.109045329E+01  0.000000000E+00  0.00000E+00  9.000E+00
      21     1     1     2   511   514  2.394181061E+01 -1.006593002E+01 -5.691618985E+01  6.256185667E+01  0.000000000E+00  0.00000E+00  9.000E+00
      21     1     1     2   513   512  8.992553826E+00 -6.349699760E+00  2.208816959E+01  2.467938304E+01  3.371747881E-07  0.00000E+00  9.000E+00
</event>
<event>
      5  10001  3.52971E+09  6.51076E+00 -1.00000E+00  2.20093E-01
       1    -1     0     0   512     0  0.000000000E+00  0.000000000E+00  2.283981179E+03  2.283981179E+03  0.000000000E+00  0.00000E+00  9.000E+00
      21    -1     0     0   511   512  0.000000000E+00  0.000000000E+00 -3.805780598E+01  3.805780598E+01  0.000000000E+00  0.00000E+00  9.000E+00
      21     1     1     2   516   513 -1.879577733E+00 -1.890951382E+01  5.053872511E+01  5.399319643E+01  7.136645101E-06  0.00000E+00  9.000E+00
       1     1     1     2   513     0 -1.586330860E+00  2.442108215E+01  2.231355871E+03  2.231490094E+03  3.300000131E-01  0.00000E+00  9.000E+00
      21     1     1     2   511   516  3.465908593E+00 -5.511568328E+00 -3.597122335E+01  3.655569473E+01  2.780414531E-06  0.00000E+00  9.000E+00
</event>
<event>
      5  10001  3.52971E+09  1.56095E+01 -1.00000E+00  1.75766E-01
       3    -1     0     0   512     0  0.000000000E+00  0.000000000E+00  1.729035982E+01  1.729035982E+01  0.000000000E+00  0.00000E+00  9.000E+00
      21    -1     0     0   513   512  0.000000000E+00  0.000000000E+00 -8.853844897E+00  8.853844897E+00  0.000000000E+00  0.00000E+00  9.000E+00
      21     1     1     2   513   514 -7.449192065E+00  2.190469919E+00  1.327861321E+00  7.877298812E+00  1.281846354E-07  0.00000E+00  9.000E+00
       3     1     1     2   515     0  2.812367887E+00  2.518504754E+00  1.026100965E+01  1.094488914E+01  5.000000000E-01  0.00000E+00  9.000E+00
      21     1     1     2   514   515  4.636824178E+00 -4.708974673E+00 -3.152356041E+00  7.322016767E+00  1.931411236E-07  0.00000E+00  9.000E+00
</event>
<event>
      5  10001  3.52971E+09  8.19471E+00 -1.00000E+00  2.06309E-01
      21    -1     0     0   511   514  0.000000000E+00  0.000000000E+00  5.638950369E-01  5.638950369E-01  0.000000000E+00  0.00000E+00  9.000E+00
      21    -1     0     0   516   511  0.000000000E+00  0.000000000E+00 -3.773097689E+02  3.773097689E+02  0.000000000E+00  0.00000E+00  9.000E+00
      21     1     1     2   516   513  4.999130166E+00  9.270202884E+00 -2.927641319E+02  2.929535200E+02  5.394796609E-06  0.00000E+00  9.000E+00
      21     1     1     2   513   512 -4.990385400E+00 -3.458315739E+00 -5.682569688E+01  5.714913577E+01  9.536743164E-07  0.00000E+00  9.000E+00
      21     1     1     2   512   514 -8.744766318E-03 -5.811887145E+00 -2.715604510E+01  2.777100816E+01  5.840038640E-07  0.00000E+00  9.000E+00
</event>
<event>
      5  10001  3.52971E+09  9.42002E+00 -1.00000E+00  1.98801E-01
      -1    -1     0     0     0   514  0.000000000E+00  0.000000000E+00  1.205917218E+00  1.205917218E+00  0.000000000E+00  0.00000E+00  9.000E+00
      21    -1     0     0   514   511  0.000000000E+00  0.000000000E+00 -1.977732471E+02  1.977732471E+02  0.000000000E+00  0.00000E+00  9.000E+00
      -1     1     1     2     0   512 -3.642733594E+00 -1.472013151E+01 -9.621477699E+01  9.740299785E+01  3.300000131E-01  0.00000E+00  9.000E+00
      21     1     1     2   512   513 -8.902122627E-01  2.356270833E+00 -1.388846213E+01  1.411502286E+01  3.371747881E-07  0.00000E+00  9.000E+00
      21     1     1     2   513   511  4.532945857E+00  1.236386067E+01 -8.646409080E+01  8.746114364E+01  9.536743164E-07  0.00000E+00  9.000E+00
</event>
<event>
      5  10001  3.52971E+09  9.49896E+00 -1.00000E+00  1.98369E-01
      -1    -1     0     0     0   513  0.000000000E+00  0.000000000E+00  5.092777335E+01  5.092777335E+01  0.000000000E+00  0.00000E+00  9.000E+00
       2    -1     0     0   513     0  0.000000000E+00  0.000000000E+00 -1.712685893E+03  1.712685893E+03  0.000000000E+00  0.00000E+00  9.000E+00
      -1     1     1     2     0   511  8.977983062E+00 -1.608204199E+01  4.906538353E+01  5.240951264E+01  3.300000131E-01  0.00000E+00  9.000E+00
       2     1     1     2   512     0 -3.389819745E+00  7.729536351E+00 -1.569923958E+03  1.569946680E+03  3.300000131E-01  0.00000E+00  9.000E+00
      21     1     1     2   511   512 -5.588163317E+00  8.352505641E+00 -1.408995447E+02  1.412574728E+02  1.907348633E-06  0.00000E+00  9.000E+00
</event>
<event>
      5  10001  3.52971E+09  4.77708E+00 -1.00000E+00  2.46526E-01
      21    -1     0     0   514   513  0.000000000E+00  0.000000000E+00  3.905416256E+01  3.905416256E+01  0.000000000E+00  0.00000E+00  9.000E+00
      21    -1     0     0   511   515  0.000000000E+00  0.000000000E+00 -4.363851695E+01  4.363851695E+01  0.000000000E+00  0.00000E+00  9.000E+00
      21     1     1     2   514   515  1.788392917E+01  2.282188634E+00 -9.701035061E+00  2.047323592E+01  3.153981341E-07  0.00000E+00  9.000E+00
      21     1     1     2   511   512 -1.951607055E+01 -6.771796985E+00 -2.459893556E+01  3.212229560E+01  3.371747881E-07  0.00000E+00  9.000E+00
      21     1     1     2   512   513  1.632141377E+00  4.489608352E+00  2.971561623E+01  3.009714798E+01  4.768371582E-07  0.00000E+00  9.000E+00
</event>
<event>
      5  10001  3.52971E+09  3.31724E+00 -1.00000E+00  2.84210E-01
      21    -1     0     0   514   511  0.000000000E+00  0.000000000E+00  8.312487561E+01  8.312487561E+01  0.000000000E+00  0.00000E+00  9.000E+00
      21    -1     0     0   517   513  0.000000000E+00  0.000000000E+00 -2.054696732E+01  2.054696732E+01  0.000000000E+00  0.00000E+00  9.000E+00
      21     1     1     2   516   513  4.136491744E-02  9.987130643E+00  2.517072173E+01  2.707969206E+01  4.768371582E-07  0.00000E+00  9.000E+00
      21     1     1     2   517   511  3.244933266E+00 -1.043918928E+01 -1.801411884E+01  2.107165732E+01  5.331201500E-07  0.00000E+00  9.000E+00
      21     1     1     2   514   516 -3.286298183E+00  4.520586328E-01  5.542130540E+01  5.552049355E+01  6.743495762E-07  0.00000E+00  9.000E+00
</event>
<event>
      5  10001  3.52971E+09  4.29757E+00 -1.00000E+00  2.56329E-01
      21    -1     0     0   515   511  0.000000000E+00  0.000000000E+00  3.330562418E+00  3.330562418E+00  0.000000000E+00  0.00000E+00  9.000E+00
      -2    -1     0     0     0   512  0.000000000E+00  0.000000000E+00 -1.818971603E+02  1.818971603E+02  0.000000000E+00  0.00000E+00  9.000E+00
      -2     1     1     2     0   511 -5.960641543E+00 -8.126884693E+00 -1.732114171E+02  1.735046957E+02  3.300000131E-01  0.00000E+00  9.000E+00
      21     1     1     2   513   512  6.125077504E-01  1.833065469E+00 -1.033293534E-01  1.935451295E+00  1.067248534E-07  0.00000E+00  9.000E+00
      21     1     1     2   515   513  5.348133792E+00  6.293819223E+00 -5.251851382E+00  9.787575717E+00  4.915124924E-07  0.00000E+00  9.000E+00
</event>
<event>
      5  10001  3.52971E+09  7.89858E+00 -1.00000E+00  2.08392E-01
      21    -1     0     0   514   516  0.000000000E+00  0.000000000E+00  3.657947014E+01  3.657947014E+01  0.000000000E+00  0.00000E+00  9.000E+00
      -1    -1     0     0     0   514  0.000000000E+00  0.000000000E+00 -2.787954053E+01  2.787954053E+01  0.000000000E+00  0.00000E+00  9.000E+00
      -1     1     1     2     0   511  4.930884922E-01 -5.696551624E+00 -1.449054258E+01  1.558135299E+01  3.300000131E-01  0.00000E+00  9.000E+00
      21     1     1     2   512   516  6.501282158E+00  7.984512804E+00  3.415454772E+01  3.567285024E+01  4.768371582E-07  0.00000E+00  9.000E+00
      21     1     1     2   511   512 -6.994370650E+00 -2.287961180E+00 -1.096407552E+01  1.320480743E+01  3.371747881E-07  0.00000E+00  9.000E+00
</event>
<event>
      5  10001  3.52971E+09  2.97378E+00 -1.00000E+00  2.98019E-01
      21    -1     0     0   513   512  0.000000000E+00  0.000000000E+00  4.537774375E+01  4.537774375E+01  0.000000000E+00  0.00000E+00  9.000E+00
       3    -1     0     0   511     0  0.000000000E+00  0.000000000E+00 -1.906026472E+02  1.906026472E+02  0.000000000E+00  0.00000E+00  9.000E+00
      21     1     1     2   513   515  4.714068741E+00  9.583102689E+00  4.238034090E+01  4.370528110E+01  0.000000000E+00  0.00000E+00  9.000E+00
      21     1     1     2   511   512 -1.837395547E+00 -1.033674920E+01 -9.544381249E+00  1.418871452E+01  3.371747881E-07  0.00000E+00  9.000E+00
       3     1     1     2   515     0 -2.876673194E+00  7.536465089E-01 -1.780608631E+02  1.780863954E+02  5.000000000E-01  0.00000E+00  9.000E+00
</event>
<event>
      5  10001  3.52971E+09  7.96147E+00 -1.00000E+00  2.07940E-01
       2    -1     0     0   511     0  0.000000000E+00  0.000000000E+00  2.201993800E+02  2.201993800E+02  0.000000000E+00  0.00000E+00  9.000E+00
      21    -1     0     0   514   516  0.000000000E+00  0.000000000E+00 -3.429889671E+00  3.429889671E+00  0.000000000E+00  0.00000E+00  9.000E+00
      21     1     1     2   511   516 -1.264390762E+01 -2.321193926E+01  9.249461591E+01  9.619727904E+01  0.000000000E+00  0.00000E+00  9.000E+00
       2     1     1     2   512     0  8.368831543E+00  1.336064221E+01  9.389584974E+01  9.521073259E+01  3.300000131E-01  0.00000E+00  9.000E+00
      21     1     1     2   514   512  4.275076075E+00  9.851297045E+00  3.037902472E+01  3.222125807E+01  4.768371582E-07  0.00000E+00  9.000E+00
</event>
<event>
      5  10001  3.52971E+09  1.03605E+01 -1.00000E+00  1.93991E-01
      21    -1     0     0   513   512  0.000000000E+00  0.000000000E+00  1.962472871E+02  1.962472871E+02  0.000000000E+00  0.00000E+00  9.000E+00
      21    -1     0     0   514   513  0.000000000E+00  0.000000000E+00 -5.721629017E+00  5.721629017E+00  0.000000000E+00  0.00000E+00  9.000E+00
      21     1     1     2   514   515  3.053593898E+01 -7.891870021E-01  5.668834262E+01  6.439436757E+01  0.000000000E+00  0.00000E+00  9.000E+00
      21     1     1     2   511   512 -1.320745891E+01  4.718528763E+00  5.505002723E+01  5.680851153E+01  0.000000000E+00  0.00000E+00  9.000E+00
      21     1     1     2   515   511 -1.732848007E+01 -3.929341761E+00  7.878728828E+01  8.076603706E+01  9.536743164E-07  0.00000E+00  9.000E+00
</event>
<event>
      5  10001  3.52971E+09  1.10184E+01 -1.00000E+00  1.91007E-01
      21    -1     0     0   512   511  0.000000000E+00  0.000000000E+00  6.172544631E+01  6.172544631E+01  0.000000000E+00  0.00000E+00  9.000E+00
      21    -1     0     0   517   516  0.000000000E+00  0.000000000E+00 -1.531297190E+02  1.531297190E+02  0.000000000E+00  0.00000E+00  9.000E+00
      21     1     1     2   517   514  6.222845982E+00 -1.378504966E+01 -1.448438182E+02  1.456313259E+02  3.814697266E-06  0.00000E+00  9.000E+00
      21     1     1     2   514   511 -8.502108202E+00  3.004983179E+00 -4.617139831E+00  1.013083156E+01  5.990192664E-07  0.00000E+00  9.000E+00
      21     1     1     2   512   516  2.279262220E+00  1.078006648E+01  5.805668533E+01  5.909300789E+01  1.348699152E-06  0.00000E+00  9.000E+00
</event>
<event>
      5  10001  3.52971E+09  1.03976E+01 -1.00000E+00  1.93815E-01
      -2    -1     0     0     0   511  0.000000000E+00  0.000000000E+00  2.966995639E+02  2.966995639E+02  0.000000000E+00  0.00000E+00  9.000E+00
       2    -1     0     0   511     0  0.000000000E+00  0.000000000E+00 -7.883592851E-01  7.883592851E-01  0.000000000E+00  0.00000E+00  9.000E+00
      21     1     1     2   513   512 -4.951960925E+00  4.904681250E+00  5.821138789E+01  5.862715664E+01  9.536743164E-07  0.00000E+00  9.000E+00
       2     1     1     2   512     0  8.607785274E+00 -8.480865903E+00  6.685358377E+01  6.793768922E+01  3.300000131E-01  0.00000E+00  9.000E+00
      -2     1     1     2     0   513 -3.655824348E+00  3.576184653E+00  1.708462329E+02  1.709230773E+02  3.300000131E-01  0.00000E+00  9.000E+00
</event>
<event>
      5  10001  3.52971E+09  7.54994E+00 -1.00000E+00  2.11008E-01
      21    -1     0     0   514   512  0.000000000E+00  0.000000000E+00  6.487675067E+01  6.487675067E+01  0.000000000E+00  0.00000E+00  9.000E+00
      21    -1     0     0   511   514  0.000000000E+00  0.000000000E+00 -2.368191900E+01  2.368191900E+01  0.000000000E+00  0.00000E+00  9.000E+00
      21     1     1     2   511   513 -1.725261122E+01 -8.285910714E+00 -1.632358826E+01  2.515488906E+01  6.743495762E-07  0.00000E+00  9.000E+00
      21     1     1     2   513   515  1.608544225E+01  1.325951164E+01  5.118217059E+01  5.526455182E+01  0.000000000E+00  0.00000E+00  9.000E+00
      21     1     1     2   515   512  1.167168961E+00 -4.973600924E+00  6.336249336E+00  8.139228783E+00  1.460009660E-07  0.00000E+00  9.000E+00
</event>
<event>
      5  10001  3.52971E+09  5.26753E+00 -1.00000E+00  2.34621E-01
      21    -1     0     0   514   511  0.000000000E+00  0.000000000E+00  1.575268261E+01  1.575268261E+01  0.000000000E+00  0.00000E+00  9.000E+00
       2    -1     0     0   511     0  0.000000000E+00  0.000000000E+00 -3.810283144E+01  3.810283144E+01  0.000000000E+00  0.00000E+00  9.000E+00
      21     1     1     2   513   515  2.978820765E+00 -1.261869016E+01  4.766729284E+00  1.381399372E+01  2.230201594E-07  0.00000E+00  9.000E+00
       2     1     1     2   515     0 -3.651921858E+00  7.394615126E+00 -3.188541410E+01  3.293638412E+01  3.300000131E-01  0.00000E+00  9.000E+00
      21     1     1     2   514   513  6.731010925E-01  5.224075031E+00  4.768535990E+00  7.105136205E+00  1.460009660E-07  0.00000E+00  9.000E+00
</event>
<event>
      5  10001  3.52971E+09  5.40359E+00 -1.00000E+00  2.32767E-01
      21    -1     0     0   512   515  0.000000000E+00  0.000000000E+00  2.954349209E+00  2.954349209E+00  0.000000000E+00  0.00000E+00  9.000E+00
      21    -1     0     0   511   513  0.000000000E+00  0.000000000E+00 -8.666047712E+01  8.666047712E+01  0.000000000E+00  0.00000E+00  9.000E+00
      21     1     1     2   512   513 -8.084225034E+00  1.275995130E+01 -3.351361109E+01  3.676048394E+01  6.743495762E-07  0.00000E+00  9.000E+00
      21     1     1     2   511   516  7.863992121E+00 -6.538309979E+00 -2.817934143E+01  2.997777765E+01  0.000000000E+00  0.00000E+00  9.000E+00
      21     1     1     2   516   515  2.202329125E-01 -6.221641320E+00 -2.201317539E+01  2.287656474E+01  2.384185791E-07  0.00000E+00  9.000E+00
</event>
<event>
      5  10001  3.52971E+09  6.61456E+00 -1.00000E+00  2.19084E-01
      21    -1     0     0   514   515  0.000000000E+00  0.000000000E+00  4.052387647E+00  4.052387647E+00  0.000000000E+00  0.00000E+00  9.000E+00
      -3    -1     0     0     0   514  0.000000000E+00  0.000000000E+00 -2.104574079E+02  2.104574079E+02  0.000000000E+00  0.00000E+00  9.000E+00
      -3     1     1     2     0   512 -1.041921532E+01  5.199705357E+00 -1.962586882E+02  1.966044753E+02  5.000000000E-01  0.00000E+00  9.000E+00
      21     1     1     2   512   511  7.814556616E+00  7.047553980E-01 -3.344953202E+00  8.529518580E+00  3.264680848E-07  0.00000E+00  9.000E+00
      21     1     1     2   511   515  2.604658702E+00 -5.904460755E+00 -6.801378789E+00  9.375801683E+00  1.884864366E-07  0.00000E+00  9.000E+00
</event>
<event>
      5  10001  3.52971E+09  1.25128E+01 -1.00000E+00  1.85133E-01
      21    -1     0     0   513   512  0.000000000E+00  0.000000000E+00  2.365349269E+01  2.365349269E+01  0.000000000E+00  0.00000E+00  9.000E+00
      21    -1     0     0   516   515  0.000000000E+00  0.000000000E+00 -2.542344407E+01  2.542344407E+01  0.000000000E+00  0.00000E+00  9.000E+00
      21     1     1     2   513   515  9.084796797E+00 -8.055870796E+00  1.978660378E+01  2.321508726E+01  0.000000000E+00  0.00000E+00  9.000E+00
      21     1     1     2   516   514 -5.143003440E+00  2.288750543E+00 -3.830277792E+00  6.808809836E+00  1.576990671E-07  0.00000E+00  9.000E+00
      21     1     1     2   514   512 -3.941793358E+00  5.767120254E+00 -1.772627737E+01  1.905303966E+01  4.129530925E-07  0.00000E+00  9.000E+00
</event>
<event>
      5  10001  3.52971E+09  6.53144E+00 -1.00000E+00  2.19890E-01
      -3    -1     0     0     0   511  0.000000000E+00  0.000000000E+00  5.300926408E+00  5.300926408E+00  0.000000000E+00  0.00000E+00  9.000E+00
      21    -1     0     0   511   512  0.000000000E+00  0.000000000E+00 -1.963005334E+02  1.963005334E+02  0.000000000E+00  0.00000E+00  9.000E+00
      -3     1     1     2     0   513  6.809366177E+00 -8.940142640E+00 -1.541443443E+00  1.135427964E+01  5.000000000E-01  0.00000E+00  9.000E+00
      21     1     1     2   515   512 -6.320447094E+00  2.919908628E+00 -1.612200892E+02  1.613703538E+02  2.697398305E-06  0.00000E+00  9.000E+00
      21     1     1     2   513   515 -4.889190830E-01  6.020234012E+00 -2.823807431E+01  2.887682635E+01  4.768371582E-07  0.00000E+00  9.000E+00
</event>
<event>
      5  10001  3.52971E+09  7.36696E+00 -1.00000E+00  2.12459E-01
      21    -1     0     0   512   513  0.000000000E+00  0.000000000E+00  3.143219128E+00  3.143219128E+00  0.000000000E+00  0.00000E+00  9.000E+00
      21    -1     0     0   511   516  0.000000000E+00  0.000000000E+00 -1.529513713E+02  1.529513713E+02  0.000000000E+00  0.00000E+00  9.000E+00
      21     1     1     2   514   516  6.824051421E-01  7.545529259E+00 -1.148138198E+02  1.150635211E+02  2.697398305E-06  0.00000E+00  9.000E+00
      21     1     1     2   511   513  4.189832900E+00 -1.307123635E+01 -2.603514025E+01  2.943196302E+01  3.371747881E-07  0.00000E+00  9.000E+00
      21     1     1     2   512   514 -4.872238042E+00  5.525707090E+00 -8.959192221E+00  1.159910633E+01  1.685873940E-07  0.00000E+00  9.000E+00
</event>
<event>
      5  10001  3.52971E+09  7.69401E+00 -1.00000E+00  2.09905E-01
      21    -1     0     0   515   511  0.000000000E+00  0.000000000E+00  2.574656070E+00  2.574656070E+00  0.000000000E+00  0.00000E+00  9.000E+00
       2    -1     0     0   513     0  0.000000000E+00  0.000000000E+00 -1.474645020E+03  1.474645020E+03  0.000000000E+00  0.00000E+00  9.000E+00
      21     1     1     2   512   511  1.657124641E+01 -3.325534960E+00 -2.653302426E+01  3.145896957E+01  1.617033478E-06  0.00000E+00  9.000E+00
       2     1     1     2   515     0 -9.879272695E+00 -4.710768710E-01 -1.285887648E+03  1.285925727E+03  3.300000131E-01  0.00000E+00  9.000E+00
      21     1     1     2   513   512 -6.691973715E+00  3.796611831E+00 -1.596496920E+02  1.598349803E+02  1.907348633E-06  0.00000E+00  9.000E+00
</event>
<event>
      5  10001  3.52971E+09  7.98136E+00 -1.00000E+00  2.07798E-01
      21    -1     0     0   514   513  0.000000000E+00  0.000000000E+00  1.008895392E+02  1.008895392E+02  0.000000000E+00  0.00000E+00  9.000E+00
      21    -1     0     0   511   515  0.000000000E+00  0.000000000E+00 -2.976146246E+02  2.976146246E+02  0.000000000E+00  0.00000E+00  9.000E+00
      21     1     1     2   514   512  2.808267571E-01 -7.795537940E+00  9.926719716E+01  9.957321782E+01  1.907348633E-06  0.00000E+00  9.000E+00
      21     1     1     2   511   513  5.471935082E+00  1.332797727E+01 -3.544265768E+01  3.825910395E+01  1.261592536E-06  0.00000E+00  9.000E+00
      21     1     1     2   512   515 -5.752761839E+00 -5.532439327E+00 -2.605496249E+02  2.606718420E+02  3.814697266E-06  0.00000E+00  9.000E+00
</event>
<event>
      5  10001  3.52971E+09  1.18846E+01 -1.00000E+00  1.87466E-01
      21    -1     0     0   511   512  0.000000000E+00  0.000000000E+00  4.458077988E+00  4.458077988E+00  0.000000000E+00  0.00000E+00  9.000E+00
       2    -1     0     0   512     0  0.000000000E+00  0.000000000E+00 -1.490211402E+02  1.490211402E+02  0.000000000E+00  0.00000E+00  9.000E+00
      21     1     1     2   513   516  5.000159418E+00 -1.086174046E+01 -1.076878838E+01  1.609179304E+01  2.665600750E-07  0.00000E+00  9.000E+00
       2     1     1     2   516     0 -9.515448440E+00  5.459372745E+00 -1.274138472E+02  1.278856750E+02  3.300000131E-01  0.00000E+00  9.000E+00
      21     1     1     2   511   513  4.515289022E+00  5.402367715E+00 -6.380426605E+00  9.501750131E+00  1.884864366E-07  0.00000E+00  9.000E+00
</event>
<event>
      5  10001  3.52971E+09  5.18840E+00 -1.00000E+00  2.35736E-01
       2    -1     0     0   515     0  0.000000000E+00  0.000000000E+00  1.293744895E+03  1.293744895E+03  0.000000000E+00  0.00000E+00  9.000E+00
      21    -1     0     0   511   512  0.000000000E+00  0.000000000E+00 -6.606668449E+00  6.606668449E+00  0.000000000E+00  0.00000E+00  9.000E+00
      21     1     1     2   515   514  1.389043433E+01  1.288785679E+00  7.801608099E+02  7.802855211E+02  1.868812365E-05  0.00000E+00  9.000E+00
       2     1     1     2   511     0 -8.744929661E+00 -6.233154131E-01  5.124499091E+02  5.125250048E+02  3.300000131E-01  0.00000E+00  9.000E+00
      21     1     1     2   514   512 -5.145504671E+00 -6.654702658E-01 -5.472492626E+00  7.541037365E+00  3.722308873E-07  0.00000E+00  9.000E+00
</event>
<event>
      5  10001  3.52971E+09  6.24956E+00 -1.00000E+00  2.22752E-01
      21    -1     0     0   513   511  0.000000000E+00  0.000000000E+00  5.180476119E+01  5.180476119E+01  0.000000000E+00  0.00000E+00  9.000E+00
      21    -1     0     0   514   516  0.000000000E+00  0.000000000E+00 -2.261056996E+00  2.261056996E+00  0.000000000E+00  0.00000E+00  9.000E+00
      21     1     1     2   513   516  9.296162671E+00  6.173786023E-01  2.537936191E+01  2.703538066E+01  4.768371582E-07  0.00000E+00  9.000E+00
      21     1     1     2   514   515 -5.651452937E+00 -2.336121922E+00  6.549681039E+00  8.960731423E+00  0.000000000E+00  0.00000E+00  9.000E+00
      21     1     1     2   515   511 -3.644709733E+00  1.718743319E+00  1.761466124E+01  1.806970609E+01  2.384185791E-07  0.00000E+00  9.000E+00
</event>
<event>
      5  10001  3.52971E+09  1.13076E+01 -1.00000E+00  1.89779E-01
      21    -1     0     0   512   515  0.000000000E+00  0.000000000E+00  8.334807187E+01  8.334807187E+01  0.000000000E+00  0.00000E+00  9.000E+00
      -3    -1     0     0     0   512  0.000000000E+00  0.000000000E+00 -3.413736314E+02  3.413736314E+02  0.000000000E+00  0.00000E+00  9.000E+00
      21     1     1     2   514   515  8.378748036E+00 -6.008285972E+00  4.387059074E+01  4.506585904E+01  6.743495762E-07  0.00000E+00  9.000E+00
      21     1     1     2   511   514 -5.890384272E+00  1.703862103E+01  3.669034219E+01  4.088022069E+01  6.743495762E-07  0.00000E+00  9.000E+00
      -3     1     1     2     0   511 -2.488363764E+00 -1.103033506E+01 -3.385864924E+02  3.387756235E+02  5.000000000E-01  0.00000E+00  9.000E+00
</event>
<event>
      5  10001  3.52971E+09  2.42033E+01 -1.00000E+00  1.59809E-01
      21    -1     0     0   513   511  0.000000000E+00  0.000000000E+00  2.911441807E+01  2.911441807E+01  0.000000000E+00  0.00000E+00  9.000E+00
      21    -1     0     0   515   516  0.000000000E+00  0.000000000E+00 -6.950057722E+01  6.950057722E+01  0.000000000E+00  0.00000E+00  9.000E+00
      21     1     1     2   513   516 -8.084853580E+00  7.458967040E+00  2.642487750E+01  2.862298373E+01  4.768371582E-07  0.00000E+00  9.000E+00
      21     1     1     2   515   512  1.007825803E+01  1.315442472E+00 -2.130850418E+01  2.360834650E+01  3.371747881E-07  0.00000E+00  9.000E+00
      21     1     1     2   512   511 -1.993404449E+00 -8.774409513E+00 -4.550253247E+01  4.638366506E+01  6.743495762E-07  0.00000E+00  9.000E+00
</event>
<event>
      5  10001  3.52971E+09  9.45553E+00 -1.00000E+00  1.98606E-01
       2    -1     0     0   513     0  0.000000000E+00  0.000000000E+00  1.086445205E+03  1.086445205E+03  0.000000000E+00  0.00000E+00  9.000E+00
      21    -1     0     0   514   513  0.000000000E+00  0.000000000E+00 -1.070869794E+00  1.070869794E+00  0.000000000E+00  0.00000E+00  9.000E+00
      21     1     1     2   514   512 -5.016162437E+00  1.536990824E+01  6.703939670E+01  6.896141439E+01  3.693564745E-06  0.00000E+00  9.000E+00
       2     1     1     2   515     0  8.159987427E+00 -1.423417249E+01  6.594612731E+02  6.596654279E+02  3.300000131E-01  0.00000E+00  9.000E+00
      21     1     1     2   512   515 -3.143824989E+00 -1.135735744E+00  3.588736657E+02  3.588892329E+02  6.607249480E-06  0.00000E+00  9.000E+00
</event>
<event>
      5  10001  3.52971E+09  1.11989E+01 -1.00000E+00  1.90235E-01
      -3    -1     0     0     0   511  0.000000000E+00  0.000000000E+00  3.478246975E-01  3.478246975E-01  0.000000000E+00  0.00000E+00  9.000E+00
      21    -1     0     0   516   513  0.000000000E+00  0.000000000E+00 -3.898900456E+02  3.898900456E+02  0.000000000E+00  0.00000E+00  9.000E+00
      21     1     1     2   514   513  4.977053094E+00 -2.154189009E+00 -1.567556483E+02  1.568494338E+02  1.907348633E-06  0.00000E+00  9.000E+00
      21     1     1     2   516   511 -3.465283201E+00  8.756206747E+00 -1.631298660E+02  1.634014459E+02  3.303624740E-06  0.00000E+00  9.000E+00
      -3     1     1     2     0   514 -1.511769893E+00 -6.602017738E+00 -6.965670651E+01  6.998699057E+01  5.000000000E-01  0.00000E+00  9.000E+00
</event>
<event>
      5  10001  3.52971E+09  7.22099E+00 -1.00000E+00  2.13658E-01
       2    -1     0     0   513     0  0.000000000E+00  0.000000000E+00  6.843026497E+00  6.843026497E+00  0.000000000E+00  0.00000E+00  9.000E+00
       4    -1     0     0   512     0  0.000000000E+00  0.000000000E+00 -8.064451246E+01  8.064451246E+01  0.000000000E+00  0.00000E+00  9.000E+00
      21     1     1     2   512   511 -4.957573374E+00  3.634271913E+00  1.865192746E+00  6.423738014E+00  1.849185474E-07  0.00000E+00  9.000E+00
       4     1     1     2   513     0  6.395514797E+00 -1.172772568E+01 -6.948513616E+01  7.077341525E+01  1.500000000E+00  0.00000E+00  9.000E+00
       2     1     1     2   511     0 -1.437941423E+00  8.093453764E+00 -6.181542544E+00  1.029038569E+01  3.300000131E-01  0.00000E+00  9.000E+00
</event>
<event>
      5  10001  3.52971E+09  4.27486E+00 -1.00000E+00  2.56842E-01
      21    -1     0     0   514   511  0.000000000E+00  0.000000000E+00  3.064206229E+01  3.064206229E+01  0.000000000E+00  0.00000E+00  9.000E+00
      21    -1     0     0   515   513  0.000000000E+00  0.000000000E+00 -3.902854956E+01  3.902854956E+01  0.000000000E+00  0.00000E+00  9.000E+00
      21     1     1     2   515   512  2.004343245E+00  9.632739045E+00 -3.370053180E+01  3.510744788E+01  0.000000000E+00  0.00000E+00  9.000E+00
      21     1     1     2   512   511 -1.446858525E+00 -1.387109522E+01  2.665489038E+01  3.008294971E+01  7.539457465E-07  0.00000E+00  9.000E+00
      21     1     1     2   514   513 -5.574847202E-01  4.238356171E+00 -1.340845842E+00  4.480214260E+00  2.980232239E-08  0.00000E+00  9.000E+00
</event>
<event>
      5  10001  3.52971E+09  3.62765E+00 -1.00000E+00  2.73878E-01
      -2    -1     0     0     0   516  0.000000000E+00  0.000000000E+00  2.241193207E+00  2.241193207E+00  0.000000000E+00  0.00000E+00  9.000E+00
       1    -1     0     0   516     0  0.000000000E+00  0.000000000E+00 -9.655241672E+02  9.655241672E+02  0.000000000E+00  0.00000E+00  9.000E+00
      -2     1     1     2     0   511 -1.182374231E+01  7.231810129E-01 -1.515466696E+01  1.923789759E+01  3.300000131E-01  0.00000E+00  9.000E+00
      21     1     1     2   511   513  1.035597952E+01  2.594163626E+00 -1.455951136E+02  1.459860031E+02  2.697398305E-06  0.00000E+00  9.000E+00
       1     1     1     2   513     0  1.467762786E+00 -3.317344639E+00 -8.025331935E+02  8.025414598E+02  3.300000131E-01  0.00000E+00  9.000E+00
</event>
<event>
      5  10001  3.52971E+09  1.54580E+01 -1.00000E+00  1.76158E-01
      21    -1     0     0   512   513  0.000000000E+00  0.000000000E+00  9.863891148E+01  9.863891148E+01  0.000000000E+00  0.00000E+00  9.000E+00
      21    -1     0     0   514   512  0.000000000E+00  0.000000000E+00 -7.423087491E+00  7.423087491E+00  0.000000000E+00  0.00000E+00  9.000E+00
      21     1     1     2   515   513 -5.641980351E+00 -5.977713863E+00  6.911881745E+01  6.960586133E+01  9.536743164E-07  0.00000E+00  9.000E+00
      21     1     1     2   511   515  1.282900292E+01  6.741457131E+00  1.431188145E+00  1.456292758E+01  9.424321831E-08  0.00000E+00  9.000E+00
      21     1     1     2   514   511 -7.187022567E+00 -7.637432672E-01  2.066581840E+01  2.189321007E+01  2.384185791E-07  0.00000E+00  9.000E+00
</event>
<event>
      5  10001  3.52971E+09  5.85863E+00 -1.00000E+00  2.27086E-01
       2    -1     0     0   512     0  0.000000000E+00  0.000000000E+00  7.569669961E+00  7.569669961E+00  0.000000000E+00  0.00000E+00  9.000E+00
      21    -1     0     0   511   512  0.000000000E+00  0.000000000E+00 -3.130821546E+02  3.130821546E+02  0.000000000E+00  0.00000E+00  9.000E+00
      21     1     1     2   513   516 -1.833933639E+00 -1.504226262E+00 -1.616143003E+02  1.616317050E+02  0.000000000E+00  0.00000E+00  9.000E+00
       2     1     1     2   516     0  9.218552876E+00  3.840746620E+00  4.113666058E+00  1.080574848E+01  3.300000131E-01  0.00000E+00  9.000E+00
      21     1     1     2   511   513 -7.384619238E+00 -2.336520358E+00 -1.480118504E+02  1.482143711E+02  1.907348633E-06  0.00000E+00  9.000E+00
</event>
<event>
      5  10001  3.52971E+09  6.34674E+00 -1.00000E+00  2.21742E-01
      -3    -1     0     0     0   513  0.000000000E+00  0.000000000E+00  7.403183317E+01  7.403183317E+01  0.000000000E+00  0.00000E+00  9.000E+00
      21    -1     0     0   513   512  0.000000000E+00  0.000000000E+00 -6.555133148E+01  6.555133148E+01  0.000000000E+00  0.00000E+00  9.000E+00
      -3     1     1     2     0   514  5.826279729E+00  2.778020323E+00  6.214983632E+01  6.248611915E+01  5.000000000E-01  0.00000E+00  9.000E+00
      21     1     1     2   511   512 -1.079663391E+01 -7.815592059E+00 -6.355602732E+01  6.493858169E+01  9.536743164E-07  0.00000E+00  9.000E+00
      21     1     1     2   514   511  4.970354177E+00  5.037571736E+00  9.886692702E+00  1.215846381E+01  2.384185791E-07  0.00000E+00  9.000E+00
</event>
<event>
      5  10001  3.52971E+09  1.17725E+01 -1.00000E+00  1.87902E-01
      21    -1     0     0   515   511  0.000000000E+00  0.000000000E+00  2.438119362E+01  2.438119362E+01  0.000000000E+00  0.00000E+00  9.000E+00
      21    -1     0     0   513   516  0.000000000E+00  0.000000000E+00 -1.665492257E+02  1.665492257E+02  0.000000000E+00  0.00000E+00  9.000E+00
      21     1     1     2   515   516 -1.657557138E+01 -1.781745185E+01  1.606120193E+01  2.915773249E+01  1.039242493E-06  0.00000E+00  9.000E+00
      21     1     1     2   512   511  1.113184019E+01  2.331339343E+01 -1.268456309E+02  1.294497828E+02  0.000000000E+00  0.00000E+00  9.000E+00
      21     1     1     2   513   512  5.443731190E+00 -5.495941585E+00 -3.138360303E+01  3.232290399E+01  3.371747881E-07  0.00000E+00  9.000E+00
</event>
<event>
      5  10001  3.52971E+09  9.37121E+00 -1.00000E+00  1.99070E-01
      21    -1     0     0   513   515  0.000000000E+00  0.000000000E+00  2.612671380E+02  2.612671380E+02  0.000000000E+00  0.00000E+00  9.000E+00
      -3    -1     0     0     0   514  0.000000000E+00  0.000000000E+00 -1.086991349E+01  1.086991349E+01  0.000000000E+00  0.00000E+00  9.000E+00
      -3     1     1     2     0   511  1.162020738E+01 -2.058393008E+01  3.076563431E+01  3.880079448E+01  5.000000000E-01  0.00000E+00  9.000E+00
      21     1     1     2   513   514 -1.820634686E+01  1.391800311E+01  1.271558048E+01  2.620816406E+01  3.769728732E-07  0.00000E+00  9.000E+00
      21     1     1     2   511   515  6.586139475E+00  6.665926969E+00  2.069160097E+02  2.071280929E+02  2.697398305E-06  0.00000E+00  9.000E+00
</event>
<event>
      5  10001  3.52971E+09  4.96716E+00 -1.00000E+00  2.43106E-01
      21    -1     0     0   512   511  0.000000000E+00  0.000000000E+00  5.217591238E+01  5.217591238E+01  0.000000000E+00  0.00000E+00  9.000E+00
      21    -1     0     0   515   512  0.000000000E+00  0.000000000E+00 -4.263863823E+01  4.263863823E+01  0.000000000E+00  0.00000E+00  9.000E+00
      21     1     1     2   515   516  2.138676647E+00 -1.620673550E+01 -3.823490212E+01  4.158292863E+01  0.000000000E+00  0.00000E+00  9.000E+00
      21     1     1     2   516   513 -2.880137046E+00  1.240206080E+01  4.768382404E+01  4.935436532E+01  9.536743164E-07  0.00000E+00  9.000E+00
      21     1     1     2   513   511  7.414603990E-01  3.804674699E+00  8.835223478E-02  3.877256660E+00  1.096629860E-07  0.00000E+00  9.000E+00
</event>
<event>
      5  10001  3.52971E+09  2.94002E+00 -1.00000E+00  2.99544E-01
       2    -1     0     0   514     0  0.000000000E+00  0.000000000E+00  1.049182351E+03  1.049182351E+03  0.000000000E+00  0.00000E+00  9.000E+00
      21    -1     0     0   513   512  0.000000000E+00  0.000000000E+00 -2.985398483E-01  2.985398483E-01  0.000000000E+00  0.00000E+00  9.000E+00
      21     1     1     2   515   512 -1.048609955E+00  9.272669333E+00  1.077029935E+02  1.081065067E+02  2.336015456E-06  0.00000E+00  9.000E+00
       2     1     1     2   513     0  4.045893507E+00 -1.152081826E+01  8.765186917E+02  8.766038012E+02  3.300000131E-01  0.00000E+00  9.000E+00
      21     1     1     2   514   515 -2.997283552E+00  2.248148930E+00  6.466212605E+01  6.477058304E+01  0.000000000E+00  0.00000E+00  9.000E+00
</event>
<event>
      5  10001  3.52971E+09  7.99059E+00 -1.00000E+00  2.07732E-01
      21    -1     0     0   511   512  0.000000000E+00  0.000000000E+00  1.002165963E+01  1.002165963E+01  0.000000000E+00  0.00000E+00  9.000E+00
      21    -1     0     0   513   515  0.000000000E+00  0.000000000E+00 -4.525737250E+01  4.525737250E+01  0.000000000E+00  0.00000E+00  9.000E+00
      21     1     1     2   511   515  1.774803668E+00  6.646200914E+00  5.449784899E+00  8.776221857E+00  3.576278687E-07  0.00000E+00  9.000E+00
      21     1     1     2   516   512  7.049584484E-01 -1.424227270E+01 -2.939041278E+01  3.266704244E+01  3.371747881E-07  0.00000E+00  9.000E+00
      21     1     1     2   513   516 -2.479762116E+00  7.596071785E+00 -1.129508498E+01  1.383576783E+01  2.920019320E-07  0.00000E+00  9.000E+00
</event>
<event>
      5  10001  3.52971E+09  1.07958E+01 -1.00000E+00  1.91986E-01
       2    -1     0     0   513     0  0.000000000E+00  0.000000000E+00  3.205291224E+02  3.205291224E+02  0.000000000E+00  0.00000E+00  9.000E+00
      21    -1     0     0   514   516  0.000000000E+00  0.000000000E+00 -3.069208807E+00  3.069208807E+00  0.000000000E+00  0.00000E+00  9.000E+00
      21     1     1     2   511   516 -6.033374051E+00  7.668638923E+00  6.271208674E+00  1.159903805E+01  3.576278687E-07  0.00000E+00  9.000E+00
       2     1     1     2   514     0 -3.740589649E-01 -1.037994794E+01  2.719543124E+02  2.721527883E+02  3.300000131E-01  0.00000E+00  9.000E+00
      21     1     1     2   513   511  6.407433016E+00  2.711309014E+00  3.923439255E+01  3.984650491E+01  6.743495762E-07  0.00000E+00  9.000E+00
</event>
<event>
      5  10001  3.52971E+09  7.05961E+00 -1.00000E+00  2.15029E-01
      21    -1     0     0   514   515  0.000000000E+00  0.000000000E+00  1.521348394E+02  1.521348394E+02  0.000000000E+00  0.00000E+00  9.000E+00
       2    -1     0     0   511     0  0.000000000E+00  0.000000000E+00 -6.321405278E+02  6.321405278E+02  0.000000000E+00  0.00000E+00  9.000E+00
      21     1     1     2   514   512  4.106263956E-01 -1.303488735E+01 -4.432286477E+00  1.377396332E+01  1.558863739E-06  0.00000E+00  9.000E+00
       2     1     1     2   512     0 -6.610189677E+00  9.657990772E+00 -6.228978672E+02  6.230078918E+02  3.300000131E-01  0.00000E+00  9.000E+00
      21     1     1     2   511   515  6.199563282E+00  3.376896574E+00  1.473244653E+02  1.474935120E+02  3.814697266E-06  0.00000E+00  9.000E+00
</event>
<event>
      5  10001  3.52971E+09  4.09771E+00 -1.00000E+00  2.61016E-01
       4    -1     0     0   511     0  0.000000000E+00  0.000000000E+00  4.396050928E+01  4.396050928E+01  0.000000000E+00  0.00000E+00  9.000E+00
      21    -1     0     0   512   516  0.000000000E+00  0.000000000E+00 -3.588586473E+01  3.588586473E+01  0.000000000E+00  0.00000E+00  9.000E+00
      21     1     1     2   511   516  3.463224429E+00 -1.275589634E+01 -9.443252217E+00  1.624443989E+01  3.769728732E-07  0.00000E+00  9.000E+00
       4     1     1     2   513     0  6.327551837E-01  1.271669394E+01  3.935158101E+01  4.138733637E+01  1.500000000E+00  0.00000E+00  9.000E+00
      21     1     1     2   512   513 -4.095979612E+00  3.920239812E-02 -2.183368424E+01  2.221459775E+01  4.129530925E-07  0.00000E+00  9.000E+00
</event>
<event>
      5  10001  3.52971E+09  1.17787E+01 -1.00000E+00  1.87878E-01
      21    -1     0     0   514   513  0.000000000E+00  0.000000000E+00  2.030622708E+00  2.030622708E+00  0.000000000E+00  0.00000E+00  9.000E+00
      21    -1     0     0   512   514  0.000000000E+00  0.000000000E+00 -5.974632640E+02  5.974632640E+02  0.000000000E+00  0.00000E+00  9.000E+00
      21     1     1     2   512   515 -5.204171565E+00  9.051812518E+00 -5.186202906E+02  5.187253845E+02  1.078959322E-05  0.00000E+00  9.000E+00
      21     1     1     2   515   511  4.534505694E+00 -9.219811747E-01 -1.285671804E+00  4.802576721E+00  3.325330258E-07  0.00000E+00  9.000E+00
      21     1     1     2   511   513  6.696658707E-01 -8.129831343E+00 -7.552667890E+01  7.596592549E+01  1.348699152E-06  0.00000E+00  9.000E+00
</event>
<event>
      5  10001  3.52971E+09  4.90934E+00 -1.00000E+00  2.44122E-01
       2    -1     0     0   516     0  0.000000000E+00  0.000000000E+00  2.832341807E+02  2.832341807E+02  0.000000000E+00  0.00000E+00  9.000E+00
      21    -1     0     0   512   513  0.000000000E+00  0.000000000E+00 -4.208914780E+01  4.208914780E+01  0.000000000E+00  0.00000E+00  9.000E+00
      21     1     1     2   516   513  6.921618601E+00 -9.695963459E+00 -3.887616135E+01  4.066050212E+01  0.000000000E+00  0.00000E+00  9.000E+00
      21     1     1     2   512   515 -4.229537085E+00  1.380135508E+01  2.037558771E+01  2.497060192E+01  3.371747881E-07  0.00000E+00  9.000E+00
       2     1     1     2   515     0 -2.692081516E+00 -4.105391617E+00  2.596456066E+02  2.596922245E+02  3.300000131E-01  0.00000E+00  9.000E+00
</event>
<event>
      5  10001  3.52971E+09  8.79403E+00 -1.00000E+00  2.02433E-01
       2    -1     0     0   512     0  0.000000000E+00  0.000000000E+00  4.669977105E+01  4.669977105E+01  0.000000000E+00  0.00000E+00  9.000E+00
      21    -1     0     0   511   514  0.000000000E+00  0.000000000E+00 -5.670663939E+01  5.670663939E+01  0.000000000E+00  0.00000E+00  9.000E+00
      21     1     1     2   512   514  1.751661331E+01 -9.606692644E+00 -4.830367578E+01  5.227203248E+01  0.000000000E+00  0.00000E+00  9.000E+00
       2     1     1     2   513     0 -2.265910118E+01  9.990272789E+00  3.871715741E+01  4.596050037E+01  3.300000131E-01  0.00000E+00  9.000E+00
      21     1     1     2   511   513  5.142487866E+00 -3.835801447E-01 -4.203499705E-01  5.173877587E+00  1.013388523E-07  0.00000E+00  9.000E+00
</event>
<event>
      5  10001  3.52971E+09  3.75876E+00 -1.00000E+00  2.69994E-01
      21    -1     0     0   515   514  0.000000000E+00  0.000000000E+00  8.493393164E+00  8.493393164E+00  0.000000000E+00  0.00000E+00  9.000E+00
      -3    -1     0     0     0   515  0.000000000E+00  0.000000000E+00 -1.072704951E+02  1.072704951E+02  0.000000000E+00  0.00000E+00  9.000E+00
      -3     1     1     2     0   512 -1.346959191E+01 -2.517204881E+00 -8.534519673E+01  8.643968320E+01  5.000000000E-01  0.00000E+00  9.000E+00
      21     1     1     2   512   511  1.063375577E+01  5.061466777E-02 -1.948576953E+01  2.219852558E+01  3.371747881E-07  0.00000E+00  9.000E+00
      21     1     1     2   511   514  2.835836140E+00  2.466590213E+00  6.053864362E+00  7.125679448E+00  1.192092896E-07  0.00000E+00  9.000E+00
</event>
<event>
      5  10001  3.52971E+09  5.83378E+00 -1.00000E+00  2.27377E-01
      -1    -1     0     0     0   513  0.000000000E+00  0.000000000E+00  2.913832540E+00  2.913832540E+00  0.000000000E+00  0.00000E+00  9.000E+00
      21    -1     0     0   513   514  0.000000000E+00  0.000000000E+00 -1.699409089E+02  1.699409089E+02  0.000000000E+00  0.00000E+00  9.000E+00
      21     1     1     2   512   511  2.762239669E+00  1.047345480E+00 -1.096801365E+00  3.151170224E+00  1.504943511E-07  0.00000E+00  9.000E+00
      21     1     1     2   511   514 -1.195454125E+01  1.945342444E-01 -1.545788489E+02  1.550405412E+02  2.697398305E-06  0.00000E+00  9.000E+00
      -1     1     1     2     0   512  9.192301585E+00 -1.241879725E+00 -1.135142608E+01  1.466302997E+01  3.300000131E-01  0.00000E+00  9.000E+00
</event>
<event>
      5  10001  3.52971E+09  2.18957E+01 -1.00000E+00  1.63185E-01
       2    -1     0     0   511     0  0.000000000E+00  0.000000000E+00  2.026954357E+01  2.026954357E+01  0.000000000E+00  0.00000E+00  9.000E+00
      21    -1     0     0   515   514  0.000000000E+00  0.000000000E+00 -1.337833145E+01  1.337833145E+01  0.000000000E+00  0.00000E+00  9.000E+00
      21     1     1     2   511   513  4.569645481E+00 -2.599705116E+00  6.531038550E+00  8.384186964E+00  1.460009660E-07  0.00000E+00  9.000E+00
       2     1     1     2   515     0 -9.631965064E+00  3.242200750E+00  1.005977911E+01  1.430365941E+01  3.300000131E-01  0.00000E+00  9.000E+00
      21     1     1     2   513   514  5.062319583E+00 -6.424956339E-01 -9.699605541E+00  1.096002864E+01  2.665600750E-07  0.00000E+00  9.000E+00
</event>
<event>
      5  10001  3.52971E+09  7.57288E+00 -1.00000E+00  2.10830E-01
      21    -1     0     0   512   514  0.000000000E+00  0.000000000E+00  2.251053097E+00  2.251053097E+00  0.000000000E+00  0.00000E+00  9.000E+00
      -2    -1     0     0     0   512  0.000000000E+00  0.000000000E+00 -8.379140387E+02  8.379140387E+02  0.000000000E+00  0.00000E+00  9.000E+00
      -2     1     1     2     0   511  2.967552578E+00  1.039393784E+01 -7.768254526E+02  7.769007228E+02  3.300000131E-01  0.00000E+00  9.000E+00
      21     1     1     2   515   514 -3.724616841E+00 -4.991504217E+00 -2.577186075E+00  6.740161202E+00  1.241723696E-06  0.00000E+00  9.000E+00
      21     1     1     2   511   515  7.570642623E-01 -5.402433619E+00 -5.626034691E+01  5.652420782E+01  6.743495762E-07  0.00000E+00  9.000E+00
</event>
<event>
      5  10001  3.52971E+09  2.20082E+00 -1.00000E+00  3.44716E-01
      -4    -1     0     0     0   514  0.000000000E+00  0.000000000E+00  3.941177187E+01  3.941177187E+01  0.000000000E+00  0.00000E+00  9.000E+00
      -1    -1     0     0     0   512  0.000000000E+00  0.000000000E+00 -1.387828763E+01  1.387828763E+01  0.000000000E+00  0.00000E+00  9.000E+00
      -4     1     1     2     0   512  7.380732705E+00  8.765510143E+00  2.656310203E+01  2.896822005E+01  1.500000000E+00  0.00000E+00  9.000E+00
      -1     1     1     2     0   513 -8.740545882E+00 -7.038826814E+00 -1.003123632E+01  1.505579049E+01  3.300000131E-01  0.00000E+00  9.000E+00
      21     1     1     2   513   514  1.359813177E+00 -1.726683329E+00  9.001618526E+00  9.266048957E+00  0.000000000E+00  0.00000E+00  9.000E+00
</event>
<event>
      5  10001  3.52971E+09  5.15127E+00 -1.00000E+00  2.36270E-01
      21    -1     0     0   516   512  0.000000000E+00  0.000000000E+00  1.257167308E+01  1.257167308E+01  0.000000000E+00  0.00000E+00  9.000E+00
      21    -1     0     0   515   514  0.000000000E+00  0.000000000E+00 -4.577239741E+01  4.577239741E+01  0.000000000E+00  0.00000E+00  9.000E+00
      21     1     1     2   511   514 -3.348895968E+00  7.605365196E+00 -3.647802479E+01  3.741260452E+01  6.743495762E-07  0.00000E+00  9.000E+00
      21     1     1     2   515   512  6.515003785E+00 -1.166877498E+01 -2.050346178E+00  1.352070646E+01  2.580956828E-07  0.00000E+00  9.000E+00
      21     1     1     2   516   511 -3.166107817E+00  4.063409782E+00  5.327646640E+00  7.410759508E+00  1.032382731E-07  0.00000E+00  9.000E+00
</event>
<event>
      5  10001  3.52971E+09  4.56366E+00 -1.00000E+00  2.50663E-01
       1    -1     0     0   511     0  0.000000000E+00  0.000000000E+00  7.345256113E+01  7.345256113E+01  0.000000000E+00  0.00000E+00  9.000E+00
      21    -1     0     0   516   512  0.000000000E+00  0.000000000E+00 -5.765099211E+01  5.765099211E+01  0.000000000E+00  0.00000E+00  9.000E+00
      21     1     1     2   516   513  6.265399092E+00  7.604425966E+00  8.729692997E-01  9.891642708E+00  3.648502990E-07  0.00000E+00  9.000E+00
       1     1     1     2   513     0 -1.075987371E+01 -8.395861805E+00  6.728550570E+01  6.865648953E+01  3.300000131E-01  0.00000E+00  9.000E+00
      21     1     1     2   511   512  4.494474616E+00  7.914358391E-01 -5.235690598E+01  5.255542100E+01  6.743495762E-07  0.00000E+00  9.000E+00
</event>
<event>
      5  10001  3.52971E+09  1.74054E+01 -1.00000E+00  1.71504E-01
      21    -1     0     0   512   515  0.000000000E+00  0.000000000E+00  5.972330909E+01  5.972330909E+01  0.000000000E+00  0.00000E+00  9.000E+00
      21    -1     0     0   514   512  0.000000000E+00  0.000000000E+00 -6.710654908E+00  6.710654908E+00  0.000000000E+00  0.00000E+00  9.000E+00
      -4     1     1     2     0   515  1.609640823E+00 -9.830072098E+00  3.414901081E+01  3.560373857E+01  1.500000000E+00  0.00000E+00  9.000E+00
      21     1     1     2   514   513  3.792679918E+00  1.535412101E+01  1.588174561E+01  2.241346239E+01  2.920019320E-07  0.00000E+00  9.000E+00
       4     1     1     2   513     0 -5.402320741E+00 -5.524048910E+00  2.981897773E+00  8.416763041E+00  1.500000000E+00  0.00000E+00  9.000E+00
</event>
<event>
      5  10001  3.52971E+09  1.14019E+01 -1.00000E+00  1.89389E-01
      21    -1     0     0   513   514  0.000000000E+00  0.000000000E+00  4.022087724E+02  4.022087724E+02  0.000000000E+00  0.00000E+00  9.000E+00
      -1    -1     0     0     0   511  0.000000000E+00  0.000000000E+00 -3.520708099E-01  3.520708099E-01  0.000000000E+00  0.00000E+00  9.000E+00
      -1     1     1     2     0   514 -9.077553800E+00 -3.328186132E+00  1.722588874E+02  1.725303219E+02  3.300000131E-01  0.00000E+00  9.000E+00
      21     1     1     2   513   512  3.931927257E+00 -5.193709443E-01  2.348105527E+01  2.381364640E+01  5.840038640E-07  0.00000E+00  9.000E+00
      21     1     1     2   512   511  5.145626543E+00  3.847557076E+00  2.061167590E+02  2.062168749E+02  4.672030912E-06  0.00000E+00  9.000E+00
</event>
<event>
      5  10001  3.52971E+09  2.52386E+01 -1.00000E+00  1.58439E-01
      21    -1     0     0   512   515  0.000000000E+00  0.000000000E+00  2.642517210E+01  2.642517210E+01  0.000000000E+00  0.00000E+00  9.000E+00
       2    -1     0     0   513     0  0.000000000E+00  0.000000000E+00 -9.599114624E+00  9.599114624E+00  0.000000000E+00  0.00000E+00  9.000E+00
      21     1     1     2   514   515 -5.275182501E+00  2.445580390E+00  1.735001093E+01  1.829839591E+01  3.371747881E-07  0.00000E+00  9.000E+00
       2     1     1     2   512     0 -4.803316698E+00 -4.965497851E+00  1.653663072E+00  7.111365676E+00  3.300000131E-01  0.00000E+00  9.000E+00
      21     1     1     2   513   514  1.007849920E+01  2.519917461E+00 -2.177616522E+00  1.061452513E+01  1.074538015E-07  0.00000E+00  9.000E+00
</event>
<event>
      5  10001  3.52971E+09  1.37310E+01 -1.00000E+00  1.81074E-01
       1    -1     0     0   513     0  0.000000000E+00  0.000000000E+00  3.273733331E+02  3.273733331E+02  0.000000000E+00  0.00000E+00  9.000E+00
      21    -1     0     0   511   512  0.000000000E+00  0.000000000E+00 -2.587782838E+00  2.587782838E+00  0.000000000E+00  0.00000E+00  9.000E+00
      21     1     1     2   513   515 -1.541725223E+01 -1.238156828E+01  1.937414384E+02  1.947478879E+02  0.000000000E+00  0.00000E+00  9.000E+00
       1     1     1     2   511     0  1.670123533E+01  5.225294112E+00  3.746151568E+01  4.134862775E+01  3.300000131E-01  0.00000E+00  9.000E+00
      21     1     1     2   515   512 -1.283983107E+00  7.156274172E+00  9.358259622E+01  9.386460029E+01  2.336015456E-06  0.00000E+00  9.000E+00
</event>
<event>
      5  10001  3.52971E+09  4.81061E+00 -1.00000E+00  2.45906E-01
      21    -1     0     0   514   511  0.000000000E+00  0.000000000E+00  1.177211764E+02  1.177211764E+02  0.000000000E+00  0.00000E+00  9.000E+00
      21    -1     0     0   513   516  0.000000000E+00  0.000000000E+00 -3.214753814E+01  3.214753814E+01  0.000000000E+00  0.00000E+00  9.000E+00
      21     1     1     2   514   516  1.517314187E+01 -9.233124741E+00 -2.732543850E+01  3.259071057E+01  0.000000000E+00  0.00000E+00  9.000E+00
      21     1     1     2   515   511 -1.221937357E+01  5.436122631E+00  1.114561104E+02  1.122556416E+02  1.907348633E-06  0.00000E+00  9.000E+00
      21     1     1     2   513   515 -2.953768298E+00  3.797002110E+00  1.442966360E+00  5.022362402E+00  5.161913656E-08  0.00000E+00  9.000E+00
</event>
<event>
      5  10001  3.52971E+09  1.03781E+01 -1.00000E+00  1.93908E-01
      21    -1     0     0   512   515  0.000000000E+00  0.000000000E+00  2.247752872E+00  2.247752872E+00  0.000000000E+00  0.00000E+00  9.000E+00
      21    -1     0     0   513   517  0.000000000E+00  0.000000000E+00 -1.007071073E+02  1.007071073E+02  0.000000000E+00  0.00000E+00  9.000E+00
      21     1     1     2   512   517  1.035309619E+01 -1.270312916E+00 -2.109629929E+01  2.353410587E+01  4.129530925E-07  0.00000E+00  9.000E+00
      21     1     1     2   513   511 -7.053936983E+00  1.047420350E+00 -7.504364461E+01  7.538172002E+01  9.536743164E-07  0.00000E+00  9.000E+00
      21     1     1     2   511   515 -3.299159207E+00  2.228925667E-01 -2.319410485E+00  4.039034237E+00  1.548574097E-07  0.00000E+00  9.000E+00
</event>
<event>
      5  10001  3.52971E+09  9.71686E+00 -1.00000E+00  1.97206E-01
      21    -1     0     0   511   514  0.000000000E+00  0.000000000E+00  6.662272681E+00  6.662272681E+00  0.000000000E+00  0.00000E+00  9.000E+00
      21    -1     0     0   514   512  0.000000000E+00  0.000000000E+00 -1.999413537E+01  1.999413537E+01  0.000000000E+00  0.00000E+00  9.000E+00
      -4     1     1     2     0   513 -2.829417616E+00  4.158794571E+00 -8.469469365E-01  5.316812527E+00  1.500000000E+00  0.00000E+00  9.000E+00
       4     1     1     2   511     0  8.963643039E+00 -3.674931777E+00 -3.418152130E+00  1.038199326E+01  1.500000000E+00  0.00000E+00  9.000E+00
      21     1     1     2   513   512 -6.134225423E+00 -4.838627935E-01 -9.066763623E+00  1.095760226E+01  2.665600750E-07  0.00000E+00  9.000E+00
</event>
<event>
      5  10001  3.52971E+09  1.15269E+01 -1.00000E+00  1.88879E-01
       1    -1     0     0   512     0  0.000000000E+00  0.000000000E+00  6.386306667E+02  6.386306667E+02  0.000000000E+00  0.00000E+00  9.000E+00
      21    -1     0     0   515   511  0.000000000E+00  0.000000000E+00 -1.472377682E+00  1.472377682E+00  0.000000000E+00  0.00000E+00  9.000E+00
      21     1     1     2   514   511 -1.105014547E+00  4.494471349E+00  1.472205854E+01  1.543244432E+01  3.769728732E-07  0.00000E+00  9.000E+00
       1     1     1     2   515     0 -5.664846780E+00 -1.157035721E+01  6.006090240E+02  6.007472616E+02  3.300000131E-01  0.00000E+00  9.000E+00
      21     1     1     2   512   514  6.769861327E+00  7.075885862E+00  2.182720650E+01  2.392333853E+01  1.192092896E-06  0.00000E+00  9.000E+00
</event>
<event>
      5  10001  3.52971E+09  1.82128E+00 -1.00000E+00  3.83153E-01
      -2    -1     0     0     0   513  0.000000000E+00  0.000000000E+00  1.652587525E+01  1.652587525E+01  0.000000000E+00  0.00000E+00  9.000E+00
      21    -1     0     0   513   511  0.000000000E+00  0.000000000E+00 -2.264924256E+01  2.264924256E+01  0.000000000E+00  0.00000E+00  9.000E+00
      -2     1     1     2     0   514  2.231312733E+00 -1.326625546E+01  9.524200058E+00  1.648610255E+01  3.300000131E-01  0.00000E+00  9.000E+00
      21     1     1     2   514   512 -1.479388688E+00  1.160759340E+01 -6.547986958E+00  1.340898760E+01  8.429369702E-08  0.00000E+00  9.000E+00
      21     1     1     2   512   511 -7.519240445E-01  1.658662064E+00 -9.099580412E+00  9.280027655E+00  1.192092896E-07  0.00000E+00  9.000E+00
</event>
<event>
      5  10001  3.52971E+09  6.87675E+00 -1.00000E+00  2.16644E-01
      21    -1     0     0   515   514  0.000000000E+00  0.000000000E+00  1.520242932E+00  1.520242932E+00  0.000000000E+00  0.00000E+00  9.000E+00
      21    -1     0     0   513   515  0.000000000E+00  0.000000000E+00 -3.682135609E+02  3.682135609E+02  0.000000000E+00  0.00000E+00  9.000E+00
      21     1     1     2   513   511  7.566923194E+00 -5.805957759E+00 -3.011739531E+02  3.013249367E+02  0.000000000E+00  0.00000E+00  9.000E+00
      21     1     1     2   511   516 -5.911938272E+00  7.413554264E+00 -1.442513224E+01  1.726256762E+01  3.769728732E-07  0.00000E+00  9.000E+00
      21     1     1     2   516   514 -1.654984923E+00 -1.607596505E+00 -5.109423264E+01  5.114629948E+01  6.743495762E-07  0.00000E+00  9.000E+00
</event>
<event>
      5  10001  3.52971E+09  7.74791E+00 -1.00000E+00  2.09500E-01
       2    -1     0     0   512     0  0.000000000E+00  0.000000000E+00  3.629765790E+02  3.629765790E+02  0.000000000E+00  0.00000E+00  9.000E+00
      21    -1     0     0   513   514  0.000000000E+00  0.000000000E+00 -2.268148474E+00  2.268148474E+00  0.000000000E+00  0.00000E+00  9.000E+00
      21     1     1     2   512   514 -9.295555860E+00  1.230859462E+01  2.945296001E+01  3.324734145E+01  0.000000000E+00  0.00000E+00  9.000E+00
      21     1     1     2   513   511  1.681517351E+00 -1.087662750E+01  9.853259796E+01  9.914535484E+01  0.000000000E+00  0.00000E+00  9.000E+00
       2     1     1     2   511     0  7.614038509E+00 -1.431967119E+00  2.327228725E+02  2.328520312E+02  3.300000131E-01  0.00000E+00  9.000E+00
</event>
<event>
      5  10001  3.52971E+09  4.45020E+00 -1.00000E+00  2.53005E-01
      -1    -1     0     0     0   515  0.000000000E+00  0.000000000E+00  1.926149167E+02  1.926149167E+02  0.000000000E+00  0.00000E+00  9.000E+00
      -2    -1     0     0     0   512  0.000000000E+00  0.000000000E+00 -2.485016750E+01  2.485016750E+01  0.000000000E+00  0.00000E+00  9.000E+00
      -2     1     1     2     0   513  6.305759565E+00  6.545943448E+00 -2.276592907E+01  2.451547278E+01  3.300000131E-01  0.00000E+00  9.000E+00
      -1     1     1     2     0   512 -9.582707255E+00 -8.802937486E+00  1.874913136E+02  1.879426018E+02  3.300000131E-01  0.00000E+00  9.000E+00
      21     1     1     2   513   515  3.276947690E+00  2.256994038E+00  3.039364720E+00  5.007009702E+00  7.300048300E-08  0.00000E+00  9.000E+00
</event>
<event>
      5  10001  3.52971E+09  6.53124E+00 -1.00000E+00  2.19892E-01
      21    -1     0     0   511   515  0.000000000E+00  0.000000000E+00  5.619979953E+01  5.619979953E+01  0.000000000E+00  0.00000E+00  9.000E+00
      21    -1     0     0   513   514  0.000000000E+00  0.000000000E+00 -9.294796172E+00  9.294796172E+00  0.000000000E+00  0.00000E+00  9.000E+00
      21     1     1     2   511   514  3.504661281E+00  1.061818442E+01  5.073121279E+01  5.194886372E+01  0.000000000E+00  0.00000E+00  9.000E+00
      21     1     1     2   513   512  1.386102146E+00 -4.899394707E+00 -3.157319711E+00  5.991161441E+00  2.308477966E-07  0.00000E+00  9.000E+00
      21     1     1     2   512   515 -4.890763427E+00 -5.718789711E+00 -6.688897140E-01  7.554570544E+00  2.882710415E-07  0.00000E+00  9.000E+00
</event>
<event>
      5  10001  3.52971E+09  1.58378E+01 -1.00000E+00  1.75185E-01
       1    -1     0     0   513     0  0.000000000E+00  0.000000000E+00  4.645684332E+02  4.645684332E+02  0.000000000E+00  0.00000E+00  9.000E+00
      21    -1     0     0   512   511  0.000000000E+00  0.000000000E+00 -7.186562337E+00  7.186562337E+00  0.000000000E+00  0.00000E+00  9.000E+00
      21     1     1     2   513   516 -4.560794135E+00  1.709030399E+01  9.918331788E+00  2.027936486E+01  7.996802250E-07  0.00000E+00  9.000E+00
       1     1     1     2   512     0  8.846382502E+00 -3.233713611E+01  4.007563979E+02  4.021563729E+02  3.300000131E-01  0.00000E+00  9.000E+00
      21     1     1     2   516   511 -4.285588367E+00  1.524683213E+01  4.670714116E+01  4.931925783E+01  6.743495762E-07  0.00000E+00  9.000E+00
</event>
<event>
      5  10001  3.52971E+09  7.89635E+00 -1.00000E+00  2.08409E-01
       2    -1     0     0   511     0  0.000000000E+00  0.000000000E+00  6.401879996E+02  6.401879996E+02  0.000000000E+00  0.00000E+00  9.000E+00
      21    -1     0     0   515   511  0.000000000E+00  0.000000000E+00 -1.284243867E+01  1.284243867E+01  0.000000000E+00  0.00000E+00  9.000E+00
      21     1     1     2   515   512  1.614584736E+01  1.001339923E+01 -1.795367849E+00  1.908349802E+01  1.018524616E-06  0.00000E+00  9.000E+00
       2     1     1     2   514     0 -1.449440026E+01 -6.288911647E+00  6.296435621E+02  6.298418549E+02  3.300000131E-01  0.00000E+00  9.000E+00
      21     1     1     2   512   514 -1.651447095E+00 -3.724487587E+00 -5.026332969E-01  4.105085325E+00  1.618680431E-07  0.00000E+00  9.000E+00
</event>
<event>
      5  10001  3.52971E+09  1.72212E+01 -1.00000E+00  1.71911E-01
      21    -1     0     0   513   512  0.000000000E+00  0.000000000E+00  1.177202391E+01  1.177202391E+01  0.000000000E+00  0.00000E+00  9.000E+00
      21    -1     0     0   516   513  0.000000000E+00  0.000000000E+00 -2.998155587E+01  2.998155587E+01  0.000000000E+00  0.00000E+00  9.000E+00
      21     1     1     2   516   515  3.437590930E+00 -1.021596046E+01 -2.316333767E+01  2.554844597E+01  4.768371582E-07  0.00000E+00  9.000E+00
      21     1     1     2   515   511 -3.950182070E+00 -1.059942319E+00  1.912853259E+00  4.515132744E+00  7.300048300E-08  0.00000E+00  9.000E+00
      21     1     1     2   511   512  5.125911404E-01  1.127590278E+01  3.040952458E+00  1.169000107E+01  4.214684851E-08  0.00000E+00  9.000E+00
</event>
<event>
      5  10001  3.52971E+09  5.86553E+00 -1.00000E+00  2.27005E-01
      21    -1     0     0   511   512  0.000000000E+00  0.000000000E+00  3.687822839E+01  3.687822839E+01  0.000000000E+00  0.00000E+00  9.000E+00
      21    -1     0     0   513   514  0.000000000E+00  0.000000000E+00 -2.276916475E+01  2.276916475E+01  0.000000000E+00  0.00000E+00  9.000E+00
      -1     1     1     2     0   512  1.127651052E+01  4.374050062E+00 -1.663087692E+01  2.056664705E+01  3.300000131E-01  0.00000E+00  9.000E+00
      21     1     1     2   511   514 -8.616961520E+00  8.526774880E-01  3.193375958E+01  3.308691713E+01  6.743495762E-07  0.00000E+00  9.000E+00
       1     1     1     2   513     0 -2.659549003E+00 -5.226727550E+00 -1.193819012E+00  5.993828962E+00  3.300000131E-01  0.00000E+00  9.000E+00
</event>
<event>
      5  10001  3.52971E+09  6.95716E+00 -1.00000E+00  2.15926E-01
      21    -1     0     0   515   514  0.000000000E+00  0.000000000E+00  3.529513090E+00  3.529513090E+00  0.000000000E+00  0.00000E+00  9.000E+00
      21    -1     0     0   513   515  0.000000000E+00  0.000000000E+00 -4.449557253E+02  4.449557253E+02  0.000000000E+00  0.00000E+00  9.000E+00
      21     1     1     2   516   514  1.717127712E+00 -1.524407270E+01 -1.423449729E+01  2.092728346E+01  8.429369702E-07  0.00000E+00  9.000E+00
      21     1     1     2   511   516 -5.341765649E+00  9.258099947E+00 -2.638266084E+02  2.640430385E+02  5.394796609E-06  0.00000E+00  9.000E+00
      21     1     1     2   513   511  3.624637936E+00  5.985972751E+00 -1.633651066E+02  1.635149165E+02  1.907348633E-06  0.00000E+00  9.000E+00
</event>
<event>
      5  10001  3.52971E+09  7.96126E+00 -1.00000E+00  2.07941E-01
      21    -1     0     0   512   511  0.000000000E+00  0.000000000E+00  6.252014976E+02  6.252014976E+02  0.000000000E+00  0.00000E+00  9.000E+00
      21    -1     0     0   513   517  0.000000000E+00  0.000000000E+00 -2.291490649E-01  2.291490649E-01  0.000000000E+00  0.00000E+00  9.000E+00
      21     1     1     2   512   517  7.569976879E+00 -5.959120986E+00  4.573708689E+02  4.574723242E+02  0.000000000E+00  0.00000E+00  9.000E+00
      21     1     1     2   514   511 -2.204595618E+00 -2.806869859E-01  1.907321162E+01  1.920225061E+01  2.384185791E-07  0.00000E+00  9.000E+00
      21     1     1     2   513   514 -5.365381261E+00  6.239807972E+00  1.485282680E+02  1.487560718E+02  2.697398305E-06  0.00000E+00  9.000E+00
</event>
<event>
      5  10001  3.52971E+09  4.87150E+00 -1.00000E+00  2.44798E-01
      21    -1     0     0   515   513  0.000000000E+00  0.000000000E+00  1.202055462E+03  1.202055462E+03  0.000000000E+00  0.00000E+00  9.000E+00
      -1    -1     0     0     0   512  0.000000000E+00  0.000000000E+00 -1.027625395E+01  1.027625395E+01  0.000000000E+00  0.00000E+00  9.000E+00
      -1     1     1     2     0   511 -8.501967243E+00  9.224206722E+00 -2.162862218E+00  1.273406100E+01  3.300000131E-01  0.00000E+00  9.000E+00
      21     1     1     2   511   513  6.002742565E+00 -1.340574752E+01  1.194592622E+03  1.194682920E+03  1.525878906E-05  0.00000E+00  9.000E+00
      21     1     1     2   515   512  2.499224679E+00  4.181540795E+00 -6.505511805E-01  4.914735421E+00  2.242612383E-07  0.00000E+00  9.000E+00
</event>
<event>
      5  10001  3.52971E+09  5.39846E+00 -1.00000E+00  2.32835E-01
      21    -1     0     0   514   513  0.000000000E+00  0.000000000E+00  2.270342704E+00  2.270342704E+00  0.000000000E+00  0.00000E+00  9.000E+00
      21    -1     0     0   511   512  0.000000000E+00  0.000000000E+00 -3.548330996E+02  3.548330996E+02  0.000000000E+00  0.00000E+00  9.000E+00
      -4     1     1     2     0   512  5.563027485E+00  7.037010615E+00 -1.178892132E+01  1.488944120E+01  1.500000000E+00  0.00000E+00  9.000E+00
       4     1     1     2   514     0 -4.633885582E+00 -1.234166826E+01 -6.272006404E+01  6.410808142E+01  1.500000000E+00  0.00000E+00  9.000E+00
      21     1     1     2   511   513 -9.291419034E-01  5.304657643E+00 -2.780537716E+02  2.781059197E+02  6.607249480E-06  0.00000E+00  9.000E+00
</event>
<event>
      5  10001  3.52971E+09  9.14571E+00 -1.00000E+00  2.00345E-01
      21    -1     0     0   515   512  0.000000000E+00  0.000000000E+00  3.301213830E+02  3.301213830E+02  0.000000000E+00  0.00000E+00  9.000E+00
      21    -1     0     0   511   515  0.000000000E+00  0.000000000E+00 -1.187069255E+01  1.187069255E+01  0.000000000E+00  0.00000E+00  9.000E+00
      21     1     1     2   511   513  1.417580883E+01  6.950544209E+00 -6.252193513E+00  1.698097595E+01  8.554875907E-07  0.00000E+00  9.000E+00
      21     1     1     2   513   514 -2.766957230E+00 -2.261506007E+00  1.625068175E+02  1.625461048E+02  3.303624740E-06  0.00000E+00  9.000E+00
      21     1     1     2   514   512 -1.140885160E+01 -4.689038202E+00  1.619960665E+02  1.624649948E+02  1.907348633E-06  0.00000E+00  9.000E+00
</event>
<event>
      5  10001  3.52971E+09  6.50855E+00 -1.00000E+00  2.20115E-01
      21    -1     0     0   511   512  0.000000000E+00  0.000000000E+00  1.136902258E+02  1.136902258E+02  0.000000000E+00  0.00000E+00  9.000E+00
       1    -1     0     0   513     0  0.000000000E+00  0.000000000E+00 -3.056998052E+02  3.056998052E+02  0.000000000E+00  0.00000E+00  9.000E+00
      21     1     1     2   513   512  1.612946192E+00  8.665870703E+00 -1.008970981E+01  1.339780409E+01  1.278377210E-06  0.00000E+00  9.000E+00
       1     1     1     2   514     0 -1.922378093E+00 -1.516705272E+01 -2.936624139E+02  2.940602953E+02  3.300000131E-01  0.00000E+00  9.000E+00
      21     1     1     2   511   514  3.094319009E-01  6.501182021E+00  1.117425443E+02  1.119319316E+02  1.907348633E-06  0.00000E+00  9.000E+00
</event>
<event>
      5  10001  3.52971E+09  9.51477E+00 -1.00000E+00  1.98283E-01
       1    -1     0     0   515     0  0.000000000E+00  0.000000000E+00  1.011793194E+01  1.011793194E+01  0.000000000E+00  0.00000E+00  9.000E+00
      21    -1     0     0   514   512  0.000000000E+00  0.000000000E+00 -1.723504359E+02  1.723504359E+02  0.000000000E+00  0.00000E+00  9.000E+00
      21     1     1     2   514   511 -2.130410950E-02  1.818841590E+01 -1.414684953E+02  1.426329348E+02  2.697398305E-06  0.00000E+00  9.000E+00
       1     1     1     2   511     0  2.004762849E+00 -8.882855851E+00  6.345995266E+00  1.110426756E+01  3.300000131E-01  0.00000E+00  9.000E+00
      21     1     1     2   515   512 -1.983458739E+00 -9.305560051E+00 -2.711000392E+01  2.873116547E+01  4.768371582E-07  0.00000E+00  9.000E+00
</event>
<event>
      5  10001  3.52971E+09  2.56204E+01 -1.00000E+00  1.57955E-01
      21    -1     0     0   513   511  0.000000000E+00  0.000000000E+00  1.808180355E+01  1.808180355E+01  0.000000000E+00  0.00000E+00  9.000E+00
      21    -1     0     0   514   516  0.000000000E+00  0.000000000E+00 -2.522616843E+01  2.522616843E+01  0.000000000E+00  0.00000E+00  9.000E+00
      21     1     1     2   513   516  6.063349614E+00 -5.754199843E+00  1.148389351E+01  1.420404290E+01  2.384185791E-07  0.00000E+00  9.000E+00
      21     1     1     2   514   517 -5.531457817E+00  8.711174014E+00 -8.549749288E-02  1.031934533E+01  2.280143196E-07  0.00000E+00  9.000E+00
      21     1     1     2   517   511 -5.318917972E-01 -2.956974170E+00 -1.854276089E+01  1.878458375E+01  3.371747881E-07  0.00000E+00  9.000E+00
</event>
<event>
      5  10001  3.52971E+09  1.96330E+01 -1.00000E+00  1.67032E-01
       4    -1     0     0   513     0  0.000000000E+00  0.000000000E+00  3.486236546E+00  3.486236546E+00  0.000000000E+00  0.00000E+00  9.000E+00
      21    -1     0     0   515   513  0.000000000E+00  0.000000000E+00 -7.182858803E+01  7.182858803E+01  0.000000000E+00  0.00000E+00  9.000E+00
      21     1     1     2   515   512  3.283543602E+00  7.686997645E+00 -1.872644227E+01  2.050734580E+01  3.371747881E-07  0.00000E+00  9.000E+00
      21     1     1     2   512   514 -7.962064570E+00 -4.933257761E+00 -4.806013715E+01  4.896435731E+01  6.743495762E-07  0.00000E+00  9.000E+00
       4     1     1     2   514     0  4.678520968E+00 -2.753739885E+00 -1.555772067E+00  5.843121471E+00  1.500000000E+00  0.00000E+00  9.000E+00
</event>
<event>
      5  10001  3.52971E+09  2.10941E+00 -1.00000E+00  3.52596E-01
      -2    -1     0     0     0   511  0.000000000E+00  0.000000000E+00  2.682942179E+01  2.682942179E+01  0.000000000E+00  0.00000E+00  9.000E+00
      21    -1     0     0   514   513  0.000000000E+00  0.000000000E+00 -9.578454949E+00  9.578454949E+00  0.000000000E+00  0.00000E+00  9.000E+00
      -2     1     1     2     0   512 -6.904182079E+00 -2.845433136E-01  1.985429535E+01  2.102500033E+01  3.300000131E-01  0.00000E+00  9.000E+00
      21     1     1     2   514   511  9.856592610E+00  5.017238605E-01 -5.451461724E+00  1.127486495E+01  1.460009660E-07  0.00000E+00  9.000E+00
      21     1     1     2   512   513 -2.952410531E+00 -2.171805469E-01  2.848133221E+00  4.108011463E+00  4.214684851E-08  0.00000E+00  9.000E+00
</event>
<event>
      5  10001  3.52971E+09  1.48611E+01 -1.00000E+00  1.77761E-01
       2    -1     0     0   512     0  0.000000000E+00  0.000000000E+00  3.696515934E+01  3.696515934E+01  0.000000000E+00  0.00000E+00  9.000E+00
      21    -1     0     0   511   513  0.000000000E+00  0.000000000E+00 -1.640836167E+02  1.640836167E+02  0.000000000E+00  0.00000E+00  9.000E+00
      21     1     1     2   512   513  1.345419762E+01 -7.033051964E+00  2.401997815E+01  2.841546417E+01  6.743495762E-07  0.00000E+00  9.000E+00
       2     1     1     2   515     0 -1.626623620E+00  1.603060203E+01  4.144672454E+00  1.664071260E+01  3.300000131E-01  0.00000E+00  9.000E+00
      21     1     1     2   511   515 -1.182757400E+01 -8.997550068E+00 -1.552831080E+02  1.559925993E+02  2.697398305E-06  0.00000E+00  9.000E+00
</event>
<event>
      5  10001  3.52971E+09  3.16465E+00 -1.00000E+00  2.89990E-01
      21    -1     0     0   514   513  0.000000000E+00  0.000000000E+00  1.768299530E+02  1.768299530E+02  0.000000000E+00  0.00000E+00  9.000E+00
      21    -1     0     0   511   514  0.000000000E+00  0.000000000E+00 -7.217957521E+00  7.217957521E+00  0.000000000E+00  0.00000E+00  9.000E+00
      21     1     1     2   511   516 -3.719839941E+00 -2.682487529E+01  2.554043610E+01  3.722532767E+01  1.215700987E-06  0.00000E+00  9.000E+00
      21     1     1     2   512   513  8.222764887E-01  2.347801495E+01  1.286879630E+02  1.308146977E+02  2.697398305E-06  0.00000E+00  9.000E+00
      21     1     1     2   516   512  2.897563452E+00  3.346860344E+00  1.538359638E+01  1.600788511E+01  2.920019320E-07  0.00000E+00  9.000E+00
</event>
<event>
      5  10001  3.52971E+09  1.54029E+01 -1.00000E+00  1.76302E-01
      21    -1     0     0   515   512  0.000000000E+00  0.000000000E+00  5.810963917E+02  5.810963917E+02  0.000000000E+00  0.00000E+00  9.000E+00
      21    -1     0     0   511   517  0.000000000E+00  0.000000000E+00 -8.980316875E-01  8.980316875E-01  0.000000000E+00  0.00000E+00  9.000E+00
      21     1     1     2   515   517  1.124085859E+01 -2.020241080E+00  3.562649171E+02  3.564479337E+02  5.394796609E-06  0.00000E+00  9.000E+00
      21     1     1     2   511   513 -1.158950082E+01 -4.520603043E+00  5.122489674E+01  5.271377834E+01  9.536743164E-07  0.00000E+00  9.000E+00
      21     1     1     2   513   512  3.486422331E-01  6.540844123E+00  1.727085462E+02  1.728327113E+02  2.697398305E-06  0.00000E+00  9.000E+00
</event>
<event>
      5  10001  3.52971E+09  4.66428E+00 -1.00000E+00  2.48671E-01
      21    -1     0     0   514   511  0.000000000E+00  0.000000000E+00  4.840832572E+00  4.840832572E+00  0.000000000E+00  0.00000E+00  9.000E+00
       2    -1     0     0   516     0  0.000000000E+00  0.000000000E+00 -1.033824685E+03  1.033824685E+03  0.000000000E+00  0.00000E+00  9.000E+00
      21     1     1     2   514   512 -4.919595040E+00  1.507743827E+01 -2.101835989E+02  2.107811111E+02  2.697398305E-06  0.00000E+00  9.000E+00
      21     1     1     2   516   511  5.367331883E+00 -1.043472598E+01 -3.054499952E+00  1.212525166E+01  3.397987560E-07  0.00000E+00  9.000E+00
       2     1     1     2   512     0 -4.477368424E-01 -4.642712288E+00 -8.157457541E+02  8.157591553E+02  3.300000131E-01  0.00000E+00  9.000E+00
</event>
<event>
      5  10001  3.52971E+09  2.35794E+00 -1.00000E+00  3.32682E-01
      21    -1     0     0   513   516  0.000000000E+00  0.000000000E+00  2.644002462E+01  2.644002462E+01  0.000000000E+00  0.00000E+00  9.000E+00
      21    -1     0     0   512   515  0.000000000E+00  0.000000000E+00 -3.522281121E+01  3.522281121E+01  0.000000000E+00  0.00000E+00  9.000E+00
      21     1     1     2   513   515  1.009230372E+01  1.144426424E+00 -3.253533165E+01  3.408389813E+01  4.768371582E-07  0.00000E+00  9.000E+00
      -2     1     1     2     0   516 -8.834835873E+00 -2.422024830E+00  2.404482011E+01  2.573291284E+01  3.300000131E-01  0.00000E+00  9.000E+00
       2     1     1     2   512     0 -1.257467848E+00  1.277598407E+00 -2.922750595E-01  1.846024863E+00  3.300000131E-01  0.00000E+00  9.000E+00
</event>
<event>
      5  10001  3.52971E+09  2.91039E+00 -1.00000E+00  3.00911E-01
      21    -1     0     0   513   511  0.000000000E+00  0.000000000E+00  2.780058116E+02  2.780058116E+02  0.000000000E+00  0.00000E+00  9.000E+00
       2    -1     0     0   511     0  0.000000000E+00  0.000000000E+00 -1.259795245E+00  1.259795245E+00  0.000000000E+00  0.00000E+00  9.000E+00
      -3     1     1     2     0   512  4.481671239E+00  7.863852425E+00  3.477964173E+01  3.594160585E+01  5.000000000E-01  0.00000E+00  9.000E+00
       2     1     1     2   512     0 -4.009453020E+00 -1.073371518E+01  4.854066250E+01  4.987577739E+01  3.300000131E-01  0.00000E+00  9.000E+00
       3     1     1     2   513     0 -4.722182188E-01  2.869862758E+00  1.934257121E+02  1.934482236E+02  5.000000000E-01  0.00000E+00  9.000E+00
</event>
<event>
      5  10001  3.52971E+09  4.11040E+00 -1.00000E+00  2.60706E-01
      -1    -1     0     0     0   514  0.000000000E+00  0.000000000E+00  1.282974902E+02  1.282974902E+02  0.000000000E+00  0.00000E+00  9.000E+00
      21    -1     0     0   512   513  0.000000000E+00  0.000000000E+00 -8.229393521E+00  8.229393521E+00  0.000000000E+00  0.00000E+00  9.000E+00
      -1     1     1     2     0   511  1.846259949E+00  8.946756187E+00  1.021905815E+02  1.025986207E+02  3.300000131E-01  0.00000E+00  9.000E+00
      21     1     1     2   511   513 -2.400065945E+00 -1.301955185E+01  2.349465367E+01  2.696790311E+01  5.840038640E-07  0.00000E+00  9.000E+00
      21     1     1     2   512   514  5.538059964E-01  4.072795664E+00 -5.617138479E+00  6.960359926E+00  2.149076030E-07  0.00000E+00  9.000E+00
</event>
<event>
      5  10001  3.52971E+09  6.48817E+00 -1.00000E+00  2.20316E-01
      21    -1     0     0   515   511  0.000000000E+00  0.000000000E+00  4.043520573E+00  4.043520573E+00  0.000000000E+00  0.00000E+00  9.000E+00
      21    -1     0     0   512   513  0.000000000E+00  0.000000000E+00 -2.943558972E+02  2.943558972E+02  0.000000000E+00  0.00000E+00  9.000E+00
      21     1     1     2   512   514  2.135276036E-01  1.260010713E+01 -8.592880275E+01  8.684795586E+01  9.536743164E-07  0.00000E+00  9.000E+00
      21     1     1     2   514   511  3.639011514E+00 -7.379542946E+00 -1.259562492E+00  8.323854670E+00  1.548574097E-07  0.00000E+00  9.000E+00
      21     1     1     2   515   513 -3.852539118E+00 -5.220564187E+00 -2.031240114E+02  2.032276073E+02  0.000000000E+00  0.00000E+00  9.000E+00
</event>
<event>
      5  10001  3.52971E+09  2.56828E+00 -1.00000E+00  3.18957E-01
       2    -1     0     0   514     0  0.000000000E+00  0.000000000E+00  8.570275420E+01  8.570275420E+01  0.000000000E+00  0.00000E+00  9.000E+00
      21    -1     0     0   511   513  0.000000000E+00  0.000000000E+00 -1.336929654E+02  1.336929654E+02  0.000000000E+00  0.00000E+00  9.000E+00
      21     1     1     2   514   513 -1.347640416E+01 -7.586802724E+00 -8.486313059E+01  8.626079051E+01  1.651812370E-06  0.00000E+00  9.000E+00
       2     1     1     2   515     0  1.466163045E+01  5.308371481E+00  8.425344215E+01  8.568485064E+01  3.300000131E-01  0.00000E+00  9.000E+00
      21     1     1     2   511   515 -1.185226287E+00  2.278431243E+00 -4.738052276E+01  4.745007847E+01  0.000000000E+00  0.00000E+00  9.000E+00
</event>
<event>
      5  10001  3.52971E+09  1.16405E+01 -1.00000E+00  1.88423E-01
      21    -1     0     0   512   513  0.000000000E+00  0.000000000E+00  9.584780589E+00  9.584780589E+00  0.000000000E+00  0.00000E+00  9.000E+00
      21    -1     0     0   511   512  0.000000000E+00  0.000000000E+00 -2.194546034E+02  2.194546034E+02  0.000000000E+00  0.00000E+00  9.000E+00
      21     1     1     2   515   516  1.008537005E+01  1.096419932E+01 -4.932712292E-01  1.490542426E+01  3.849506698E-07  0.00000E+00  9.000E+00
      21     1     1     2   511   515 -7.637052439E+00  4.159174336E-01 -1.969813304E+02  1.971297595E+02  0.000000000E+00  0.00000E+00  9.000E+00
      21     1     1     2   516   513 -2.448317613E+00 -1.138011676E+01 -1.239522113E+01  1.700420017E+01  4.129530925E-07  0.00000E+00  9.000E+00
</event>
<event>
      5  10001  3.52971E+09  3.12346E+00 -1.00000E+00  2.91642E-01
      21    -1     0     0   514   511  0.000000000E+00  0.000000000E+00  3.090777243E+01  3.090777243E+01  0.000000000E+00  0.00000E+00  9.000E+00
      21    -1     0     0   516   512  0.000000000E+00  0.000000000E+00 -1.437305827E+01  1.437305827E+01  0.000000000E+00  0.00000E+00  9.000E+00
      21     1     1     2   514   513 -2.374998590E+00  1.084938240E+01  1.910765068E+01  2.210095091E+01  3.371747881E-07  0.00000E+00  9.000E+00
      21     1     1     2   516   511  5.376253101E+00 -9.984229530E+00  6.853194872E+00  1.324972515E+01  3.371747881E-07  0.00000E+00  9.000E+00
      21     1     1     2   513   512 -3.001254511E+00 -8.651528713E-01 -9.426131393E+00  9.930154639E+00  1.192092896E-07  0.00000E+00  9.000E+00
</event>
<event>
      5  10001  3.52971E+09  6.79155E+00 -1.00000E+00  2.17420E-01
      21    -1     0     0   515   512  0.000000000E+00  0.000000000E+00  1.070499455E+01  1.070499455E+01  0.000000000E+00  0.00000E+00  9.000E+00
      21    -1     0     0   513   517  0.000000000E+00  0.000000000E+00 -1.639392685E+02  1.639392685E+02  0.000000000E+00  0.00000E+00  9.000E+00
      21     1     1     2   515   517 -9.731970039E+00 -9.213599897E+00  5.976140582E+00  1.467364713E+01  3.475518164E-07  0.00000E+00  9.000E+00
      -1     1     1     2     0   512  1.961264650E+00  6.521552895E+00 -9.320478900E+01  9.345383247E+01  3.300000131E-01  0.00000E+00  9.000E+00
       1     1     1     2   513     0  7.770705388E+00  2.692047003E+00 -6.600562557E+01  6.651678350E+01  3.300000131E-01  0.00000E+00  9.000E+00
</event>
<event>
      5  10001  3.52971E+09  8.14819E+00 -1.00000E+00  2.06629E-01
      21    -1     0     0   511   516  0.000000000E+00  0.000000000E+00  3.426228179E+01  3.426228179E+01  0.000000000E+00  0.00000E+00  9.000E+00
      21    -1     0     0   513   514  0.000000000E+00  0.000000000E+00 -9.672513618E+00  9.672513618E+00  0.000000000E+00  0.00000E+00  9.000E+00
      21     1     1     2   511   514 -7.636905903E+00  9.448172648E+00  2.455163733E+01  2.739294058E+01  0.000000000E+00  0.00000E+00  9.000E+00
      21     1     1     2   513   512  8.586752655E+00 -2.854831021E+00 -2.540525682E+00  9.398758006E+00  1.548574097E-07  0.00000E+00  9.000E+00
      21     1     1     2   512   516 -9.498467516E-01 -6.593341627E+00  2.578656520E+00  7.143096815E+00  1.192092896E-07  0.00000E+00  9.000E+00
</event>
<event>
      5  10001  3.52971E+09  8.13374E+00 -1.00000E+00  2.06728E-01
      21    -1     0     0   511   513  0.000000000E+00  0.000000000E+00  1.982512074E+01  1.982512074E+01  0.000000000E+00  0.00000E+00  9.000E+00
      21    -1     0     0   517   516  0.000000000E+00  0.000000000E+00 -9.087636514E+01  9.087636514E+01  0.000000000E+00  0.00000E+00  9.000E+00
      21     1     1     2   515   516 -4.156997241E+00  7.045321471E+00 -1.586034138E+01  1.784566080E+01  2.384185791E-07  0.00000E+00  9.000E+00
      21     1     1     2   517   513 -6.096581388E-01 -1.363596976E+01 -7.247732128E+01  7.375143019E+01  0.000000000E+00  0.00000E+00  9.000E+00
      21     1     1     2   511   515  4.766655380E+00  6.590648287E+00  1.728641826E+01  1.910439490E+01  4.129530925E-07  0.00000E+00  9.000E+00
</event>
<event>
      5  10001  3.52971E+09  9.35906E+00 -1.00000E+00  1.99138E-01
       2    -1     0     0   511     0  0.000000000E+00  0.000000000E+00  4.526979843E+02  4.526979843E+02  0.000000000E+00  0.00000E+00  9.000E+00
      -1    -1     0     0     0   511  0.000000000E+00  0.000000000E+00 -1.192305117E+00  1.192305117E+00  0.000000000E+00  0.00000E+00  9.000E+00
      -1     1     1     2     0   512  6.548300502E+00 -7.981675363E+00  2.536734356E+01  2.738974992E+01  3.300000131E-01  0.00000E+00  9.000E+00
       2     1     1     2   513     0 -1.668923556E+00  2.108788424E+00  3.433885145E+02  3.433992037E+02  3.300000131E-01  0.00000E+00  9.000E+00
      21     1     1     2   512   513 -4.879376946E+00  5.872886939E+00  8.274982117E+01  8.310133588E+01  0.000000000E+00  0.00000E+00  9.000E+00
</event>
<event>
      5  10001  3.52971E+09  8.14883E+00 -1.00000E+00  2.06624E-01
       1    -1     0     0   511     0  0.000000000E+00  0.000000000E+00  2.701168724E+01  2.701168724E+01  0.000000000E+00  0.00000E+00  9.000E+00
      21    -1     0     0   512   511  0.000000000E+00  0.000000000E+00 -1.209225913E+01  1.209225913E+01  0.000000000E+00  0.00000E+00  9.000E+00
      21     1     1     2   512   515  6.642655659E-01 -1.208127384E+00 -4.515211975E+00  4.721012571E+00  1.576990671E-07  0.00000E+00  9.000E+00
       1     1     1     2   514     0 -5.208181561E+00  9.234427326E+00  2.232558496E+01  2.471720953E+01  3.300000131E-01  0.00000E+00  9.000E+00
      21     1     1     2   515   514  4.543915995E+00 -8.026299942E+00 -2.890944881E+00  9.665724269E+00  2.563692709E-07  0.00000E+00  9.000E+00
</event>
<event>
      5  10001  3.52971E+09  1.32874E+01 -1.00000E+00  1.82488E-01
       2    -1     0     0   514     0  0.000000000E+00  0.000000000E+00  8.988816928E+01  8.988816928E+01  0.000000000E+00  0.00000E+00  9.000E+00
      21    -1     0     0   513   511  0.000000000E+00  0.000000000E+00 -1.849138155E+02  1.849138155E+02  0.000000000E+00  0.00000E+00  9.000E+00
      21     1     1     2   514   512  5.521527786E+00  1.307415826E-01 -1.395047533E+02  1.396140414E+02  0.000000000E+00  0.00000E+00  9.000E+00
       2     1     1     2   513     0 -1.442205260E+00  1.148127249E+01  8.861509461E+01  8.936802262E+01  3.300000131E-01  0.00000E+00  9.000E+00
      21     1     1     2   512   511 -4.079322526E+00 -1.161201407E+01 -4.413598752E+01  4.581992074E+01  4.768371582E-07  0.00000E+00  9.000E+00
</event>
<event>
      5  10001  3.52971E+09  9.30523E+00 -1.00000E+00  1.99438E-01
      21    -1     0     0   515   512  0.000000000E+00  0.000000000E+00  1.394573038E+00  1.394573038E+00  0.000000000E+00  0.00000E+00  9.000E+00
      21    -1     0     0   516   515  0.000000000E+00  0.000000000E+00 -9.206245494E+01  9.206245494E+01  0.000000000E+00  0.00000E+00  9.000E+00
      21     1     1     2   516   511  8.894735780E+00 -2.999269852E-01 -5.154937583E+01  5.231199126E+01  6.743495762E-07  0.00000E+00  9.000E+00
      21     1     1     2   513   512 -4.654244854E+00 -4.370414348E+00 -2.168369889E+01  2.260409950E+01  3.371747881E-07  0.00000E+00  9.000E+00
      21     1     1     2   511   513 -4.240490926E+00  4.670341333E+00 -1.743480718E+01  1.854093721E+01  4.129530925E-07  0.00000E+00  9.000E+00
</event>
<event>
      5  10001  3.52971E+09  8.61167E+00 -1.00000E+00  2.03568E-01
      21    -1     0     0   511   512  0.000000000E+00  0.000000000E+00  3.576644674E+00  3.576644674E+00  0.000000000E+00  0.00000E+00  9.000E+00
       3    -1     0     0   512     0  0.000000000E+00  0.000000000E+00 -7.218681189E+01  7.218681189E+01  0.000000000E+00  0.00000E+00  9.000E+00
       3     1     1     2   511     0 -2.456172106E+00  8.885578677E+00 -1.369165428E+01  1.651356069E+01  5.000000000E-01  0.00000E+00  9.000E+00
       3     1     1     2   514     0  8.294429694E+00 -8.864792756E+00 -5.041786614E+01  5.186128942E+01  5.000000000E-01  0.00000E+00  9.000E+00
      -3     1     1     2     0   514 -5.838257588E+00 -2.078592024E-02 -4.500646808E+00  7.388606459E+00  5.000000000E-01  0.00000E+00  9.000E+00
</event>
<event>
      5  10001  3.52971E+09  6.80684E+00 -1.00000E+00  2.17280E-01
      21    -1     0     0   513   512  0.000000000E+00  0.000000000E+00  1.908619648E+01  1.908619648E+01  0.000000000E+00  0.00000E+00  9.000E+00
       2    -1     0     0   514     0  0.000000000E+00  0.000000000E+00 -2.700429807E+01  2.700429807E+01  0.000000000E+00  0.00000E+00  9.000E+00
      21     1     1     2   514   511  7.461792389E+00  5.446884789E-01  1.242376928E+01  1.450258854E+01  2.384185791E-07  0.00000E+00  9.000E+00
       2     1     1     2   513     0 -8.825783668E+00  5.274344283E+00 -2.288641873E+01  2.509203514E+01  3.300000131E-01  0.00000E+00  9.000E+00
      21     1     1     2   511   512  1.363991279E+00 -5.819032761E+00  2.544547869E+00  6.495870869E+00  1.365713982E-07  0.00000E+00  9.000E+00
</event>
<event>
      5  10001  3.52971E+09  7.65040E+00 -1.00000E+00  2.10235E-01
      21    -1     0     0   515   514  0.000000000E+00  0.000000000E+00  3.134020344E+01  3.134020344E+01  0.000000000E+00  0.00000E+00  9.000E+00
      21    -1     0     0   513   515  0.000000000E+00  0.000000000E+00 -6.441579286E+01  6.441579286E+01  0.000000000E+00  0.00000E+00  9.000E+00
      21     1     1     2   516   514  6.701203254E+00  1.189679909E+01  2.662707876E+01  2.992392483E+01  6.743495762E-07  0.00000E+00  9.000E+00
      21     1     1     2   512   516 -1.266105356E+01 -7.100045723E+00 -5.492859007E+01  5.681428459E+01  1.168007728E-06  0.00000E+00  9.000E+00
      21     1     1     2   513   512  5.959850307E+00 -4.796753367E+00 -4.774078110E+00  9.017786887E+00  5.960464478E-08  0.00000E+00  9.000E+00
</event>
<event>
      5  10001  3.52971E+09  3.10811E+00 -1.00000E+00  2.92269E-01
       1    -1     0     0   513     0  0.000000000E+00  0.000000000E+00  3.946290319E+01  3.946290319E+01  0.000000000E+00  0.00000E+00  9.000E+00
      21    -1     0     0   511   512  0.000000000E+00  0.000000000E+00 -1.249632466E+01  1.249632466E+01  0.000000000E+00  0.00000E+00  9.000E+00
      21     1     1     2   513   514  6.339558683E+00  5.878847861E+00 -4.753387331E+00  9.866384727E+00  3.816559456E-07  0.00000E+00  9.000E+00
       1     1     1     2   511     0 -7.122737409E+00 -1.063064489E+01  3.431324599E+01  3.662310404E+01  3.300000131E-01  0.00000E+00  9.000E+00
      21     1     1     2   514   512  7.831787266E-01  4.751797024E+00 -2.593280131E+00  5.469739090E+00  1.365713982E-07  0.00000E+00  9.000E+00
</event>
<event>
      5  10001  3.52971E+09  1.73082E+01 -1.00000E+00  1.71717E-01
       2    -1     0     0   511     0  0.000000000E+00  0.000000000E+00  5.150675923E+02  5.150675923E+02  0.000000000E+00  0.00000E+00  9.000E+00
      21    -1     0     0   515   512  0.000000000E+00  0.000000000E+00 -5.007320337E-01  5.007320337E-01  0.000000000E+00  0.00000E+00  9.000E+00
      21     1     1     2   511   512 -9.744532843E+00 -5.701266871E+00  9.588596136E+01  9.654831925E+01  2.336015456E-06  0.00000E+00  9.000E+00
      21     1     1     2   515   513 -5.331625868E-01  6.214509677E+00  1.203814979E+02  1.205429775E+02  1.348699152E-06  0.00000E+00  9.000E+00
       2     1     1     2   513     0  1.027769543E+01 -5.132428069E-01  2.982994010E+02  2.984770276E+02  3.300000131E-01  0.00000E+00  9.000E+00
</event>
<event>
      5  10001  3.52971E+09  1.03614E+01 -1.00000E+00  1.93987E-01
      21    -1     0     0   514   512  0.000000000E+00  0.000000000E+00  2.737683336E+02  2.737683336E+02  0.000000000E+00  0.00000E+00  9.000E+00
      21    -1     0     0   517   511  0.000000000E+00  0.000000000E+00 -1.774032479E+00  1.774032479E+00  0.000000000E+00  0.00000E+00  9.000E+00
      21     1     1     2   514   516  1.540926214E+01 -7.554686169E+00  6.163404713E+01  6.397870278E+01  6.743495762E-07  0.00000E+00  9.000E+00
      21     1     1     2   517   512 -5.116787667E+00  8.748169142E+00  1.481670700E+02  1.485132742E+02  3.814697266E-06  0.00000E+00  9.000E+00
      21     1     1     2   516   511 -1.029247448E+01 -1.193482972E+00  6.219318407E+01  6.305038919E+01  6.743495762E-07  0.00000E+00  9.000E+00
</event>
<event>
      5  10001  3.52971E+09  9.86496E+00 -1.00000E+00  1.96438E-01
      21    -1     0     0   513   512  0.000000000E+00  0.000000000E+00  6.406027871E+01  6.406027871E+01  0.000000000E+00  0.00000E+00  9.000E+00
      21    -1     0     0   512   511  0.000000000E+00  0.000000000E+00 -1.770646633E+00  1.770646633E+00  0.000000000E+00  0.00000E+00  9.000E+00
      21     1     1     2   514   511  1.560188965E+00  4.042228538E+00  1.064361869E+01  1.149175444E+01  1.192092896E-07  0.00000E+00  9.000E+00
       3     1     1     2   513     0 -8.860399157E+00 -2.747825178E+00  2.477285129E+01  2.645753915E+01  5.000000000E-01  0.00000E+00  9.000E+00
      -3     1     1     2     0   514  7.300210191E+00 -1.294403360E+00  2.687316209E+01  2.788163176E+01  5.000000000E-01  0.00000E+00  9.000E+00
</event>
<event>
      5  10001  3.52971E+09  8.05987E+00 -1.00000E+00  2.07243E-01
      21    -1     0     0   515   511  0.000000000E+00  0.000000000E+00  1.817803902E+02  1.817803902E+02  0.000000000E+00  0.00000E+00  9.000E+00
      21    -1     0     0   513   514  0.000000000E+00  0.000000000E+00 -1.582063188E+03  1.582063188E+03  0.000000000E+00  0.00000E+00  9.000E+00
      21     1     1     2   515   514  6.299445958E+00 -1.539241386E+01 -4.860347322E+01  5.137029329E+01  0.000000000E+00  0.00000E+00  9.000E+00
      21     1     1     2   512   511 -2.812915240E+00  8.125665870E+00  1.802839062E+02  1.804888522E+02  1.907348633E-06  0.00000E+00  9.000E+00
      21     1     1     2   513   512 -3.486530718E+00  7.266747987E+00 -1.531963230E+03  1.531984432E+03  2.157918644E-05  0.00000E+00  9.000E+00
</event>
<event>
      5  10001  3.52971E+09  1.69298E+01 -1.00000E+00  1.72567E-01
      21    -1     0     0   516   512  0.000000000E+00  0.000000000E+00  7.507176950E+00  7.507176950E+00  0.000000000E+00  0.00000E+00  9.000E+00
      21    -1     0     0   511   517  0.000000000E+00  0.000000000E+00 -2.493906280E+02  2.493906280E+02  0.000000000E+00  0.00000E+00  9.000E+00
      21     1     1     2   516   517  2.598746455E+01 -1.128894246E+01 -4.189437755E+01  5.057595680E+01  1.066240300E-06  0.00000E+00  9.000E+00
      21     1     1     2   513   512 -2.713181400E+01 -5.602184791E+00 -7.078621128E+01  7.601452172E+01  2.132480600E-06  0.00000E+00  9.000E+00
      21     1     1     2   511   513  1.144349443E+00  1.689112725E+01 -1.292028622E+02  1.303073264E+02  1.907348633E-06  0.00000E+00  9.000E+00
</event>
<event>
      5  10001  3.52971E+09  1.98233E+01 -1.00000E+00  1.66684E-01
      21    -1     0     0   514   513  0.000000000E+00  0.000000000E+00  1.155101727E+01  1.155101727E+01  0.000000000E+00  0.00000E+00  9.000E+00
      21    -1     0     0   511   514  0.000000000E+00  0.000000000E+00 -1.110622074E+02  1.110622074E+02  0.000000000E+00  0.00000E+00  9.000E+00
      21     1     1     2   511   515 -8.029413758E+00  5.352588159E+00 -9.935167769E+01  9.981922433E+01  1.348699152E-06  0.00000E+00  9.000E+00
      21     1     1     2   512   513  1.177049357E+01  4.183210025E+00 -8.982550272E-01  1.252400204E+01  2.965293637E-07  0.00000E+00  9.000E+00
      21     1     1     2   515   512 -3.741079815E+00 -9.535798184E+00  7.387425474E-01  1.026999833E+01  3.091766525E-07  0.00000E+00  9.000E+00
</event>
<event>
      5  10001  3.52971E+09  1.23878E+01 -1.00000E+00  1.85583E-01
      21    -1     0     0   516   512  0.000000000E+00  0.000000000E+00  1.870905577E+02  1.870905577E+02  0.000000000E+00  0.00000E+00  9.000E+00
      21    -1     0     0   513   517  0.000000000E+00  0.000000000E+00 -6.722587078E+01  6.722587078E+01  0.000000000E+00  0.00000E+00  9.000E+00
      21     1     1     2   516   517  8.484462912E-01 -1.586066914E+01  1.776821151E+02  1.783906240E+02  3.303624740E-06  0.00000E+00  9.000E+00
      21     1     1     2   511   512  8.415580855E+00  7.636529837E+00 -6.185991866E+01  6.289505645E+01  9.536743164E-07  0.00000E+00  9.000E+00
      21     1     1     2   513   511 -9.264027147E+00  8.224139307E+00  4.042490486E+00  1.303074808E+01  1.192092896E-07  0.00000E+00  9.000E+00
</event>
<event>
      5  10001  3.52971E+09  2.03696E+01 -1.00000E+00  1.65712E-01
      -2    -1     0     0     0   514  0.000000000E+00  0.000000000E+00  7.588374999E+00  7.588374999E+00  0.000000000E+00  0.00000E+00  9.000E+00
      21    -1     0     0   514   515  0.000000000E+00  0.000000000E+00 -3.454035501E+01  3.454035501E+01  0.000000000E+00  0.00000E+00  9.000E+00
      -2     1     1     2     0   516 -1.252246645E+00  6.182318841E+00  5.342900188E+00  8.273129416E+00  3.300000131E-01  0.00000E+00  9.000E+00
      21     1     1     2   512   515 -3.383869435E+00 -2.703118472E+00 -1.246858944E+01  1.319936151E+01  1.685873940E-07  0.00000E+00  9.000E+00
      21     1     1     2   516   512  4.636116081E+00 -3.479200369E+00 -1.982629077E+01  2.065623908E+01  0.000000000E+00  0.00000E+00  9.000E+00
</event>
<event>
      5  10001  3.52971E+09  5.06803E+00 -1.00000E+00  2.37489E-01
      21    -1     0     0   511   515  0.000000000E+00  0.000000000E+00  1.262658840E+01  1.262658840E+01  0.000000000E+00  0.00000E+00  9.000E+00
      21    -1     0     0   513   511  0.000000000E+00  0.000000000E+00 -8.372047932E+02  8.372047932E+02  0.000000000E+00  0.00000E+00  9.000E+00
      21     1     1     2   513   514 -8.106441614E+00 -3.989655619E+00 -8.034115722E+02  8.034623738E+02  0.000000000E+00  0.00000E+00  9.000E+00
      21     1     1     2   514   512  1.156160448E+01  2.819974396E-01 -3.220727135E+01  3.422073273E+01  1.168007728E-06  0.00000E+00  9.000E+00
      21     1     1     2   512   515 -3.455162868E+00  3.707658179E+00  1.104063883E+01  1.214827500E+01  1.059555342E-06  0.00000E+00  9.000E+00
</event>
<event>
      5  10001  3.52971E+09  6.37934E+00 -1.00000E+00  2.21409E-01
      21    -1     0     0   516   514  0.000000000E+00  0.000000000E+00  1.245701809E-01  1.245701809E-01  0.000000000E+00  0.00000E+00  9.000E+00
      21    -1     0     0   513   515  0.000000000E+00  0.000000000E+00 -1.522872425E+03  1.522872425E+03  0.000000000E+00  0.00000E+00  9.000E+00
      21     1     1     2   516   515 -3.207535576E+00 -1.125785795E+01 -1.005369174E+03  1.005437320E+03  0.000000000E+00  0.00000E+00  9.000E+00
      21     1     1     2   511   514  3.295749485E+00  7.418264157E+00 -4.488944644E+02  4.489678528E+02  0.000000000E+00  0.00000E+00  9.000E+00
      21     1     1     2   513   511 -8.821390931E-02  3.839593795E+00 -6.848421582E+01  6.859182224E+01  1.348699152E-06  0.00000E+00  9.000E+00
</event>
<event>
      5  10001  3.52971E+09  3.30078E+01 -1.00000E+00  1.50210E-01
       4    -1     0     0   513     0  0.000000000E+00  0.000000000E+00  1.063277156E+03  1.063277156E+03  0.000000000E+00  0.00000E+00  9.000E+00
      21    -1     0     0   512   511  0.000000000E+00  0.000000000E+00 -1.178690686E+00  1.178690686E+00  0.000000000E+00  0.00000E+00  9.000E+00
      21     1     1     2   513   511 -2.326060717E+01 -3.837680241E+00  7.329804212E+02  7.333594491E+02  0.000000000E+00  0.00000E+00  9.000E+00
      21     1     1     2   512   514 -3.247960110E-01  7.112552924E+00  2.366269726E+01  2.471066861E+01  9.536743164E-07  0.00000E+00  9.000E+00
       4     1     1     2   514     0  2.358540318E+01 -3.274872683E+00  3.054553469E+02  3.063857291E+02  1.500000000E+00  0.00000E+00  9.000E+00
</event>
<event>
      5  10001  3.52971E+09  1.81941E+01 -1.00000E+00  1.69830E-01
       2    -1     0     0   511     0  0.000000000E+00  0.000000000E+00  1.966217485E+01  1.966217485E+01  0.000000000E+00  0.00000E+00  9.000E+00
      21    -1     0     0   514   515  0.000000000E+00  0.000000000E+00 -6.353671705E+00  6.353671705E+00  0.000000000E+00  0.00000E+00  9.000E+00
      21     1     1     2   511   515  3.654239190E+00  2.041897236E+00  3.053344883E+00  5.181285878E+00  1.032382731E-07  0.00000E+00  9.000E+00
       2     1     1     2   512     0 -1.667154991E+00 -8.639535025E-01  1.523037264E+01  1.534923360E+01  3.300000131E-01  0.00000E+00  9.000E+00
      21     1     1     2   514   512 -1.987084199E+00 -1.177943733E+00 -4.975214376E+00  5.485327077E+00  2.064765462E-07  0.00000E+00  9.000E+00
</event>
<event>
      5  10001  3.52971E+09  3.93917E+00 -1.00000E+00  2.65040E-01
      21    -1     0     0   511   512  0.000000000E+00  0.000000000E+00  1.211736493E+02  1.211736493E+02  0.000000000E+00  0.00000E+00  9.000E+00
       1    -1     0     0   514     0  0.000000000E+00  0.000000000E+00 -6.308142522E+00  6.308142522E+00  0.000000000E+00  0.00000E+00  9.000E+00
      21     1     1     2   514   512  4.610689077E+00  1.149227694E+01  1.679714622E+01  2.086803786E+01  4.129530925E-07  0.00000E+00  9.000E+00
       1     1     1     2   513     0 -8.526448709E+00 -1.191943112E+01  8.472189828E+00  1.693103855E+01  3.300000131E-01  0.00000E+00  9.000E+00
      21     1     1     2   511   513  3.915759632E+00  4.271541791E-01  8.959617073E+01  8.968271541E+01  1.348699152E-06  0.00000E+00  9.000E+00
</event>
<event>
      5  10001  3.52971E+09  6.94213E+00 -1.00000E+00  2.16059E-01
      21    -1     0     0   515   513  0.000000000E+00  0.000000000E+00  8.497508801E+01  8.497508801E+01  0.000000000E+00  0.00000E+00  9.000E+00
      21    -1     0     0   512   516  0.000000000E+00  0.000000000E+00 -2.453221143E+00  2.453221143E+00  0.000000000E+00  0.00000E+00  9.000E+00
      21     1     1     2   515   516 -7.865697809E+00 -4.161206320E+00  6.432565967E+01  6.493824245E+01  0.000000000E+00  0.00000E+00  9.000E+00
      21     1     1     2   514   513  3.457812976E+00  6.787846142E+00  7.834789406E+00  1.092772853E+01  1.192092896E-07  0.00000E+00  9.000E+00
      21     1     1     2   512   514  4.407884832E+00 -2.626639822E+00  1.036141779E+01  1.156233818E+01  2.384185791E-07  0.00000E+00  9.000E+00
</event>
<event>
      5  10001  3.52971E+09  6.64592E+00 -1.00000E+00  2.18784E-01
      21    -1     0     0   514   513  0.000000000E+00  0.000000000E+00  8.911654181E+01  8.911654181E+01  0.000000000E+00  0.00000E+00  9.000E+00
      -4    -1     0     0     0   511  0.000000000E+00  0.000000000E+00 -3.234805371E+00  3.234805371E+00  0.000000000E+00  0.00000E+00  9.000E+00
      21     1     1     2   514   512 -7.892989345E+00 -1.086224246E+01  4.363958673E+01  4.565852738E+01  6.743495762E-07  0.00000E+00  9.000E+00
      21     1     1     2   512   511  1.176831955E+01  5.501706205E+00  3.012203680E+01  3.280395124E+01  1.011524364E-06  0.00000E+00  9.000E+00
      -4     1     1     2     0   513 -3.875330200E+00  5.360536251E+00  1.212011290E+01  1.388886856E+01  1.500000000E+00  0.00000E+00  9.000E+00
</event>
<event>
      5  10001  3.52971E+09  3.15500E+01 -1.00000E+00  1.51533E-01
      21    -1     0     0   511   513  0.000000000E+00  0.000000000E+00  1.863246062E+01  1.863246062E+01  0.000000000E+00  0.00000E+00  9.000E+00
      21    -1     0     0   515   511  0.000000000E+00  0.000000000E+00 -3.023009875E+01  3.023009875E+01  0.000000000E+00  0.00000E+00  9.000E+00
      -4     1     1     2     0   512  1.025789231E+01  4.491630132E+00  6.424542579E+00  1.299707056E+01  1.500000000E+00  0.00000E+00  9.000E+00
       4     1     1     2   515     0  5.733254531E+00 -1.148269361E+01 -1.129116251E+01  1.715991873E+01  1.500000000E+00  0.00000E+00  9.000E+00
      21     1     1     2   512   513 -1.599114684E+01  6.991063476E+00 -6.731018195E+00  1.870557007E+01  1.460009660E-07  0.00000E+00  9.000E+00
</event>
<event>
      5  10001  3.52971E+09  5.52018E+00 -1.00000E+00  2.31238E-01
      21    -1     0     0   514   515  0.000000000E+00  0.000000000E+00  3.170556169E+00  3.170556169E+00  0.000000000E+00  0.00000E+00  9.000E+00
      21    -1     0     0   512   511  0.000000000E+00  0.000000000E+00 -1.042728573E+02  1.042728573E+02  0.000000000E+00  0.00000E+00  9.000E+00
      21     1     1     2   514   513 -1.466193477E+00  1.039597176E+01 -4.149138788E+01  4.279907967E+01  4.768371582E-07  0.00000E+00  9.000E+00
      21     1     1     2   512   515  6.981775769E+00 -1.017061448E+01 -1.383299325E+01  1.853478605E+01  1.685873940E-07  0.00000E+00  9.000E+00
      21     1     1     2   513   511 -5.515582292E+00 -2.253572823E-01 -4.577792004E+01  4.610954779E+01  9.536743164E-07  0.00000E+00  9.000E+00
</event>
<event>
      5  10001  3.52971E+09  2.28791E+01 -1.00000E+00  1.61687E-01
      21    -1     0     0   516   512  0.000000000E+00  0.000000000E+00  2.979558390E+02  2.979558390E+02  0.000000000E+00  0.00000E+00  9.000E+00
       5    -1     0     0   513     0  0.000000000E+00  0.000000000E+00 -1.129666164E+01  1.129666164E+01  0.000000000E+00  0.00000E+00  9.000E+00
      21     1     1     2   513   512  7.276482931E+00  1.369421907E+01  2.661177088E+02  2.665691538E+02  6.607249480E-06  0.00000E+00  9.000E+00
       5     1     1     2   514     0  9.232313217E+00 -8.382199808E+00 -2.752737498E+00  1.364237686E+01  4.800000191E+00  0.00000E+00  9.000E+00
      21     1     1     2   516   514 -1.650879615E+01 -5.312019263E+00  2.329420603E+01  2.904096991E+01  6.743495762E-07  0.00000E+00  9.000E+00
</event>
<event>
      5  10001  3.52971E+09  9.30525E+00 -1.00000E+00  1.99438E-01
      21    -1     0     0   517   513  0.000000000E+00  0.000000000E+00  1.950507906E+02  1.950507906E+02  0.000000000E+00  0.00000E+00  9.000E+00
      21    -1     0     0   512   515  0.000000000E+00  0.000000000E+00 -2.996434281E+00  2.996434281E+00  0.000000000E+00  0.00000E+00  9.000E+00
      21     1     1     2   511   515 -8.717535733E+00 -1.463691084E+01  5.943463317E+01  6.182806974E+01  9.536743164E-07  0.00000E+00  9.000E+00
      21     1     1     2   512   513  7.469488652E-02  1.808493818E+01  5.181592339E+01  5.488133093E+01  1.348699152E-06  0.00000E+00  9.000E+00
      21     1     1     2   517   511  8.642840846E+00 -3.448027347E+00  8.080379974E+01  8.133782418E+01  0.000000000E+00  0.00000E+00  9.000E+00
</event>
<event>
      5  10001  3.52971E+09  5.00577E+00 -1.00000E+00  2.38422E-01
      21    -1     0     0   512   511  0.000000000E+00  0.000000000E+00  3.504907258E-01  3.504907258E-01  0.000000000E+00  0.00000E+00  9.000E+00
      21    -1     0     0   511   514  0.000000000E+00  0.000000000E+00 -1.031303592E+03  1.031303592E+03  0.000000000E+00  0.00000E+00  9.000E+00
      -5     1     1     2     0   513 -4.829199258E+00 -7.057241273E+00 -1.636808098E+02  1.639743069E+02  4.800000191E+00  0.00000E+00  9.000E+00
      21     1     1     2   513   514  9.318021189E+00  5.651200049E+00 -7.996683964E+02  7.997426497E+02  2.157918644E-05  0.00000E+00  9.000E+00
       5     1     1     2   512     0 -4.488821930E+00  1.406041224E+00 -6.760389476E+01  6.793712581E+01  4.800000191E+00  0.00000E+00  9.000E+00
</event>
<event>
      5  10001  3.52971E+09  4.75768E+00 -1.00000E+00  2.46889E-01
      -1    -1     0     0     0   515  0.000000000E+00  0.000000000E+00  2.373201426E+02  2.373201426E+02  0.000000000E+00  0.00000E+00  9.000E+00
      -1    -1     0     0     0   512  0.000000000E+00  0.000000000E+00 -1.686364907E+01  1.686364907E+01  0.000000000E+00  0.00000E+00  9.000E+00
      -1     1     1     2     0   515 -9.634491028E+00 -3.481240547E+00 -1.481238531E+01  1.801272083E+01  3.300000131E-01  0.00000E+00  9.000E+00
      -1     1     1     2     0   511  6.504658814E+00  8.691165038E-01  2.253679439E+02  2.254637110E+02  3.300000131E-01  0.00000E+00  9.000E+00
      21     1     1     2   511   512  3.129832214E+00  2.612124044E+00  9.900934962E+00  1.070735984E+01  0.000000000E+00  0.00000E+00  9.000E+00
</event>
<event>
      5  10001  3.52971E+09  1.72535E+01 -1.00000E+00  1.71839E-01
      21    -1     0     0   513   514  0.000000000E+00  0.000000000E+00  3.050060076E+01  3.050060076E+01  0.000000000E+00  0.00000E+00  9.000E+00
       1    -1     0     0   514     0  0.000000000E+00  0.000000000E+00 -6.048664279E+00  6.048664279E+00  0.000000000E+00  0.00000E+00  9.000E+00
      21     1     1     2   513   511  1.883240382E+00  4.523144403E+00  1.097817113E+01  1.202188300E+01  1.192092896E-07  0.00000E+00  9.000E+00
       1     1     1     2   515     0  2.039460968E+00 -1.942124109E+00 -4.846430560E+00  5.614983195E+00  3.300000131E-01  0.00000E+00  9.000E+00
      21     1     1     2   511   515 -3.922701350E+00 -2.581020294E+00  1.832019591E+01  1.891239884E+01  3.371747881E-07  0.00000E+00  9.000E+00
</event>
<event>
      5  10001  3.52971E+09  2.10406E+01 -1.00000E+00  1.64569E-01
      -1    -1     0     0     0   512  0.000000000E+00  0.000000000E+00  3.205972034E+01  3.205972034E+01  0.000000000E+00  0.00000E+00  9.000E+00
      21    -1     0     0   513   515  0.000000000E+00  0.000000000E+00 -1.629814364E+01  1.629814364E+01  0.000000000E+00  0.00000E+00  9.000E+00
      -1     1     1     2     0   515  1.563414349E+01  7.374410184E+00 -2.127318400E+00  1.741960826E+01  3.300000131E-01  0.00000E+00  9.000E+00
      21     1     1     2   514   512 -5.433035154E+00 -9.819138760E+00  1.280975161E+00  1.129487735E+01  1.429269172E-07  0.00000E+00  9.000E+00
      21     1     1     2   513   514 -1.020110834E+01  2.444728576E+00  1.660791994E+01  1.964337837E+01  0.000000000E+00  0.00000E+00  9.000E+00
</event>
<event>
      5  10001  3.52971E+09  5.47761E+00 -1.00000E+00  2.31790E-01
       1    -1     0     0   511     0  0.000000000E+00  0.000000000E+00  5.898488547E+00  5.898488547E+00  0.000000000E+00  0.00000E+00  9.000E+00
      -1    -1     0     0     0   511  0.000000000E+00  0.000000000E+00 -1.587711268E+02  1.587711268E+02  0.000000000E+00  0.00000E+00  9.000E+00
      -1     1     1     2     0   512  4.522669625E+00 -1.551865284E+01 -1.413883268E+02  1.423097009E+02  3.300000131E-01  0.00000E+00  9.000E+00
       1     1     1     2   515     0 -3.627750561E+00  9.113835642E+00 -7.698148347E-01  9.845003257E+00  3.300000131E-01  0.00000E+00  9.000E+00
      21     1     1     2   512   515 -8.949190641E-01  6.404817199E+00 -1.071449667E+01  1.251491120E+01  1.685873940E-07  0.00000E+00  9.000E+00
</event>
<event>
      5  10001  3.52971E+09  3.39485E+00 -1.00000E+00  2.81461E-01
      -3    -1     0     0     0   514  0.000000000E+00  0.000000000E+00  1.049824226E+00  1.049824226E+00  0.000000000E+00  0.00000E+00  9.000E+00
       2    -1     0     0   513     0  0.000000000E+00  0.000000000E+00 -3.006589731E+02  3.006589731E+02  0.000000000E+00  0.00000E+00  9.000E+00
      -3     1     1     2     0   511  7.053412996E+00 -6.651322670E+00 -2.299924334E+02  2.301972202E+02  5.000000000E-01  0.00000E+00  9.000E+00
       2     1     1     2   511     0 -7.654114561E+00  9.991492858E+00 -4.770202185E+01  4.933565838E+01  3.300000131E-01  0.00000E+00  9.000E+00
      21     1     1     2   513   514  6.007015652E-01 -3.340170188E+00 -2.191469359E+01  2.217591880E+01  4.129530925E-07  0.00000E+00  9.000E+00
</event>
<event>
      5  10001  3.52971E+09  6.17246E+00 -1.00000E+00  2.23571E-01
      21    -1     0     0   512   511  0.000000000E+00  0.000000000E+00  7.213344735E+01  7.213344735E+01  0.000000000E+00  0.00000E+00  9.000E+00
      21    -1     0     0   513   514  0.000000000E+00  0.000000000E+00 -2.113447322E+00  2.113447322E+00  0.000000000E+00  0.00000E+00  9.000E+00
      21     1     1     2   512   514  2.331395724E+00  1.062761421E+01  2.148839962E+01  2.408594836E+01  5.331201500E-07  0.00000E+00  9.000E+00
      21     1     1     2   515   511  1.486561702E+00 -6.771272580E+00  2.150052208E+01  2.259053890E+01  2.384185791E-07  0.00000E+00  9.000E+00
      21     1     1     2   513   515 -3.817957426E+00 -3.856341634E+00  2.703107833E+01  2.757040742E+01  4.768371582E-07  0.00000E+00  9.000E+00
</event>
<event>
      5  10001  3.52971E+09  1.95255E+01 -1.00000E+00  1.67231E-01
      21    -1     0     0   515   511  0.000000000E+00  0.000000000E+00  2.344945614E+02  2.344945614E+02  0.000000000E+00  0.00000E+00  9.000E+00
       4    -1     0     0   511     0  0.000000000E+00  0.000000000E+00 -2.851109608E+00  2.851109608E+00  0.000000000E+00  0.00000E+00  9.000E+00
      21     1     1     2   515   512 -1.154636814E+01 -5.798005505E+00  6.387214469E+01  6.516583731E+01  9.536743164E-07  0.00000E+00  9.000E+00
       4     1     1     2   513     0  1.848541540E+01 -1.932827518E+00  4.167510172E+01  4.565643994E+01  1.500000000E+00  0.00000E+00  9.000E+00
      21     1     1     2   512   513 -6.939047261E+00  7.730833023E+00  1.260962054E+02  1.265233938E+02  1.348699152E-06  0.00000E+00  9.000E+00
</event>
<event>
      5  10001  3.52971E+09  3.77962E+00 -1.00000E+00  2.69399E-01
      21    -1     0     0   514   515  0.000000000E+00  0.000000000E+00  6.375028321E+01  6.375028321E+01  0.000000000E+00  0.00000E+00  9.000E+00
      21    -1     0     0   511   516  0.000000000E+00  0.000000000E+00 -7.496778338E+01  7.496778338E+01  0.000000000E+00  0.00000E+00  9.000E+00
      21     1     1     2   514   516  8.396664447E+00 -1.011198163E+01 -4.319859672E+01  4.515390243E+01  6.743495762E-07  0.00000E+00  9.000E+00
      21     1     1     2   511   512 -7.855937221E+00  6.371238742E+00 -2.990166313E+01  3.156608767E+01  7.539457465E-07  0.00000E+00  9.000E+00
      21     1     1     2   512   515 -5.407272260E-01  3.740742893E+00  6.188275968E+01  6.199807650E+01  0.000000000E+00  0.00000E+00  9.000E+00
</event>
<event>
      5  10001  3.52971E+09  6.15372E+00 -1.00000E+00  2.23773E-01
      21    -1     0     0   513   512  0.000000000E+00  0.000000000E+00  1.303886841E+00  1.303886841E+00  0.000000000E+00  0.00000E+00  9.000E+00
      21    -1     0     0   515   514  0.000000000E+00  0.000000000E+00 -2.639438342E+02  2.639438342E+02  0.000000000E+00  0.00000E+00  9.000E+00
      21     1     1     2   511   512 -8.681094281E+00 -4.094273768E+00 -2.530835028E+01  2.706726934E+01  4.768371582E-07  0.00000E+00  9.000E+00
      21     1     1     2   515   511  1.389241246E+01  8.215954453E-01 -1.595218771E+02  1.601277721E+02  0.000000000E+00  0.00000E+00  9.000E+00
      21     1     1     2   513   514 -5.211318181E+00  3.272678322E+00 -7.780971997E+01  7.805267953E+01  9.536743164E-07  0.00000E+00  9.000E+00
</event>
<event>
      5  10001  3.52971E+09  5.49796E+00 -1.00000E+00  2.31525E-01
      21    -1     0     0   516   511  0.000000000E+00  0.000000000E+00  1.132556724E+00  1.132556724E+00  0.000000000E+00  0.00000E+00  9.000E+00
       1    -1     0     0   512     0  0.000000000E+00  0.000000000E+00 -4.076287321E+02  4.076287321E+02  0.000000000E+00  0.00000E+00  9.000E+00
      21     1     1     2   512   515  9.371021273E+00  7.872704926E+00 -7.333199881E+01  7.434633530E+01  1.907348633E-06  0.00000E+00  9.000E+00
       1     1     1     2   516     0 -9.471100423E+00 -2.376035241E+00 -3.199978060E+02  3.201469226E+02  3.300000131E-01  0.00000E+00  9.000E+00
      21     1     1     2   515   511  1.000791505E-01 -5.496669685E+00 -1.316637055E+01  1.426803094E+01  4.768371582E-07  0.00000E+00  9.000E+00
</event>
<event>
      5  10001  3.52971E+09  1.31774E+01 -1.00000E+00  1.82849E-01
      21    -1     0     0   513   516  0.000000000E+00  0.000000000E+00  2.874260467E+01  2.874260467E+01  0.000000000E+00  0.00000E+00  9.000E+00
      21    -1     0     0   511   513  0.000000000E+00  0.000000000E+00 -3.725738426E+01  3.725738426E+01  0.000000000E+00  0.00000E+00  9.000E+00
      21     1     1     2   514   512 -3.853738023E+00  2.301318131E+01  7.491300549E+00  2.450668061E+01  2.384185791E-07  0.00000E+00  9.000E+00
      21     1     1     2   511   514 -4.209067735E+00 -1.259039527E+01 -2.301398536E+01  2.656836138E+01  0.000000000E+00  0.00000E+00  9.000E+00
      21     1     1     2   512   516  8.062805758E+00 -1.042278604E+01  7.007905218E+00  1.492494694E+01  0.000000000E+00  0.00000E+00  9.000E+00
</event>
<event>
      5  10001  3.52971E+09  6.70088E+00 -1.00000E+00  2.18264E-01
      21    -1     0     0   515   511  0.000000000E+00  0.000000000E+00  6.685105444E+01  6.685105444E+01  0.000000000E+00  0.00000E+00  9.000E+00
      21    -1     0     0   516   515  0.000000000E+00  0.000000000E+00 -2.765464956E+00  2.765464956E+00  0.000000000E+00  0.00000E+00  9.000E+00
      21     1     1     2   516   517 -3.530320034E+00  1.011631143E+01  5.043663415E+01  5.156216618E+01  6.743495762E-07  0.00000E+00  9.000E+00
      21     1     1     2   517   513  3.876815469E-01 -4.909972126E+00  9.474329872E+00  1.067806395E+01  1.685873940E-07  0.00000E+00  9.000E+00
      21     1     1     2   513   511  3.142638487E+00 -5.206339304E+00  4.174625467E+00  7.376289270E+00  2.598106231E-07  0.00000E+00  9.000E+00
</event>
<event>
      5  10001  3.52971E+09  7.83566E+00 -1.00000E+00  2.08851E-01
      21    -1     0     0   512   516  0.000000000E+00  0.000000000E+00  3.747204905E+01  3.747204905E+01  0.000000000E+00  0.00000E+00  9.000E+00
      21    -1     0     0   514   511  0.000000000E+00  0.000000000E+00 -3.682225919E+02  3.682225919E+02  0.000000000E+00  0.00000E+00  9.000E+00
      21     1     1     2   512   511  1.161318055E+01  1.936437589E+01  3.366570627E+01  4.053670923E+01  8.259061849E-07  0.00000E+00  9.000E+00
      21     1     1     2   515   516 -4.554570133E+00 -9.044943665E+00 -1.220472831E+02  1.224667075E+02  1.348699152E-06  0.00000E+00  9.000E+00
      21     1     1     2   514   515 -7.058610414E+00 -1.031943223E+01 -2.423689660E+02  2.426912243E+02  0.000000000E+00  0.00000E+00  9.000E+00
</event>
<event>
      5  10001  3.52971E+09  5.74296E+00 -1.00000E+00  2.28460E-01
      21    -1     0     0   513   511  0.000000000E+00  0.000000000E+00  1.670338452E+01  1.670338452E+01  0.000000000E+00  0.00000E+00  9.000E+00
      21    -1     0     0   514   517  0.000000000E+00  0.000000000E+00 -9.690228203E+01  9.690228203E+01  0.000000000E+00  0.00000E+00  9.000E+00
      21     1     1     2   513   517  1.349782858E+01  8.819042206E-01 -9.106679448E+01  9.206590134E+01  0.000000000E+00  0.00000E+00  9.000E+00
      21     1     1     2   514   512 -7.578087094E+00 -2.084684100E+00  1.295156521E+01  1.514979713E+01  8.429369702E-07  0.00000E+00  9.000E+00
      21     1     1     2   512   511 -5.919741490E+00  1.202779879E+00 -2.083668238E+00  6.389968080E+00  1.604904177E-07  0.00000E+00  9.000E+00
</event>
<event>
      5  10001  3.52971E+09  1.29667E+01 -1.00000E+00  1.83554E-01
      21    -1     0     0   515   514  0.000000000E+00  0.000000000E+00  2.100872148E+02  2.100872148E+02  0.000000000E+00  0.00000E+00  9.000E+00
      21    -1     0     0   516   511  0.000000000E+00  0.000000000E+00 -3.022881054E+00  3.022881054E+00  0.000000000E+00  0.00000E+00  9.000E+00
      21     1     1     2   515   511 -1.527858768E+01  8.501523668E-01  1.845439458E+02  1.851772825E+02  0.000000000E+00  0.00000E+00  9.000E+00
      21     1     1     2   513   514  4.062618851E+00  1.360143315E+00  1.052014615E+01  1.135906408E+01  2.384185791E-07  0.00000E+00  9.000E+00
      21     1     1     2   516   513  1.121596883E+01 -2.210295682E+00  1.200024180E+01  1.657374934E+01  5.840038640E-07  0.00000E+00  9.000E+00
</event>
<event>
      5  10001  3.52971E+09  1.57756E+01 -1.00000E+00  1.75342E-01
      21    -1     0     0   512   511  0.000000000E+00  0.000000000E+00  2.519674561E+02  2.519674561E+02  0.000000000E+00  0.00000E+00  9.000E+00
      21    -1     0     0   516   517  0.000000000E+00  0.000000000E+00 -2.158346498E+01  2.158346498E+01  0.000000000E+00  0.00000E+00  9.000E+00
      21     1     1     2   512   517 -3.145497100E+00 -1.067764140E+01 -1.905953121E+01  2.207197109E+01  1.118282261E-06  0.00000E+00  9.000E+00
      21     1     1     2   514   511 -2.582551230E+00 -1.551850679E+00  2.051587219E+02  2.051808446E+02  2.697398305E-06  0.00000E+00  9.000E+00
      21     1     1     2   516   514  5.728048330E+00  1.222949208E+01  4.428480043E+01  4.629810540E+01  6.743495762E-07  0.00000E+00  9.000E+00
</event>
<event>
      5  10001  3.52971E+09  4.20078E+00 -1.00000E+00  2.58549E-01
      21    -1     0     0   513   514  0.000000000E+00  0.000000000E+00  7.841033844E+01  7.841033844E+01  0.000000000E+00  0.00000E+00  9.000E+00
      21    -1     0     0   516   511  0.000000000E+00  0.000000000E+00 -6.729762571E+00  6.729762571E+00  0.000000000E+00  0.00000E+00  9.000E+00
      21     1     1     2   513   515 -6.854880686E+00 -7.572494920E+00  6.546216404E+01  6.625426016E+01  9.536743164E-07  0.00000E+00  9.000E+00
      21     1     1     2   516   514  6.354552293E+00  1.174337596E+01  6.109173981E+00  1.468363785E+01  2.384185791E-07  0.00000E+00  9.000E+00
      21     1     1     2   515   511  5.003283929E-01 -4.170881039E+00  1.092378451E-01  4.202202999E+00  7.964850125E-08  0.00000E+00  9.000E+00
</event>
<event>
      5  10001  3.52971E+09  1.37533E+01 -1.00000E+00  1.81005E-01
       3    -1     0     0   511     0  0.000000000E+00  0.000000000E+00  1.366396418E+01  1.366396418E+01  0.000000000E+00  0.00000E+00  9.000E+00
      21    -1     0     0   515   513  0.000000000E+00  0.000000000E+00 -3.054459727E+02  3.054459727E+02  0.000000000E+00  0.00000E+00  9.000E+00
      21     1     1     2   515   512 -2.291854977E+00 -1.242342266E+01 -3.871448746E+01  4.072352600E+01  8.259061849E-07  0.00000E+00  9.000E+00
       3     1     1     2   512     0  1.456509480E+01  6.217381129E+00  7.448273776E+00  1.750784387E+01  5.000000000E-01  0.00000E+00  9.000E+00
      21     1     1     2   511   513 -1.227323982E+01  6.206041536E+00 -2.605157948E+02  2.608785670E+02  0.000000000E+00  0.00000E+00  9.000E+00
</event>
<event>
      5  10001  3.52971E+09  5.44680E+00 -1.00000E+00  2.32194E-01
      21    -1     0     0   514   515  0.000000000E+00  0.000000000E+00  4.391499953E+02  4.391499953E+02  0.000000000E+00  0.00000E+00  9.000E+00
      21    -1     0     0   516   512  0.000000000E+00  0.000000000E+00 -5.009359701E+01  5.009359701E+01  0.000000000E+00  0.00000E+00  9.000E+00
      21     1     1     2   513   515  1.021634783E+01 -3.942542203E+00  4.269017692E+02  4.270421969E+02  1.321449896E-05  0.00000E+00  9.000E+00
      21     1     1     2   516   513 -7.880914559E+00  8.863251889E+00  9.094996835E+00  1.494607024E+01  6.078504936E-07  0.00000E+00  9.000E+00
      21     1     1     2   514   512 -2.335433268E+00 -4.920709685E+00 -4.694036773E+01  4.725532515E+01  1.907348633E-06  0.00000E+00  9.000E+00
</event>
<event>
      5  10001  3.52971E+09  1.14341E+01 -1.00000E+00  1.89257E-01
      21    -1     0     0   512   515  0.000000000E+00  0.000000000E+00  1.097946012E+02  1.097946012E+02  0.000000000E+00  0.00000E+00  9.000E+00
      -3    -1     0     0     0   511  0.000000000E+00  0.000000000E+00 -8.864918207E+00  8.864918207E+00  0.000000000E+00  0.00000E+00  9.000E+00
      -3     1     1     2     0   513 -7.767484332E+00 -8.962304332E+00  3.191087672E+01  3.404718439E+01  5.000000000E-01  0.00000E+00  9.000E+00
      21     1     1     2   512   511 -3.402567189E+00  1.139716636E+01 -2.526316387E+00  1.215956985E+01  3.153981341E-07  0.00000E+00  9.000E+00
      21     1     1     2   513   515  1.117005152E+01 -2.434862024E+00  7.154512263E+01  7.245276514E+01  1.348699152E-06  0.00000E+00  9.000E+00
</event>
<event>
      5  10001  3.52971E+09  8.08563E+00 -1.00000E+00  2.07063E-01
      21    -1     0     0   514   515  0.000000000E+00  0.000000000E+00  8.540759144E+00  8.540759144E+00  0.000000000E+00  0.00000E+00  9.000E+00
       2    -1     0     0   512     0  0.000000000E+00  0.000000000E+00 -1.646134712E+02  1.646134712E+02  0.000000000E+00  0.00000E+00  9.000E+00
      21     1     1     2   512   515  9.102771880E+00 -4.584355441E+00  4.581186355E+00  1.117425788E+01  6.251387883E-07  0.00000E+00  9.000E+00
       2     1     1     2   511     0 -8.120415740E+00 -1.722953532E+00 -1.423999945E+02  1.426421293E+02  3.300000131E-01  0.00000E+00  9.000E+00
      21     1     1     2   514   511 -9.823561394E-01  6.307308972E+00 -1.825390398E+01  1.933784323E+01  4.129530925E-07  0.00000E+00  9.000E+00
</event>
<event>
      5  10001  3.52971E+09  1.36030E+01 -1.00000E+00  1.81475E-01
      21    -1     0     0   512   511  0.000000000E+00  0.000000000E+00  8.150888726E-01  8.150888726E-01  0.000000000E+00  0.00000E+00  9.000E+00
      -3    -1     0     0     0   513  0.000000000E+00  0.000000000E+00 -1.892861196E+02  1.892861196E+02  0.000000000E+00  0.00000E+00  9.000E+00
      21     1     1     2   515   511  6.302852559E+00  6.512281256E-01 -1.400477474E+01  1.537152445E+01  7.152557373E-07  0.00000E+00  9.000E+00
      21     1     1     2   512   513 -5.685312324E+00 -1.565167346E+00 -6.763756173E+01  6.789412553E+01  9.536743164E-07  0.00000E+00  9.000E+00
      -3     1     1     2     0   515 -6.175402345E-01  9.139392204E-01 -1.068286943E+02  1.068355585E+02  5.000000000E-01  0.00000E+00  9.000E+00
</event>
<event>
      5  10001  3.52971E+09  2.50827E+00 -1.00000E+00  3.22632E-01
       1    -1     0     0   513     0  0.000000000E+00  0.000000000E+00  2.597316618E+02  2.597316618E+02  0.000000000E+00  0.00000E+00  9.000E+00
      21    -1     0     0   514   512  0.000000000E+00  0.000000000E+00 -1.302466515E+00  1.302466515E+00  0.000000000E+00  0.00000E+00  9.000E+00
      21     1     1     2   513   512  1.055247101E+01  1.815419048E+00  2.525244231E+01  2.742874830E+01  8.920806376E-07  0.00000E+00  9.000E+00
       1     1     1     2   511     0 -1.102517078E+01 -2.855155814E+00  2.287527869E+02  2.290363568E+02  3.300000131E-01  0.00000E+00  9.000E+00
      21     1     1     2   514   511  4.726997690E-01  1.039736766E+00  4.423966097E+00  4.569023270E+00  0.000000000E+00  0.00000E+00  9.000E+00
</event>
<event>
      5  10001  3.52971E+09  4.85038E+00 -1.00000E+00  2.45180E-01
      21    -1     0     0   515   516  0.000000000E+00  0.000000000E+00  3.034226581E+01  3.034226581E+01  0.000000000E+00  0.00000E+00  9.000E+00
      21    -1     0     0   514   515  0.000000000E+00  0.000000000E+00 -6.367654294E+01  6.367654294E+01  0.000000000E+00  0.00000E+00  9.000E+00
      21     1     1     2   511   516 -8.934064960E+00 -7.617200942E+00  2.848838589E+01  3.081277978E+01  4.768371582E-07  0.00000E+00  9.000E+00
      21     1     1     2   512   511  7.087214175E+00  2.237401667E+00 -3.716627356E+01  3.790206408E+01  4.768371582E-07  0.00000E+00  9.000E+00
      21     1     1     2   514   512  1.846850785E+00  5.379799275E+00 -2.465638946E+01  2.530396489E+01  0.000000000E+00  0.00000E+00  9.000E+00
</event>
<event>
      5  10001  3.52971E+09  7.66013E+00 -1.00000E+00  2.10161E-01
      21    -1     0     0   513   512  0.000000000E+00  0.000000000E+00  2.860676410E+00  2.860676410E+00  0.000000000E+00  0.00000E+00  9.000E+00
      21    -1     0     0   514   517  0.000000000E+00  0.000000000E+00 -1.415751508E+02  1.415751508E+02  0.000000000E+00  0.00000E+00  9.000E+00
      21     1     1     2   513   517  8.157756853E+00  5.913145075E+00 -7.512643432E+00  1.256797887E+01  3.264680848E-07  0.00000E+00  9.000E+00
      21     1     1     2   514   511 -1.219981860E+00 -5.765143847E+00 -7.669708965E+01  7.692313567E+01  0.000000000E+00  0.00000E+00  9.000E+00
      21     1     1     2   511   512 -6.937774993E+00 -1.480012285E-01 -5.450474132E+01  5.494471269E+01  9.536743164E-07  0.00000E+00  9.000E+00
</event>
<event>
      5  10001  3.52971E+09  6.97547E+00 -1.00000E+00  2.15764E-01
      21    -1     0     0   515   511  0.000000000E+00  0.000000000E+00  1.025439622E+01  1.025439622E+01  0.000000000E+00  0.00000E+00  9.000E+00
      21    -1     0     0   512   515  0.000000000E+00  0.000000000E+00 -3.628866526E+01  3.628866526E+01  0.000000000E+00  0.00000E+00  9.000E+00
      21     1     1     2   514   511 -1.060967657E+01 -1.330047090E+00  5.058093116E+00  1.182871795E+01  0.000000000E+00  0.00000E+00  9.000E+00
      21     1     1     2   512   513  4.757875615E+00  1.987860245E+00 -2.713239001E+01  2.761802955E+01  3.371747881E-07  0.00000E+00  9.000E+00
      21     1     1     2   513   514  5.851800959E+00 -6.578131545E-01 -3.959972151E+00  7.096313976E+00  1.332800375E-07  0.00000E+00  9.000E+00
</event>
<event>
      5  10001  3.52971E+09  6.14126E+00 -1.00000E+00  2.23907E-01
      21    -1     0     0   516   512  0.000000000E+00  0.000000000E+00  9.047979812E-01  9.047979812E-01  0.000000000E+00  0.00000E+00  9.000E+00
      21    -1     0     0   511   514  0.000000000E+00  0.000000000E+00 -2.261539962E+02  2.261539962E+02  0.000000000E+00  0.00000E+00  9.000E+00
      21     1     1     2   516   514  1.151175598E+01  2.134345575E+00 -1.621128906E+02  1.625351200E+02  2.697398305E-06  0.00000E+00  9.000E+00
      21     1     1     2   515   512 -7.128814827E+00  1.623202251E+00 -4.100850156E+01  4.165515558E+01  0.000000000E+00  0.00000E+00  9.000E+00
      21     1     1     2   511   515 -4.382941157E+00 -3.757547825E+00 -2.212780608E+01  2.286851855E+01  3.371747881E-07  0.00000E+00  9.000E+00
</event>
<event>
      5  10001  3.52971E+09  2.54944E+00 -1.00000E+00  3.20092E-01
      21    -1     0     0   513   512  0.000000000E+00  0.000000000E+00  2.718742813E+01  2.718742813E+01  0.000000000E+00  0.00000E+00  9.000E+00
      21    -1     0     0   511   513  0.000000000E+00  0.000000000E+00 -1.080589891E+01  1.080589891E+01  0.000000000E+00  0.00000E+00  9.000E+00
      21     1     1     2   511   517  8.899174795E+00  5.493075348E+00 -5.659484243E+00  1.189112908E+01  1.685873940E-07  0.00000E+00  9.000E+00
      21     1     1     2   517   514 -1.073107013E+01 -3.719994071E+00  1.687107720E+01  2.033783341E+01  3.371747881E-07  0.00000E+00  9.000E+00
      21     1     1     2   514   512  1.831895335E+00 -1.773081277E+00  5.169936260E+00  5.764364550E+00  0.000000000E+00  0.00000E+00  9.000E+00
</event>
<event>
      5  10001  3.52971E+09  9.33722E+00 -1.00000E+00  1.99259E-01
      21    -1     0     0   513   516  0.000000000E+00  0.000000000E+00  3.233323633E+02  3.233323633E+02  0.000000000E+00  0.00000E+00  9.000E+00
      21    -1     0     0   511   512  0.000000000E+00  0.000000000E+00 -6.394586916E+00  6.394586916E+00  0.000000000E+00  0.00000E+00  9.000E+00
      21     1     1     2   515   512  2.101573322E+01  6.611468774E+00  1.809062987E+01  2.850690182E+01  7.152557373E-07  0.00000E+00  9.000E+00
      21     1     1     2   511   516 -1.255739874E+01 -1.056623403E+01  6.039203256E+01  6.258219524E+01  1.507891493E-06  0.00000E+00  9.000E+00
      21     1     1     2   513   515 -8.458334478E+00  3.954765254E+00  2.384551140E+02  2.386378532E+02  0.000000000E+00  0.00000E+00  9.000E+00
</event>
<event>
      5  10001  3.52971E+09  1.50610E+01 -1.00000E+00  1.77214E-01
       1    -1     0     0   511     0  0.000000000E+00  0.000000000E+00  9.142534081E+02  9.142534081E+02  0.000000000E+00  0.00000E+00  9.000E+00
      21    -1     0     0   514   512  0.000000000E+00  0.000000000E+00 -3.607447498E+01  3.607447498E+01  0.000000000E+00  0.00000E+00  9.000E+00
      21     1     1     2   514   513 -1.511509521E+01  5.732668051E+00 -3.358091080E+01  3.726938631E+01  2.023048729E-06  0.00000E+00  9.000E+00
       1     1     1     2   513     0  2.769569666E+01 -1.401280527E+01  4.590957858E+02  4.601439555E+02  3.300000131E-01  0.00000E+00  9.000E+00
      21     1     1     2   511   512 -1.258060145E+01  8.280137215E+00  4.526640581E+02  4.529145412E+02  9.344061824E-06  0.00000E+00  9.000E+00
</event>
<event>
      5  10001  3.52971E+09  1.00899E+01 -1.00000E+00  1.95304E-01
      21    -1     0     0   513   514  0.000000000E+00  0.000000000E+00  9.541070794E+00  9.541070794E+00  0.000000000E+00  0.00000E+00  9.000E+00
       2    -1     0     0   514     0  0.000000000E+00  0.000000000E+00 -6.850813256E+02  6.850813256E+02  0.000000000E+00  0.00000E+00  9.000E+00
      -2     1     1     2     0   511 -5.566860383E+00  3.721477432E+00  7.168671488E+00  9.815196366E+00  3.300000131E-01  0.00000E+00  9.000E+00
       2     1     1     2   511     0  1.562495608E+01 -2.926304202E+00 -6.569271386E+02  6.571195301E+02  3.300000131E-01  0.00000E+00  9.000E+00
       2     1     1     2   513     0 -1.005809570E+01 -7.951732302E-01 -2.578178775E+01  2.768766998E+01  3.300000131E-01  0.00000E+00  9.000E+00
</event>
<event>
      5  10001  3.52971E+09  1.21116E+01 -1.00000E+00  1.86602E-01
      21    -1     0     0   511   516  0.000000000E+00  0.000000000E+00  2.310240936E+01  2.310240936E+01  0.000000000E+00  0.00000E+00  9.000E+00
      21    -1     0     0   514   512  0.000000000E+00  0.000000000E+00 -4.975376895E+01  4.975376895E+01  0.000000000E+00  0.00000E+00  9.000E+00
      21     1     1     2   515   516  5.068543312E+00 -1.775446596E+01  6.253311175E+00  1.949397583E+01  1.685873940E-07  0.00000E+00  9.000E+00
      21     1     1     2   514   515 -2.349484161E+00  5.952034367E+00 -3.919542799E+01  3.971433450E+01  6.743495762E-07  0.00000E+00  9.000E+00
      21     1     1     2   511   512 -2.719059150E+00  1.180243160E+01  6.290757226E+00  1.364786799E+01  1.685873940E-07  0.00000E+00  9.000E+00
</event>
<event>
      5  10001  3.52971E+09  7.98407E+00 -1.00000E+00  2.07779E-01
      21    -1     0     0   513   514  0.000000000E+00  0.000000000E+00  4.323837521E+02  4.323837521E+02  0.000000000E+00  0.00000E+00  9.000E+00
      21    -1     0     0   515   513  0.000000000E+00  0.000000000E+00 -8.001910479E+01  8.001910479E+01  0.000000000E+00  0.00000E+00  9.000E+00
      21     1     1     2   517   512 -8.039339948E+00  9.658551311E+00  3.477406760E+01  3.697505075E+01  1.719260824E-06  0.00000E+00  9.000E+00
      21     1     1     2   512   514  1.087763423E+01 -1.712108633E+01  3.960470371E+02  3.965661485E+02  7.629394531E-06  0.00000E+00  9.000E+00
      21     1     1     2   515   517 -2.838294277E+00  7.462535023E+00 -7.845645739E+01  7.886165767E+01  9.536743164E-07  0.00000E+00  9.000E+00
</event>
<event>
      5  10001  3.52971E+09  4.73928E+00 -1.00000E+00  2.47235E-01
       2    -1     0     0   512     0  0.000000000E+00  0.000000000E+00  1.024631699E+03  1.024631699E+03  0.000000000E+00  0.00000E+00  9.000E+00
      21    -1     0     0   511   514  0.000000000E+00  0.000000000E+00 -2.496474144E+01  2.496474144E+01  0.000000000E+00  0.00000E+00  9.000E+00
      21     1     1     2   512   513 -1.018749924E+01 -5.833700451E+00  8.162446358E+00  1.429834719E+01  1.203954809E-06  0.00000E+00  9.000E+00
       2     1     1     2   511     0  9.299424290E+00  1.178375059E+00  1.013122900E+03  1.013166318E+03  3.300000131E-01  0.00000E+00  9.000E+00
      21     1     1     2   513   514  8.880749530E-01  4.655325393E+00 -2.161838908E+01  2.213177530E+01  1.617033478E-06  0.00000E+00  9.000E+00
</event>
<event>
      5  10001  3.52971E+09  7.66718E+00 -1.00000E+00  2.10108E-01
       1    -1     0     0   511     0  0.000000000E+00  0.000000000E+00  3.806235225E+01  3.806235225E+01  0.000000000E+00  0.00000E+00  9.000E+00
      21    -1     0     0   515   514  0.000000000E+00  0.000000000E+00 -7.468175340E+00  7.468175340E+00  0.000000000E+00  0.00000E+00  9.000E+00
      -3     1     1     2     0   514 -1.153264165E+01 -4.060142125E+00  1.124742577E+01  1.662050432E+01  5.000000000E-01  0.00000E+00  9.000E+00
       1     1     1     2   515     0  1.510823781E+01 -1.126913087E+00  1.327391372E+01  2.014533366E+01  3.300000131E-01  0.00000E+00  9.000E+00
       3     1     1     2   511     0 -3.575596158E+00  5.187055212E+00  6.072837416E+00  8.764689609E+00  5.000000000E-01  0.00000E+00  9.000E+00
</event>
<event>
      5  10001  3.52971E+09  6.99270E+00 -1.00000E+00  2.15612E-01
      21    -1     0     0   512   514  0.000000000E+00  0.000000000E+00  5.577944709E+02  5.577944709E+02  0.000000000E+00  0.00000E+00  9.000E+00
       2    -1     0     0   516     0  0.000000000E+00  0.000000000E+00 -5.964162942E+02  5.964162942E+02  0.000000000E+00  0.00000E+00  9.000E+00
      21     1     1     2   512   513 -8.503433491E+00 -8.348947772E+00  5.572236996E+02  5.573511144E+02  1.078959322E-05  0.00000E+00  9.000E+00
      21     1     1     2   516   514  1.570024659E+00  9.257622826E+00 -4.497938411E+01  4.594903212E+01  1.348699152E-06  0.00000E+00  9.000E+00
       2     1     1     2   513     0  6.933408833E+00 -9.086750531E-01 -5.508661388E+02  5.509106186E+02  3.300000131E-01  0.00000E+00  9.000E+00
</event>
<event>
      5  10001  3.52971E+09  7.58483E+00 -1.00000E+00  2.10738E-01
      21    -1     0     0   511   516  0.000000000E+00  0.000000000E+00  2.168519532E+02  2.168519532E+02  0.000000000E+00  0.00000E+00  9.000E+00
      21    -1     0     0   513   515  0.000000000E+00  0.000000000E+00 -1.011906229E+00  1.011906229E+00  0.000000000E+00  0.00000E+00  9.000E+00
      21     1     1     2   511   515 -8.766798817E+00 -5.760238842E-01  2.565657149E+01  2.711914869E+01  6.743495762E-07  0.00000E+00  9.000E+00
      21     1     1     2   513   512  8.871228921E+00 -4.134282920E+00  1.393936204E+02  1.397367969E+02  1.907348633E-06  0.00000E+00  9.000E+00
      21     1     1     2   512   516 -1.044301042E-01  4.710306804E+00  5.078985508E+01  5.100791384E+01  6.743495762E-07  0.00000E+00  9.000E+00
</event>
<event>
      5  10001  3.52971E+09  5.67072E+00 -1.00000E+00  2.29341E-01
      21    -1     0     0   514   513  0.000000000E+00  0.000000000E+00  1.159943968E+00  1.159943968E+00  0.000000000E+00  0.00000E+00  9.000E+00
      -1    -1     0     0     0   516  0.000000000E+00  0.000000000E+00 -4.762556590E+02  4.762556590E+02  0.000000000E+00  0.00000E+00  9.000E+00
      21     1     1     2   514   516 -4.097217676E+00  7.389129742E+00 -2.492857294E+01  2.632147754E+01  1.011524364E-06  0.00000E+00  9.000E+00
      21     1     1     2   517   513  5.138873807E+00 -1.296297106E+01 -1.100974490E+02  1.109770018E+02  1.348699152E-06  0.00000E+00  9.000E+00
      -1     1     1     2     0   517 -1.041656131E+00  5.573841323E+00 -3.400696930E+02  3.401171236E+02  3.300000131E-01  0.00000E+00  9.000E+00
</event>
<event>
      5  10001  3.52971E+09  1.44460E+01 -1.00000E+00  1.78933E-01
      21    -1     0     0   511   513  0.000000000E+00  0.000000000E+00  2.055947470E+01  2.055947470E+01  0.000000000E+00  0.00000E+00  9.000E+00
      21    -1     0     0   512   511  0.000000000E+00  0.000000000E+00 -7.868983502E+00  7.868983502E+00  0.000000000E+00  0.00000E+00  9.000E+00
      21     1     1     2   515   513  3.560118185E+00 -9.158857019E+00  6.929370891E+00  1.202394629E+01  2.064765462E-07  0.00000E+00  9.000E+00
      21     1     1     2   514   515 -5.439436757E+00  1.626816556E-01 -2.079238063E-01  5.445839684E+00  1.499400422E-07  0.00000E+00  9.000E+00
      21     1     1     2   512   514  1.879318572E+00  8.996175363E+00  5.969044115E+00  1.095867223E+01  1.685873940E-07  0.00000E+00  9.000E+00
</event>
<event>
      5  10001  3.52971E+09  9.67954E+00 -1.00000E+00  1.97402E-01
       2    -1     0     0   512     0  0.000000000E+00  0.000000000E+00  4.542836855E+02  4.542836855E+02  0.000000000E+00  0.00000E+00  9.000E+00
      21    -1     0     0   516   511  0.000000000E+00  0.000000000E+00 -7.021593229E+00  7.021593229E+00  0.000000000E+00  0.00000E+00  9.000E+00
      21     1     1     2   512   511 -5.484820009E+00 -1.210348450E+01 -1.270957011E-01  1.328885777E+01  5.653672680E-07  0.00000E+00  9.000E+00
       2     1     1     2   513     0 -1.806069081E+00  6.669821650E+00  3.742811249E+02  3.743450517E+02  3.300000131E-01  0.00000E+00  9.000E+00
      21     1     1     2   516   513  7.290889090E+00  5.433662853E+00  7.310806310E+01  7.367136924E+01  1.348699152E-06  0.00000E+00  9.000E+00
</event>
<event>
      5  10001  3.52971E+09  1.45675E+01 -1.00000E+00  1.78585E-01
      21    -1     0     0   514   511  0.000000000E+00  0.000000000E+00  5.039849667E+02  5.039849667E+02  0.000000000E+00  0.00000E+00  9.000E+00
      21    -1     0     0   512   515  0.000000000E+00  0.000000000E+00 -6.254406083E+01  6.254406083E+01  0.000000000E+00  0.00000E+00  9.000E+00
      21     1     1     2   514   515 -1.053485928E+01 -5.246588543E+00  4.963384626E+02  4.964779748E+02  7.629394531E-06  0.00000E+00  9.000E+00
      21     1     1     2   516   511  2.343049404E+01  1.202257243E+01 -4.593117107E+01  5.294528095E+01  3.932099939E-06  0.00000E+00  9.000E+00
      21     1     1     2   512   516 -1.289563476E+01 -6.775983886E+00 -8.966385750E+00  1.710577174E+01  5.591411304E-07  0.00000E+00  9.000E+00
</event>
<event>
      5  10001  3.52971E+09  2.60241E+01 -1.00000E+00  1.57453E-01
      21    -1     0     0   513   515  0.000000000E+00  0.000000000E+00  9.437231920E+01  9.437231920E+01  0.000000000E+00  0.00000E+00  9.000E+00
      21    -1     0     0   512   517  0.000000000E+00  0.000000000E+00 -4.597266701E+00  4.597266701E+00  0.000000000E+00  0.00000E+00  9.000E+00
      21     1     1     2   513   517 -3.818021588E+00 -1.372776705E+01  2.545441717E+01  2.917115408E+01  4.768371582E-07  0.00000E+00  9.000E+00
      21     1     1     2   511   515  9.769876059E+00  2.742796836E+00  1.072076457E+01  1.476171419E+01  3.371747881E-07  0.00000E+00  9.000E+00
      21     1     1     2   512   511 -5.951854471E+00  1.098497022E+01  5.359987076E+01  5.503671763E+01  0.000000000E+00  0.00000E+00  9.000E+00
</event>
<event>
      5  10001  3.52971E+09  6.10452E+00 -1.00000E+00  2.24307E-01
      21    -1     0     0   514   511  0.000000000E+00  0.000000000E+00  6.362525317E+01  6.362525317E+01  0.000000000E+00  0.00000E+00  9.000E+00
      21    -1     0     0   511   513  0.000000000E+00  0.000000000E+00 -4.563098861E+00  4.563098861E+00  0.000000000E+00  0.00000E+00  9.000E+00
      -5     1     1     2     0   513 -1.030960926E+01  3.887923016E-01  4.728955420E+00  1.232242767E+01  4.800000191E+00  0.00000E+00  9.000E+00
      21     1     1     2   514   515  4.897491964E+00  2.089731151E+00  2.062435879E+01  2.130062392E+01  3.371747881E-07  0.00000E+00  9.000E+00
       5     1     1     2   515     0  5.412117292E+00 -2.478523453E+00  3.370884010E+01  3.456530044E+01  4.800000191E+00  0.00000E+00  9.000E+00
</event>
<event>
      5  10001  3.52971E+09  1.66345E+01 -1.00000E+00  1.73250E-01
      21    -1     0     0   515   511  0.000000000E+00  0.000000000E+00  3.828738700E-01  3.828738700E-01  0.000000000E+00  0.00000E+00  9.000E+00
      -3    -1     0     0     0   512  0.000000000E+00  0.000000000E+00 -3.293406688E+02  3.293406688E+02  0.000000000E+00  0.00000E+00  9.000E+00
      21     1     1     2   513   511  2.249935961E+00  5.517946754E+00 -1.033743189E+02  1.035459307E+02  1.348699152E-06  0.00000E+00  9.000E+00
      21     1     1     2   515   512 -6.654001285E+00  2.575942254E+00 -9.287533678E+01  9.314901714E+01  0.000000000E+00  0.00000E+00  9.000E+00
      -3     1     1     2     0   513  4.404065324E+00 -8.093889008E+00 -1.327081392E+02  1.330285948E+02  5.000000000E-01  0.00000E+00  9.000E+00
</event>
<event>
      5  10001  3.52971E+09  1.23495E+01 -1.00000E+00  1.85722E-01
       4    -1     0     0   514     0  0.000000000E+00  0.000000000E+00  5.452423171E+01  5.452423171E+01  0.000000000E+00  0.00000E+00  9.000E+00
      21    -1     0     0   516   514  0.000000000E+00  0.000000000E+00 -2.191349789E+01  2.191349789E+01  0.000000000E+00  0.00000E+00  9.000E+00
      21     1     1     2   516   513  3.184838924E+00 -1.582627629E+01 -1.018579250E+01  1.908833647E+01  3.153981341E-07  0.00000E+00  9.000E+00
      21     1     1     2   513   511 -1.394208465E+01  9.776371609E+00  5.282303026E+00  1.782868171E+01  2.149076030E-07  0.00000E+00  9.000E+00
       4     1     1     2   511     0  1.075724572E+01  6.049904681E+00  3.751422330E+01  3.952071143E+01  1.500000000E+00  0.00000E+00  9.000E+00
</event>
<event>
      5  10001  3.52971E+09  5.49457E+00 -1.00000E+00  2.31569E-01
       2    -1     0     0   513     0  0.000000000E+00  0.000000000E+00  1.437672404E+03  1.437672404E+03  0.000000000E+00  0.00000E+00  9.000E+00
      21    -1     0     0   512   513  0.000000000E+00  0.000000000E+00 -1.741009305E+01  1.741009305E+01  0.000000000E+00  0.00000E+00  9.000E+00
      21     1     1     2   512   511  8.986222331E+00  1.338284356E+01 -1.357141129E+01  2.107215931E+01  1.545128989E-06  0.00000E+00  9.000E+00
       2     1     1     2   514     0 -3.317071707E+00 -1.090370645E+01  1.281859361E+03  1.281910068E+03  3.300000131E-01  0.00000E+00  9.000E+00
      21     1     1     2   511   514 -5.669150624E+00 -2.479137104E+00  1.519743617E+02  1.521002696E+02  2.697398305E-06  0.00000E+00  9.000E+00
</event>
<event>
      5  10001  3.52971E+09  1.05698E+01 -1.00000E+00  1.93011E-01
      21    -1     0     0   515   511  0.000000000E+00  0.000000000E+00  2.229275678E+02  2.229275678E+02  0.000000000E+00  0.00000E+00  9.000E+00
      21    -1     0     0   513   515  0.000000000E+00  0.000000000E+00 -1.295078443E+01  1.295078443E+01  0.000000000E+00  0.00000E+00  9.000E+00
      21     1     1     2   516   512  1.810871215E+01  6.514629064E+00  4.016307748E+01  4.453581301E+01  0.000000000E+00  0.00000E+00  9.000E+00
      21     1     1     2   512   511 -1.065988485E+01  9.844223895E-01  1.777830361E+02  1.781050537E+02  3.303624740E-06  0.00000E+00  9.000E+00
      21     1     1     2   513   516 -7.448827302E+00 -7.499051453E+00 -7.969330158E+00  1.323748556E+01  1.192092896E-07  0.00000E+00  9.000E+00
</event>
<event>
      5  10001  3.52971E+09  6.52950E+00 -1.00000E+00  2.19909E-01
      21    -1     0     0   514   512  0.000000000E+00  0.000000000E+00  1.276229312E+00  1.276229312E+00  0.000000000E+00  0.00000E+00  9.000E+00
      21    -1     0     0   513   516  0.000000000E+00  0.000000000E+00 -1.489498044E+02  1.489498044E+02  0.000000000E+00  0.00000E+00  9.000E+00
      21     1     1     2   514   516  6.028895697E+00  8.377499837E+00 -2.645291594E+01  2.839519059E+01  3.371747881E-07  0.00000E+00  9.000E+00
      21     1     1     2   513   511 -4.921633079E+00 -5.032539632E+00 -4.675878377E+01  4.728565096E+01  6.743495762E-07  0.00000E+00  9.000E+00
      21     1     1     2   511   512 -1.107262618E+00 -3.344960206E+00 -7.446187534E+01  7.454519212E+01  1.348699152E-06  0.00000E+00  9.000E+00
</event>
<event>
      5  10001  3.52971E+09  1.64157E+01 -1.00000E+00  1.73768E-01
      21    -1     0     0   514   511  0.000000000E+00  0.000000000E+00  4.232317167E+02  4.232317167E+02  0.000000000E+00  0.00000E+00  9.000E+00
      21    -1     0     0   512   515  0.000000000E+00  0.000000000E+00 -3.832033030E+01  3.832033030E+01  0.000000000E+00  0.00000E+00  9.000E+00
      21     1     1     2   513   511  3.338102594E+01  6.996134493E+00 -1.630929552E+01  3.780518365E+01  7.152557373E-07  0.00000E+00  9.000E+00
      21     1     1     2   512   513 -3.165963349E+01  9.329024329E+00  1.346917008E+01  3.564802422E+01  0.000000000E+00  0.00000E+00  9.000E+00
      21     1     1     2   514   515 -1.721392446E+00 -1.632515882E+01  3.877515118E+02  3.880988391E+02  5.394796609E-06  0.00000E+00  9.000E+00
</event>
<event>
      5  10001  3.52971E+09  4.44961E+00 -1.00000E+00  2.53018E-01
      21    -1     0     0   516   512  0.000000000E+00  0.000000000E+00  1.308818598E+02  1.308818598E+02  0.000000000E+00  0.00000E+00  9.000E+00
      21    -1     0     0   511   517  0.000000000E+00  0.000000000E+00 -9.338799150E+00  9.338799150E+00  0.000000000E+00  0.00000E+00  9.000E+00
      21     1     1     2   516   517  9.090491635E+00  6.939478526E+00  1.255425445E+02  1.260623810E+02  1.907348633E-06  0.00000E+00  9.000E+00
      21     1     1     2   513   512 -3.960563198E+00 -3.857395037E+00 -5.695979932E+00  7.937867768E+00  3.039252468E-07  0.00000E+00  9.000E+00
      21     1     1     2   511   513 -5.129928437E+00 -3.082083490E+00  1.696496010E+00  6.220410205E+00  1.976862425E-07  0.00000E+00  9.000E+00
</event>
<event>
      5  10001  3.52971E+09  7.73013E+00 -1.00000E+00  2.09633E-01
      21    -1     0     0   514   513  0.000000000E+00  0.000000000E+00  7.167585303E+00  7.167585303E+00  0.000000000E+00  0.00000E+00  9.000E+00
      21    -1     0     0   511   515  0.000000000E+00  0.000000000E+00 -5.143368433E+01  5.143368433E+01  0.000000000E+00  0.00000E+00  9.000E+00
      21     1     1     2   514   515 -3.118955324E-01 -1.018335577E+01  2.227010683E-01  1.019056472E+01  3.156950002E-07  0.00000E+00  9.000E+00
      21     1     1     2   512   513 -6.096951150E-01  8.983621797E+00 -4.563364206E+01  4.651350854E+01  6.743495762E-07  0.00000E+00  9.000E+00
      21     1     1     2   511   512  9.215906474E-01  1.199733973E+00  1.144841971E+00  1.897196370E+00  1.064155762E-07  0.00000E+00  9.000E+00
</event>
<event>
      5  10001  3.52971E+09  5.96275E+00 -1.00000E+00  2.25886E-01
      21    -1     0     0   516   513  0.000000000E+00  0.000000000E+00  2.016790306E+02  2.016790306E+02  0.000000000E+00  0.00000E+00  9.000E+00
      21    -1     0     0   511   516  0.000000000E+00  0.000000000E+00 -3.130916002E+01  3.130916002E+01  0.000000000E+00  0.00000E+00  9.000E+00
      21     1     1     2   512   513 -1.278967584E+01 -3.837430954E+00  1.994017241E+02  1.998483157E+02  4.672030912E-06  0.00000E+00  9.000E+00
      21     1     1     2   511   514  1.119850956E+01  5.871539289E+00 -1.931529508E+01  2.308597440E+01  6.743495762E-07  0.00000E+00  9.000E+00
      21     1     1     2   514   512  1.591166285E+00 -2.034108335E+00 -9.716558506E+00  1.005390054E+01  4.460403188E-07  0.00000E+00  9.000E+00
</event>
<event>
      5  10001  3.52971E+09  8.56716E+00 -1.00000E+00  2.03851E-01
      21    -1     0     0   515   511  0.000000000E+00  0.000000000E+00  1.419300836E+01  1.419300836E+01  0.000000000E+00  0.00000E+00  9.000E+00
      21    -1     0     0   513   512  0.000000000E+00  0.000000000E+00 -1.727335391E+01  1.727335391E+01  0.000000000E+00  0.00000E+00  9.000E+00
      21     1     1     2   515   512  3.759519924E+00  7.256251748E+00 -1.084829036E+01  1.358206844E+01  2.064765462E-07  0.00000E+00  9.000E+00
      21     1     1     2   516   511  9.060959602E-01 -6.759353958E+00  1.045100993E+01  1.247932227E+01  4.616955931E-07  0.00000E+00  9.000E+00
      21     1     1     2   513   516 -4.665615884E+00 -4.968977903E-01 -2.683065124E+00  5.404971549E+00  8.429369702E-08  0.00000E+00  9.000E+00
</event>
<event>
      5  10001  3.52971E+09  8.31463E+00 -1.00000E+00  2.05499E-01
      21    -1     0     0   514   511  0.000000000E+00  0.000000000E+00  1.915551175E+01  1.915551175E+01  0.000000000E+00  0.00000E+00  9.000E+00
      21    -1     0     0   513   514  0.000000000E+00  0.000000000E+00 -6.751246873E+01  6.751246873E+01  0.000000000E+00  0.00000E+00  9.000E+00
      21     1     1     2   513   517  1.193047690E+01  3.446436857E+00 -5.596247426E+01  5.732375364E+01  1.348699152E-06  0.00000E+00  9.000E+00
      21     1     1     2   517   512 -1.373368863E+01  4.670305136E+00  1.296204701E+01  1.945355022E+01  2.920019320E-07  0.00000E+00  9.000E+00
      21     1     1     2   512   511  1.803211731E+00 -8.116741993E+00 -5.356529735E+00  9.890676616E+00  1.332800375E-07  0.00000E+00  9.000E+00
</event>
<event>
      5  10001  3.52971E+09  1.53872E+01 -1.00000E+00  1.76343E-01
      21    -1     0     0   515   516  0.000000000E+00  0.000000000E+00  7.826029467E+00  7.826029467E+00  0.000000000E+00  0.00000E+00  9.000E+00
      21    -1     0     0   513   511  0.000000000E+00  0.000000000E+00 -1.639776173E+01  1.639776173E+01  0.000000000E+00  0.00000E+00  9.000E+00
      21     1     1     2   515   511 -4.771113554E+00  4.663215156E+00 -1.905715486E+00  6.938360877E+00  1.413648275E-07  0.00000E+00  9.000E+00
      21     1     1     2   514   516  5.371383990E+00  2.882810825E+00 -7.505370013E+00  9.669174900E+00  1.192092896E-07  0.00000E+00  9.000E+00
      21     1     1     2   513   514 -6.002704356E-01 -7.546025981E+00  8.393532396E-01  7.616255416E+00  9.657056180E-08  0.00000E+00  9.000E+00
</event>
<event>
      5  10001  3.52971E+09  1.23984E+01 -1.00000E+00  1.85545E-01
      21    -1     0     0   515   511  0.000000000E+00  0.000000000E+00  3.102705189E+02  3.102705189E+02  0.000000000E+00  0.00000E+00  9.000E+00
      21    -1     0     0   513   512  0.000000000E+00  0.000000000E+00 -3.502370208E+01  3.502370208E+01  0.000000000E+00  0.00000E+00  9.000E+00
      21     1     1     2   513   517  2.867027496E+01 -2.952357152E+00 -9.071877327E+00  3.021589047E+01  6.848052319E-07  0.00000E+00  9.000E+00
      21     1     1     2   517   511 -3.259094952E+01 -8.809805766E+00  3.450411232E+00  3.393652908E+01  5.575503985E-07  0.00000E+00  9.000E+00
      21     1     1     2   515   512  3.920674561E+00  1.176216292E+01  2.808682830E+02  2.811418015E+02  0.000000000E+00  0.00000E+00  9.000E+00
</event>
<event>
      5  10001  3.52971E+09  2.87904E+00 -1.00000E+00  3.02388E-01
       1    -1     0     0   511     0  0.000000000E+00  0.000000000E+00  4.629125572E+02  4.629125572E+02  0.000000000E+00  0.00000E+00  9.000E+00
      21    -1     0     0   515   512  0.000000000E+00  0.000000000E+00 -4.477967338E-01  4.477967338E-01  0.000000000E+00  0.00000E+00  9.000E+00
      21     1     1     2   515   514 -1.349643875E+00  9.799494030E+00  9.251632224E+01  9.304365375E+01  1.348699152E-06  0.00000E+00  9.000E+00
       1     1     1     2   514     0  3.922140424E+00 -1.109117940E+01  2.013249565E+02  2.016686502E+02  3.300000131E-01  0.00000E+00  9.000E+00
      21     1     1     2   511   512 -2.572496549E+00  1.291685372E+00  1.686234818E+02  1.686480501E+02  1.907348633E-06  0.00000E+00  9.000E+00
</event>
<event>
      5  10001  3.52971E+09  3.07631E+01 -1.00000E+00  1.52283E-01
      21    -1     0     0   513   515  0.000000000E+00  0.000000000E+00  3.858951347E+02  3.858951347E+02  0.000000000E+00  0.00000E+00  9.000E+00
      21    -1     0     0   516   513  0.000000000E+00  0.000000000E+00 -5.841325822E+00  5.841325822E+00  0.000000000E+00  0.00000E+00  9.000E+00
      21     1     1     2   512   515 -7.102485963E+00  7.465172587E+00  3.627416183E+02  3.628879382E+02  0.000000000E+00  0.00000E+00  9.000E+00
      21     1     1     2   516   514 -4.351874596E+00 -9.000222209E+00  1.325056926E+01  1.659880713E+01  1.685873940E-07  0.00000E+00  9.000E+00
      21     1     1     2   514   512  1.145436056E+01  1.535049621E+00  4.061621360E+00  1.224971515E+01  7.817075878E-07  0.00000E+00  9.000E+00
</event>
<event>
      5  10001  3.52971E+09  7.19713E+00 -1.00000E+00  2.13857E-01
      21    -1     0     0   513   516  0.000000000E+00  0.000000000E+00  2.928580653E+02  2.928580653E+02  0.000000000E+00  0.00000E+00  9.000E+00
      21    -1     0     0   515   512  0.000000000E+00  0.000000000E+00 -2.844673521E+01  2.844673521E+01  0.000000000E+00  0.00000E+00  9.000E+00
      21     1     1     2   511   512  7.542307950E+00  1.438565788E+01  1.356258310E+02  1.365950204E+02  1.907348633E-06  0.00000E+00  9.000E+00
      21     1     1     2   515   516 -1.013553363E+01 -7.671947669E+00 -2.642973188E+01  2.932777779E+01  0.000000000E+00  0.00000E+00  9.000E+00
      21     1     1     2   513   511  2.593225676E+00 -6.713710209E+00  1.552152311E+02  1.553820024E+02  2.697398305E-06  0.00000E+00  9.000E+00
</event>
<event>
      5  10001  3.52971E+09  3.28939E+00 -1.00000E+00  2.85227E-01
      21    -1     0     0   512   511  0.000000000E+00  0.000000000E+00  1.131047994E+00  1.131047994E+00  0.000000000E+00  0.00000E+00  9.000E+00
      21    -1     0     0   517   514  0.000000000E+00  0.000000000E+00 -1.161262957E+03  1.161262957E+03  0.000000000E+00  0.00000E+00  9.000E+00
      21     1     1     2   515   511 -5.058728591E-01 -9.738592372E+00 -2.181713078E+01  2.389734889E+01  3.303624740E-06  0.00000E+00  9.000E+00
      21     1     1     2   517   515 -2.756268328E+00  1.016114651E+01 -1.097197311E+03  1.097247823E+03  0.000000000E+00  0.00000E+00  9.000E+00
      21     1     1     2   512   514  3.262141187E+00 -4.225541417E-01 -4.111746729E+01  4.124883311E+01  9.536743164E-07  0.00000E+00  9.000E+00
</event>
<event>
      5  10001  3.52971E+09  8.56804E+00 -1.00000E+00  2.03845E-01
      21    -1     0     0   513   514  0.000000000E+00  0.000000000E+00  2.965641177E+01  2.965641177E+01  0.000000000E+00  0.00000E+00  9.000E+00
      21    -1     0     0   511   516  0.000000000E+00  0.000000000E+00 -1.351441601E+01  1.351441601E+01  0.000000000E+00  0.00000E+00  9.000E+00
      21     1     1     2   513   516 -9.221786606E+00 -1.774716674E+00  2.446596003E+01  2.620637647E+01  3.371747881E-07  0.00000E+00  9.000E+00
      21     1     1     2   511   515  6.464383785E+00 -4.130113337E+00 -6.846707121E+00  1.028219297E+01  1.192092896E-07  0.00000E+00  9.000E+00
      21     1     1     2   515   514  2.757402821E+00  5.904830011E+00 -1.477257154E+00  6.682258337E+00  9.185692672E-08  0.00000E+00  9.000E+00
</event>
<event>
      5  10001  3.52971E+09  1.53391E+01 -1.00000E+00  1.76470E-01
      21    -1     0     0   512   511  0.000000000E+00  0.000000000E+00  1.091200168E+01  1.091200168E+01  0.000000000E+00  0.00000E+00  9.000E+00
      21    -1     0     0   514   512  0.000000000E+00  0.000000000E+00 -1.123538665E+01  1.123538665E+01  0.000000000E+00  0.00000E+00  9.000E+00
      21     1     1     2   514   517  6.496013079E+00  8.846072659E-01 -1.701579129E+00  6.773188870E+00  2.107342426E-07  0.00000E+00  9.000E+00
      21     1     1     2   517   513 -3.265086877E+00  4.444657475E+00 -4.261045087E+00  6.969381437E+00  2.149076030E-07  0.00000E+00  9.000E+00
      21     1     1     2   513   511 -3.230926202E+00 -5.329264741E+00  5.639239241E+00  8.404818024E+00  0.000000000E+00  0.00000E+00  9.000E+00
</event>
<event>
      5  10001  3.52971E+09  8.53218E+00 -1.00000E+00  2.04074E-01
      21    -1     0     0   515   513  0.000000000E+00  0.000000000E+00  1.343862251E+02  1.343862251E+02  0.000000000E+00  0.00000E+00  9.000E+00
      21    -1     0     0   512   515  0.000000000E+00  0.000000000E+00 -5.595719139E+01  5.595719139E+01  0.000000000E+00  0.00000E+00  9.000E+00
      21     1     1     2   516   513  5.519740160E+00  6.724958649E+00  1.291301711E+02  1.294229257E+02  2.697398305E-06  0.00000E+00  9.000E+00
      21     1     1     2   511   516 -7.739504519E-01 -1.381548515E+01 -5.052603583E+01  5.238651474E+01  1.507891493E-06  0.00000E+00  9.000E+00
      21     1     1     2   512   511 -4.745789709E+00  7.090526499E+00 -1.751016306E-01  8.533976012E+00  6.984298400E-08  0.00000E+00  9.000E+00
</event>
<event>
      5  10001  3.52971E+09  1.07656E+01 -1.00000E+00  1.92121E-01
      -2    -1     0     0     0   514  0.000000000E+00  0.000000000E+00  4.153936021E+02  4.153936021E+02  0.000000000E+00  0.00000E+00  9.000E+00
      21    -1     0     0   514   515  0.000000000E+00  0.000000000E+00 -3.586702787E-01  3.586702787E-01  0.000000000E+00  0.00000E+00  9.000E+00
      21     1     1     2   513   512  1.547272585E+00  5.016278500E+00  6.709656573E+01  6.730160649E+01  9.536743164E-07  0.00000E+00  9.000E+00
      21     1     1     2   512   515  5.618333182E-01 -9.181202878E+00  8.979943965E+01  9.026931652E+01  1.348699152E-06  0.00000E+00  9.000E+00
      -2     1     1     2     0   513 -2.109105904E+00  4.164924379E+00  2.581389264E+02  2.581813494E+02  3.300000131E-01  0.00000E+00  9.000E+00
</event>
<event>
      5  10001  3.52971E+09  6.86993E+00 -1.00000E+00  2.16706E-01
      21    -1     0     0   511   512  0.000000000E+00  0.000000000E+00  1.387199364E+02  1.387199364E+02  0.000000000E+00  0.00000E+00  9.000E+00
      21    -1     0     0   514   515  0.000000000E+00  0.000000000E+00 -3.506213837E+00  3.506213837E+00  0.000000000E+00  0.00000E+00  9.000E+00
      21     1     1     2   511   513  1.447992364E+01 -7.866975142E+00  8.618100785E+01  8.774237061E+01  1.348699152E-06  0.00000E+00  9.000E+00
      21     1     1     2   514   512 -1.659995827E+01  1.332348021E+00  3.106019383E+01  3.524300508E+01  3.371747881E-07  0.00000E+00  9.000E+00
      21     1     1     2   513   515  2.120034631E+00  6.534627121E+00  1.797252087E+01  1.924077454E+01  2.384185791E-07  0.00000E+00  9.000E+00
</event>
<event>
      5  10001  3.52971E+09  6.56322E+00 -1.00000E+00  2.19580E-01
      -4    -1     0     0     0   516  0.000000000E+00  0.000000000E+00  2.133420062E+02  2.133420062E+02  0.000000000E+00  0.00000E+00  9.000E+00
      21    -1     0     0   511   512  0.000000000E+00  0.000000000E+00 -2.405256578E+01  2.405256578E+01  0.000000000E+00  0.00000E+00  9.000E+00
      -4     1     1     2     0   514 -5.171878069E+00  4.117887312E+00  2.042426144E+02  2.043550852E+02  1.500000000E+00  0.00000E+00  9.000E+00
      21     1     1     2   511   516  4.938420697E+00 -9.060956447E+00 -2.207458519E+01  2.436752433E+01  1.305872339E-06  0.00000E+00  9.000E+00
      21     1     1     2   514   512  2.334573723E-01  4.943069134E+00  7.121411160E+00  8.671962392E+00  1.460009660E-07  0.00000E+00  9.000E+00
</event>
<event>
      5  10001  3.52971E+09  9.27414E+00 -1.00000E+00  1.99613E-01
      21    -1     0     0   516   511  0.000000000E+00  0.000000000E+00  3.776432467E+01  3.776432467E+01  0.000000000E+00  0.00000E+00  9.000E+00
      21    -1     0     0   515   513  0.000000000E+00  0.000000000E+00 -3.969952755E+01  3.969952755E+01  0.000000000E+00  0.00000E+00  9.000E+00
      21     1     1     2   515   512  9.185083396E+00 -8.250605656E+00 -3.067462121E+01  3.306615546E+01  7.539457465E-07  0.00000E+00  9.000E+00
      21     1     1     2   512   511 -1.845020428E+01  8.659416792E+00  8.401337428E+00  2.204490888E+01  2.920019320E-07  0.00000E+00  9.000E+00
      21     1     1     2   516   513  9.265120882E+00 -4.088111356E-01  2.033808090E+01  2.235278788E+01  2.384185791E-07  0.00000E+00  9.000E+00
</event>
<event>
      5  10001  3.52971E+09  8.81691E+00 -1.00000E+00  2.02294E-01
      21    -1     0     0   514   511  0.000000000E+00  0.000000000E+00  1.410718072E+02  1.410718072E+02  0.000000000E+00  0.00000E+00  9.000E+00
      21    -1     0     0   517   512  0.000000000E+00  0.000000000E+00 -1.120025866E+02  1.120025866E+02  0.000000000E+00  0.00000E+00  9.000E+00
      21     1     1     2   513   511 -6.965075278E+00 -9.582454101E+00  1.241894248E+02  1.247531520E+02  1.907348633E-06  0.00000E+00  9.000E+00
      21     1     1     2   517   513  6.023334354E+00  1.834892359E+01  1.073779856E+01  2.209669369E+01  8.172577143E-07  0.00000E+00  9.000E+00
      21     1     1     2   514   512  9.417409243E-01 -8.766469493E+00 -1.058580028E+02  1.062245481E+02  0.000000000E+00  0.00000E+00  9.000E+00
</event>
<event>
      5  10001  3.52971E+09  7.79463E+00 -1.00000E+00  2.09153E-01
      21    -1     0     0   515   513  0.000000000E+00  0.000000000E+00  7.240702867E+01  7.240702867E+01  0.000000000E+00  0.00000E+00  9.000E+00
      21    -1     0     0   516   511  0.000000000E+00  0.000000000E+00 -1.281068005E+02  1.281068005E+02  0.000000000E+00  0.00000E+00  9.000E+00
      21     1     1     2   512   513  8.440989471E+00  1.427706948E+01  5.891757676E+01  6.120756381E+01  9.536743164E-07  0.00000E+00  9.000E+00
      21     1     1     2   516   512 -1.150974699E+01 -7.111947188E+00  8.476583042E+00  1.596579245E+01  7.152557373E-07  0.00000E+00  9.000E+00
      21     1     1     2   515   511  3.068757517E+00 -7.165122292E+00 -1.230939317E+02  1.233404729E+02  1.348699152E-06  0.00000E+00  9.000E+00
</event>
<event>
      5  10001  3.52971E+09  2.04280E+01 -1.00000E+00  1.65611E-01
      21    -1     0     0   514   513  0.000000000E+00  0.000000000E+00  2.061615170E+01  2.061615170E+01  0.000000000E+00  0.00000E+00  9.000E+00
      21    -1     0     0   517   514  0.000000000E+00  0.000000000E+00 -1.810172601E+01  1.810172601E+01  0.000000000E+00  0.00000E+00  9.000E+00
      21     1     1     2   517   511 -6.923378308E-01  1.136883562E+01 -1.128919777E+01  1.603669982E+01  2.064765462E-07  0.00000E+00  9.000E+00
      21     1     1     2   512   513  5.247909672E+00 -4.528703746E+00  3.807490963E-01  6.942239078E+00  1.732159844E-07  0.00000E+00  9.000E+00
      21     1     1     2   511   512 -4.555571842E+00 -6.840131871E+00  1.342287436E+01  1.573893881E+01  2.384185791E-07  0.00000E+00  9.000E+00
</event>
<event>
      5  10001  3.52971E+09  4.01519E+00 -1.00000E+00  2.63075E-01
      21    -1     0     0   515   513  0.000000000E+00  0.000000000E+00  1.718039798E+02  1.718039798E+02  0.000000000E+00  0.00000E+00  9.000E+00
      21    -1     0     0   511   516  0.000000000E+00  0.000000000E+00 -1.148573284E+03  1.148573284E+03  0.000000000E+00  0.00000E+00  9.000E+00
      21     1     1     2   515   516 -1.847426485E+00  8.893391127E+00  6.429333364E+00  1.112841938E+01  1.192092896E-06  0.00000E+00  9.000E+00
      21     1     1     2   511   512  5.589328505E+00 -1.034937653E+01 -1.146168838E+03  1.146229190E+03  2.157918644E-05  0.00000E+00  9.000E+00
      21     1     1     2   512   513 -3.741902020E+00  1.455985400E+00  1.629702002E+02  1.630196549E+02  1.907348633E-06  0.00000E+00  9.000E+00
</event>
<event>
      5  10001  3.52971E+09  1.46676E+01 -1.00000E+00  1.78302E-01
      -2    -1     0     0     0   513  0.000000000E+00  0.000000000E+00  1.233792830E+02  1.233792830E+02  0.000000000E+00  0.00000E+00  9.000E+00
      21    -1     0     0   513   511  0.000000000E+00  0.000000000E+00 -4.271846045E+01  4.271846045E+01  0.000000000E+00  0.00000E+00  9.000E+00
      -2     1     1     2     0   512  3.834832481E+00 -7.431141403E+00  8.933208651E+01  8.972323212E+01  3.300000131E-01  0.00000E+00  9.000E+00
      21     1     1     2   512   514  7.958622816E+00  1.615181954E+01  3.001462318E+01  3.500140792E+01  6.743495762E-07  0.00000E+00  9.000E+00
      21     1     1     2   514   511 -1.179345530E+01 -8.720678141E+00 -3.868588718E+01  4.137310337E+01  4.768371582E-07  0.00000E+00  9.000E+00
</event>
<event>
      5  10001  3.52971E+09  1.14975E+01 -1.00000E+00  1.88999E-01
      -4    -1     0     0     0   511  0.000000000E+00  0.000000000E+00  1.757742175E+01  1.757742175E+01  0.000000000E+00  0.00000E+00  9.000E+00
      -1    -1     0     0     0   514  0.000000000E+00  0.000000000E+00 -5.887642835E+00  5.887642835E+00  0.000000000E+00  0.00000E+00  9.000E+00
      -4     1     1     2     0   514 -7.191030305E+00  2.239898659E+00  4.272401731E+00  8.788144252E+00  1.500000000E+00  0.00000E+00  9.000E+00
      -1     1     1     2     0   512  3.908543440E+00  3.928099097E+00  2.264607093E+00  5.995333155E+00  3.300000131E-01  0.00000E+00  9.000E+00
      21     1     1     2   512   511  3.282486864E+00 -6.167997756E+00  5.152770091E+00  8.681587179E+00  8.429369702E-08  0.00000E+00  9.000E+00
</event>
<event>
      5  10001  3.52971E+09  6.53060E+00 -1.00000E+00  2.19898E-01
      21    -1     0     0   513   514  0.000000000E+00  0.000000000E+00  4.330059133E+00  4.330059133E+00  0.000000000E+00  0.00000E+00  9.000E+00
      21    -1     0     0   511   513  0.000000000E+00  0.000000000E+00 -5.393278293E+01  5.393278293E+01  0.000000000E+00  0.00000E+00  9.000E+00
      21     1     1     2   511   515 -7.819018777E-01  1.002739814E+01 -4.635764555E+01  4.743618223E+01  6.743495762E-07  0.00000E+00  9.000E+00
      -2     1     1     2     0   514  1.178591118E-01 -2.118095547E-01 -4.181016995E-01  5.852034668E-01  3.300000131E-01  0.00000E+00  9.000E+00
       2     1     1     2   515     0  6.640427659E-01 -9.815588586E+00 -2.826976552E+00  1.024145637E+01  3.300000131E-01  0.00000E+00  9.000E+00
</event>
<event>
      5  10001  3.52971E+09  3.95500E+00 -1.00000E+00  2.64625E-01
       2    -1     0     0   515     0  0.000000000E+00  0.000000000E+00  1.491586918E+03  1.491586918E+03  0.000000000E+00  0.00000E+00  9.000E+00
      21    -1     0     0   512   511  0.000000000E+00  0.000000000E+00 -1.562679854E+00  1.562679854E+00  0.000000000E+00  0.00000E+00  9.000E+00
      21     1     1     2   515   513  5.657686512E+00  9.201725596E+00  1.664660847E+02  1.668161818E+02  7.629394531E-06  0.00000E+00  9.000E+00
       2     1     1     2   512     0 -9.575793564E+00 -9.740302764E+00  1.322018878E+03  1.322089480E+03  3.300000131E-01  0.00000E+00  9.000E+00
      21     1     1     2   513   511  3.918107053E+00  5.385771680E-01  1.539275578E+00  4.243936562E+00  3.075565016E-07  0.00000E+00  9.000E+00
</event>
<event>
      5  10001  3.52971E+09  6.72317E+00 -1.00000E+00  2.18055E-01
      21    -1     0     0   514   512  0.000000000E+00  0.000000000E+00  7.177241578E+01  7.177241578E+01  0.000000000E+00  0.00000E+00  9.000E+00
       2    -1     0     0   513     0  0.000000000E+00  0.000000000E+00 -1.058428342E+01  1.058428342E+01  0.000000000E+00  0.00000E+00  9.000E+00
      21     1     1     2   513   512 -1.803461318E+01  5.677698710E+00  5.785648015E+01  6.086752690E+01  6.743495762E-07  0.00000E+00  9.000E+00
       2     1     1     2   515     0  9.249972144E+00 -4.429134348E+00 -2.880626833E+00  1.065767924E+01  3.300000131E-01  0.00000E+00  9.000E+00
      21     1     1     2   514   515  8.784641035E+00 -1.248564361E+00  6.212279043E+00  1.083149306E+01  1.685873940E-07  0.00000E+00  9.000E+00
</event>
<event>
      5  10001  3.52971E+09  4.25712E+00 -1.00000E+00  2.57246E-01
      21    -1     0     0   511   513  0.000000000E+00  0.000000000E+00  1.673571024E+01  1.673571024E+01  0.000000000E+00  0.00000E+00  9.000E+00
      21    -1     0     0   512   516  0.000000000E+00  0.000000000E+00 -5.257017677E+01  5.257017677E+01  0.000000000E+00  0.00000E+00  9.000E+00
      21     1     1     2   511   516 -1.040595898E+01 -3.092940531E+00  1.430917203E+01  1.796114327E+01  1.685873940E-07  0.00000E+00  9.000E+00
      21     1     1     2   512   517  1.158192821E+00  6.046716642E-01 -9.422589992E+00  9.512740961E+00  1.192092896E-07  0.00000E+00  9.000E+00
      21     1     1     2   517   513  9.247766161E+00  2.488268867E+00 -4.072104857E+01  4.183200279E+01  8.259061849E-07  0.00000E+00  9.000E+00
</event>
<event>
      5  10001  3.52971E+09  4.76095E+00 -1.00000E+00  2.46827E-01
      21    -1     0     0   514   512  0.000000000E+00  0.000000000E+00  3.606612844E-01  3.606612844E-01  0.000000000E+00  0.00000E+00  9.000E+00
       2    -1     0     0   513     0  0.000000000E+00  0.000000000E+00 -7.279181340E+02  7.279181340E+02  0.000000000E+00  0.00000E+00  9.000E+00
      21     1     1     2   513   511 -1.269311495E+00 -5.856123933E+00 -4.337813981E+01  4.379004856E+01  1.168007728E-06  0.00000E+00  9.000E+00
       2     1     1     2   514     0 -2.481777439E+00  9.470979060E+00 -6.260017833E+02  6.260784298E+02  3.300000131E-01  0.00000E+00  9.000E+00
      21     1     1     2   511   512  3.751088934E+00 -3.614855127E+00 -5.817754968E+01  5.841031700E+01  1.507891493E-06  0.00000E+00  9.000E+00
</event>
<event>
      5  10001  3.52971E+09  1.04963E+01 -1.00000E+00  1.93352E-01
      21    -1     0     0   515   513  0.000000000E+00  0.000000000E+00  6.564197922E+02  6.564197922E+02  0.000000000E+00  0.00000E+00  9.000E+00
      -3    -1     0     0     0   512  0.000000000E+00  0.000000000E+00 -5.633619532E+00  5.633619532E+00  0.000000000E+00  0.00000E+00  9.000E+00
      21     1     1     2   515   512  1.675760298E+01  1.716114949E+01  6.180195019E+02  6.184847832E+02  1.705984480E-05  0.00000E+00  9.000E+00
      21     1     1     2   511   513 -1.488944930E+01 -6.832803918E+00  2.700280692E+01  3.158376943E+01  1.617033478E-06  0.00000E+00  9.000E+00
      -3     1     1     2     0   511 -1.868153679E+00 -1.032834557E+01  5.763863763E+00  1.198485903E+01  5.000000000E-01  0.00000E+00  9.000E+00
</event>
<event>
      5  10001  3.52971E+09  9.03405E+00 -1.00000E+00  2.00994E-01
      21    -1     0     0   512   511  0.000000000E+00  0.000000000E+00  2.946524654E+01  2.946524654E+01  0.000000000E+00  0.00000E+00  9.000E+00
      21    -1     0     0   516   514  0.000000000E+00  0.000000000E+00 -1.378325654E+01  1.378325654E+01  0.000000000E+00  0.00000E+00  9.000E+00
      21     1     1     2   516   517  1.031204790E+01 -8.917904692E+00 -2.948015352E+00  1.394841032E+01  2.598106231E-07  0.00000E+00  9.000E+00
      21     1     1     2   517   511 -1.269487469E+01  2.037707709E-01  1.476709395E+01  1.947481527E+01  1.685873940E-07  0.00000E+00  9.000E+00
      21     1     1     2   512   514  2.382826787E+00  8.714133921E+00  3.862911399E+00  9.825277501E+00  1.264405455E-07  0.00000E+00  9.000E+00
</event>
<event>
      5  10001  3.52971E+09  3.62309E+00 -1.00000E+00  2.74018E-01
       2    -1     0     0   514     0  0.000000000E+00  0.000000000E+00  6.602464365E+02  6.602464365E+02  0.000000000E+00  0.00000E+00  9.000E+00
       2    -1     0     0   512     0  0.000000000E+00  0.000000000E+00 -1.376338949E+01  1.376338949E+01  0.000000000E+00  0.00000E+00  9.000E+00
      21     1     1     2   514   513 -8.475980258E+00 -1.162549239E+01  7.955043820E+01  8.084099537E+01  1.907348633E-06  0.00000E+00  9.000E+00
       2     1     1     2   512     0  7.650699498E+00  1.515331473E+01  5.796717734E+02  5.799203652E+02  3.300000131E-01  0.00000E+00  9.000E+00
       2     1     1     2   513     0  8.252807601E-01 -3.527822339E+00 -1.273916467E+01  1.324846539E+01  3.300000131E-01  0.00000E+00  9.000E+00
</event>
<event>
      5  10001  3.52971E+09  7.11548E+00 -1.00000E+00  2.14549E-01
      21    -1     0     0   514   512  0.000000000E+00  0.000000000E+00  1.182539537E+02  1.182539537E+02  0.000000000E+00  0.00000E+00  9.000E+00
      21    -1     0     0   515   511  0.000000000E+00  0.000000000E+00 -3.125695490E+01  3.125695490E+01  0.000000000E+00  0.00000E+00  9.000E+00
      21     1     1     2   515   516  2.771765430E+00 -1.719588242E+01 -2.567263741E+01  3.102362595E+01  4.768371582E-07  0.00000E+00  9.000E+00
      21     1     1     2   516   512 -8.263637629E+00  1.267156575E+01  1.783816012E+01  2.338923346E+01  3.371747881E-07  0.00000E+00  9.000E+00
      21     1     1     2   514   511  5.491872198E+00  4.524316664E+00  9.483147607E+01  9.509804917E+01  1.348699152E-06  0.00000E+00  9.000E+00
</event>
<event>
      5  10001  3.52971E+09  1.53752E+01 -1.00000E+00  1.76375E-01
       2    -1     0     0   513     0  0.000000000E+00  0.000000000E+00  6.060857072E+00  6.060857072E+00  0.000000000E+00  0.00000E+00  9.000E+00
      21    -1     0     0   515   517  0.000000000E+00  0.000000000E+00 -1.585424542E+02  1.585424542E+02  0.000000000E+00  0.00000E+00  9.000E+00
      21     1     1     2   513   517  1.892555721E+01 -1.909903605E+00 -2.959171658E+01  3.517803487E+01  7.539457465E-07  0.00000E+00  9.000E+00
      21     1     1     2   515   511 -9.500423369E+00  1.405655403E+01 -1.024565761E+02  1.038517922E+02  1.907348633E-06  0.00000E+00  9.000E+00
       2     1     1     2   511     0 -9.425133839E+00 -1.214665042E+01 -2.043330451E+01  2.557348426E+01  3.300000131E-01  0.00000E+00  9.000E+00
</event>
<event>
      5  10001  3.52971E+09  2.10767E+01 -1.00000E+00  1.64509E-01
      21    -1     0     0   512   514  0.000000000E+00  0.000000000E+00  1.072771487E+02  1.072771487E+02  0.000000000E+00  0.00000E+00  9.000E+00
       2    -1     0     0   514     0  0.000000000E+00  0.000000000E+00 -5.847766528E+02  5.847766528E+02  0.000000000E+00  0.00000E+00  9.000E+00
      21     1     1     2   512   513  3.588646354E+00  2.276430889E+00  1.784271130E+01  1.834183379E+01  4.768371582E-07  0.00000E+00  9.000E+00
       2     1     1     2   511     0 -1.299644804E+01  5.920281547E+00 -5.840028872E+02  5.841775745E+02  3.300000131E-01  0.00000E+00  9.000E+00
      21     1     1     2   513   511  9.407801688E+00 -8.196712436E+00  8.866067183E+01  8.953439315E+01  2.132480600E-06  0.00000E+00  9.000E+00
</event>
<event>
      5  10001  3.52971E+09  1.07084E+01 -1.00000E+00  1.92378E-01
      21    -1     0     0   515   511  0.000000000E+00  0.000000000E+00  3.276429170E+00  3.276429170E+00  0.000000000E+00  0.00000E+00  9.000E+00
      21    -1     0     0   513   516  0.000000000E+00  0.000000000E+00 -3.965755036E+02  3.965755036E+02  0.000000000E+00  0.00000E+00  9.000E+00
      21     1     1     2   515   516  1.228445805E+01  8.566167224E+00 -3.653094885E+02  3.656163420E+02  9.344061824E-06  0.00000E+00  9.000E+00
      21     1     1     2   512   511 -2.034332404E+00 -8.220428602E+00 -7.455155433E+00  1.128243313E+01  4.298152060E-07  0.00000E+00  9.000E+00
      21     1     1     2   513   512 -1.025012565E+01 -3.457386217E-01 -2.053443047E+01  2.295315764E+01  3.371747881E-07  0.00000E+00  9.000E+00
</event>
<event>
      5  10001  3.52971E+09  3.85575E+01 -1.00000E+00  1.45834E-01
      21    -1     0     0   514   512  0.000000000E+00  0.000000000E+00  1.787538783E+02  1.787538783E+02  0.000000000E+00  0.00000E+00  9.000E+00
      21    -1     0     0   513   517  0.000000000E+00  0.000000000E+00 -3.628897580E+00  3.628897580E+00  0.000000000E+00  0.00000E+00  9.000E+00
      21     1     1     2   514   517 -1.824285540E+01  4.699376372E+00  1.206509221E+02  1.221127795E+02  0.000000000E+00  0.00000E+00  9.000E+00
      21     1     1     2   511   512 -3.313027220E+00 -2.181047311E+00  6.487564133E+00  7.604051888E+00  8.429369702E-08  0.00000E+00  9.000E+00
      21     1     1     2   513   511  2.155588262E+01 -2.518329061E+00  4.798649447E+01  5.266594448E+01  6.743495762E-07  0.00000E+00  9.000E+00
</event>
<event>
      5  10001  3.52971E+09  1.16507E+01 -1.00000E+00  1.88383E-01
       2    -1     0     0   511     0  0.000000000E+00  0.000000000E+00  1.361447207E+02  1.361447207E+02  0.000000000E+00  0.00000E+00  9.000E+00
      21    -1     0     0   515   511  0.000000000E+00  0.000000000E+00 -9.189355622E+00  9.189355622E+00  0.000000000E+00  0.00000E+00  9.000E+00
      -4     1     1     2     0   512 -3.498620095E-01  2.700003877E+01  8.695390520E+01  9.106237492E+01  1.500000000E+00  0.00000E+00  9.000E+00
       4     1     1     2   515     0  1.461439314E+00 -1.541617868E+01  3.483537389E+00  1.594300482E+01  1.500000000E+00  0.00000E+00  9.000E+00
       2     1     1     2   512     0 -1.111577304E+00 -1.158386009E+01  3.651792245E+01  3.832869654E+01  3.300000131E-01  0.00000E+00  9.000E+00
</event>
<event>
      5  10001  3.52971E+09  5.71280E+00 -1.00000E+00  2.28825E-01
      21    -1     0     0   513   515  0.000000000E+00  0.000000000E+00  4.584662124E+01  4.584662124E+01  0.000000000E+00  0.00000E+00  9.000E+00
      -5    -1     0     0     0   513  0.000000000E+00  0.000000000E+00 -9.967416365E+00  9.967416365E+00  0.000000000E+00  0.00000E+00  9.000E+00
      -5     1     1     2     0   511  6.475768975E+00  4.768836609E+00 -4.232680320E+00  1.027779018E+01  4.800000191E+00  0.00000E+00  9.000E+00
      21     1     1     2   511   514 -6.536219638E+00 -1.038870996E+01  1.312271083E+01  1.796811068E+01  2.920019320E-07  0.00000E+00  9.000E+00
      21     1     1     2   514   515  6.045066293E-02  5.619873353E+00  2.698917437E+01  2.756813676E+01  3.371747881E-07  0.00000E+00  9.000E+00
</event>
<event>
      5  10001  3.52971E+09  3.78671E+00 -1.00000E+00  2.69198E-01
       3    -1     0     0   512     0  0.000000000E+00  0.000000000E+00  3.866990663E+02  3.866990663E+02  0.000000000E+00  0.00000E+00  9.000E+00
       1    -1     0     0   514     0  0.000000000E+00  0.000000000E+00 -6.292095809E-01  6.292095809E-01  0.000000000E+00  0.00000E+00  9.000E+00
       1     1     1     2   512     0 -6.483226675E+00 -7.031638179E+00  4.485608915E+01  4.586560582E+01  3.300000131E-01  0.00000E+00  9.000E+00
       3     1     1     2   511     0  8.633466772E+00  6.103143886E+00  2.946190106E+02  2.948090849E+02  5.000000000E-01  0.00000E+00  9.000E+00
      21     1     1     2   514   511 -2.150240098E+00  9.284942930E-01  4.659475701E+01  4.665358523E+01  9.536743164E-07  0.00000E+00  9.000E+00
</event>
<event>
      5  10001  3.52971E+09  5.97717E+00 -1.00000E+00  2.25723E-01
      21    -1     0     0   513   512  0.000000000E+00  0.000000000E+00  6.193639677E+01  6.193639677E+01  0.000000000E+00  0.00000E+00  9.000E+00
      21    -1     0     0   514   515  0.000000000E+00  0.000000000E+00 -1.503296402E+02  1.503296402E+02  0.000000000E+00  0.00000E+00  9.000E+00
      21     1     1     2   513   515  1.028327246E+01 -7.854880226E+00 -1.450728296E+02  1.456487923E+02  3.814697266E-06  0.00000E+00  9.000E+00
      21     1     1     2   514   511 -8.686032431E+00  2.095077210E+00 -6.670139669E-01  8.959989706E+00  6.400998416E-07  0.00000E+00  9.000E+00
      21     1     1     2   511   512 -1.597240025E+00  5.759803016E+00  5.734660008E+01  5.765725494E+01  9.536743164E-07  0.00000E+00  9.000E+00
</event>
<event>
      5  10001  3.52971E+09  4.07342E+00 -1.00000E+00  2.61614E-01
      21    -1     0     0   513   514  0.000000000E+00  0.000000000E+00  5.800035183E+00  5.800035183E+00  0.000000000E+00  0.00000E+00  9.000E+00
      21    -1     0     0   517   512  0.000000000E+00  0.000000000E+00 -1.019090364E+02  1.019090364E+02  0.000000000E+00  0.00000E+00  9.000E+00
      21     1     1     2   516   512  8.151666141E+00  4.071885826E+00  6.735650335E-01  9.136936298E+00  3.568509225E-07  0.00000E+00  9.000E+00
      21     1     1     2   517   514 -7.744328149E+00 -8.124892617E+00 -8.971734801E+01  9.041676301E+01  9.536743164E-07  0.00000E+00  9.000E+00
      21     1     1     2   513   516 -4.073379923E-01  4.053006791E+00 -7.065218273E+00  8.155372311E+00  8.429369702E-08  0.00000E+00  9.000E+00
</event>
<event>
      5  10001  3.52971E+09  1.26854E+01 -1.00000E+00  1.84523E-01
      21    -1     0     0   511   514  0.000000000E+00  0.000000000E+00  5.684097508E+01  5.684097508E+01  0.000000000E+00  0.00000E+00  9.000E+00
      21    -1     0     0   516   515  0.000000000E+00  0.000000000E+00 -3.081617306E+01  3.081617306E+01  0.000000000E+00  0.00000E+00  9.000E+00
      21     1     1     2   511   515  1.521576963E+01 -7.295248991E+00 -2.073859730E+01  2.673629970E+01  7.152557373E-07  0.00000E+00  9.000E+00
      21     1     1     2   516   512 -1.459030927E+01  1.996523645E+01  2.200346168E+01  3.310045494E+01  5.840038640E-07  0.00000E+00  9.000E+00
      21     1     1     2   512   514 -6.254603589E-01 -1.266998746E+01  2.475993764E+01  2.782039351E+01  0.000000000E+00  0.00000E+00  9.000E+00
</event>
<event>
      5  10001  3.52971E+09  8.98958E+00 -1.00000E+00  2.01256E-01
      21    -1     0     0   513   515  0.000000000E+00  0.000000000E+00  4.653132736E+02  4.653132736E+02  0.000000000E+00  0.00000E+00  9.000E+00
      21    -1     0     0   517   514  0.000000000E+00  0.000000000E+00 -4.054836430E+00  4.054836430E+00  0.000000000E+00  0.00000E+00  9.000E+00
      21     1     1     2   513   514 -1.305185228E+01  3.524688109E+00  4.197817711E+02  4.199994163E+02  0.000000000E+00  0.00000E+00  9.000E+00
      21     1     1     2   511   515  7.662390905E+00 -1.139990999E+00  2.791372236E-01  7.751756668E+00  9.207874719E-07  0.00000E+00  9.000E+00
      21     1     1     2   517   511  5.389461376E+00 -2.384697110E+00  4.119752880E+01  4.161693709E+01  4.768371582E-07  0.00000E+00  9.000E+00
</event>
<event>
      5  10001  3.52971E+09  2.96342E+00 -1.00000E+00  2.98483E-01
      -1    -1     0     0     0   512  0.000000000E+00  0.000000000E+00  2.046687322E+01  2.046687322E+01  0.000000000E+00  0.00000E+00  9.000E+00
      21    -1     0     0   513   514  0.000000000E+00  0.000000000E+00 -2.368654370E+01  2.368654370E+01  0.000000000E+00  0.00000E+00  9.000E+00
      -1     1     1     2     0   511 -3.190839847E+00  9.141908771E+00 -9.248427027E+00  1.339396347E+01  3.300000131E-01  0.00000E+00  9.000E+00
      21     1     1     2   513   512  7.141278467E-01 -1.076858099E+01  1.658943480E+01  1.979094900E+01  3.371747881E-07  0.00000E+00  9.000E+00
      21     1     1     2   511   514  2.476712001E+00  1.626672217E+00 -1.056067825E+01  1.096850446E+01  0.000000000E+00  0.00000E+00  9.000E+00
</event>
<event>
      5  10001  3.52971E+09  4.50935E+00 -1.00000E+00  2.51771E-01
      21    -1     0     0   515   512  0.000000000E+00  0.000000000E+00  1.941827535E+01  1.941827535E+01  0.000000000E+00  0.00000E+00  9.000E+00
      21    -1     0     0   516   515  0.000000000E+00  0.000000000E+00 -1.211534640E+01  1.211534640E+01  0.000000000E+00  0.00000E+00  9.000E+00
      21     1     1     2   513   512 -1.124863492E+01 -6.140174212E-01  1.369595418E+01  1.773380855E+01  1.685873940E-07  0.00000E+00  9.000E+00
      21     1     1     2   517   513  5.757185979E+00  2.691316864E+00 -3.481605659E+00  7.246375288E+00  5.960464478E-08  0.00000E+00  9.000E+00
      21     1     1     2   516   517  5.491448938E+00 -2.077299443E+00 -2.911419570E+00  6.553437902E+00  1.115100797E-07  0.00000E+00  9.000E+00
</event>
<event>
      5  10001  3.52971E+09  4.82856E+00 -1.00000E+00  2.45577E-01
      21    -1     0     0   511   516  0.000000000E+00  0.000000000E+00  9.158452204E+02  9.158452204E+02  0.000000000E+00  0.00000E+00  9.000E+00
       4    -1     0     0   512     0  0.000000000E+00  0.000000000E+00 -2.537635725E+00  2.537635725E+00  0.000000000E+00  0.00000E+00  9.000E+00
      21     1     1     2   511   514  5.278152611E+00 -1.166229542E+01  8.791246500E+02  8.792178446E+02  1.525878906E-05  0.00000E+00  9.000E+00
      21     1     1     2   512   516 -4.542313373E-01  1.181901177E+01  3.103060143E+01  3.320833616E+01  1.685873940E-06  0.00000E+00  9.000E+00
       4     1     1     2   514     0 -4.823921274E+00 -1.567163518E-01  3.152333240E+00  5.956675358E+00  1.500000000E+00  0.00000E+00  9.000E+00
</event>
<event>
      5  10001  3.52971E+09  1.38237E+01 -1.00000E+00  1.80788E-01
      21    -1     0     0   513   512  0.000000000E+00  0.000000000E+00  1.078648467E+00  1.078648467E+00  0.000000000E+00  0.00000E+00  9.000E+00
       1    -1     0     0   514     0  0.000000000E+00  0.000000000E+00 -1.131524213E+03  1.131524213E+03  0.000000000E+00  0.00000E+00  9.000E+00
      21     1     1     2   513   515  1.270130483E+01 -1.308919371E+01 -3.446859924E+02  3.451681959E+02  7.629394531E-06  0.00000E+00  9.000E+00
      21     1     1     2   514   512 -9.038098227E+00 -2.398271814E-01 -2.560573058E+01  2.715507641E+01  2.633419279E-06  0.00000E+00  9.000E+00
       1     1     1     2   515     0 -3.663206602E+00  1.332902090E+01 -7.601538418E+02  7.602795893E+02  3.300000131E-01  0.00000E+00  9.000E+00
</event>
<event>
      5  10001  3.52971E+09  5.38115E+00 -1.00000E+00  2.33067E-01
       2    -1     0     0   511     0  0.000000000E+00  0.000000000E+00  3.733508747E+00  3.733508747E+00  0.000000000E+00  0.00000E+00  9.000E+00
      -1    -1     0     0     0   511  0.000000000E+00  0.000000000E+00 -1.743382799E+02  1.743382799E+02  0.000000000E+00  0.00000E+00  9.000E+00
      -1     1     1     2     0   513  6.218169804E-01  1.267038013E+01 -1.447674861E+02  1.453226036E+02  3.300000131E-01  0.00000E+00  9.000E+00
       2     1     1     2   512     0  1.040779851E+00 -1.596346773E+01 -1.797842181E+01  2.406757311E+01  3.300000131E-01  0.00000E+00  9.000E+00
      21     1     1     2   513   512 -1.662596831E+00  3.293087601E+00 -7.858863263E+00  8.681611945E+00  1.685873940E-07  0.00000E+00  9.000E+00
</event>
<event>
      5  10001  3.52971E+09  5.55002E+00 -1.00000E+00  2.30855E-01
      -2    -1     0     0     0   514  0.000000000E+00  0.000000000E+00  2.912647364E+00  2.912647364E+00  0.000000000E+00  0.00000E+00  9.000E+00
      21    -1     0     0   514   515  0.000000000E+00  0.000000000E+00 -1.452293564E+02  1.452293564E+02  0.000000000E+00  0.00000E+00  9.000E+00
      -2     1     1     2     0   511 -9.744817915E+00 -1.452614155E+01 -4.742641859E+01  5.055041389E+01  3.300000131E-01  0.00000E+00  9.000E+00
       2     1     1     2   511     0  4.717151611E+00  1.217996481E+01 -8.678937532E+01  8.776734946E+01  3.300000131E-01  0.00000E+00  9.000E+00
      -2     1     1     2     0   515  5.027666304E+00  2.346176741E+00 -8.100915108E+00  9.824240396E+00  3.300000131E-01  0.00000E+00  9.000E+00
</event>
<event>
      5  10001  3.52971E+09  5.93302E+00 -1.00000E+00  2.26225E-01
      21    -1     0     0   511   514  0.000000000E+00  0.000000000E+00  3.218323257E+01  3.218323257E+01  0.000000000E+00  0.00000E+00  9.000E+00
      -3    -1     0     0     0   512  0.000000000E+00  0.000000000E+00 -1.704546814E+01  1.704546814E+01  0.000000000E+00  0.00000E+00  9.000E+00
      -3     1     1     2     0   514 -9.153166082E+00  1.171009587E+01 -2.929831526E+00  1.515719985E+01  5.000000000E-01  0.00000E+00  9.000E+00
      21     1     1     2   513   512  5.299552828E+00 -7.200193272E+00 -5.006814032E+00  1.024676681E+01  1.032382731E-07  0.00000E+00  9.000E+00
      21     1     1     2   511   513  3.853613255E+00 -4.509902596E+00  2.307440999E+01  2.382473406E+01  4.768371582E-07  0.00000E+00  9.000E+00
</event>
<event>
      5  10001  3.52971E+09  9.41011E+00 -1.00000E+00  1.98855E-01
      21    -1     0     0   515   513  0.000000000E+00  0.000000000E+00  1.976576207E+02  1.976576207E+02  0.000000000E+00  0.00000E+00  9.000E+00
      21    -1     0     0   514   516  0.000000000E+00  0.000000000E+00 -2.301620164E+00  2.301620164E+00  0.000000000E+00  0.00000E+00  9.000E+00
      21     1     1     2   515   516  3.191735384E+00 -1.159065729E+01  1.613679826E+01  2.012279228E+01  4.129530925E-07  0.00000E+00  9.000E+00
      21     1     1     2   512   513 -8.289573443E-01  1.834170044E+00  9.496546613E+01  9.498679438E+01  1.907348633E-06  0.00000E+00  9.000E+00
      21     1     1     2   514   512 -2.362778039E+00  9.756487244E+00  8.425373619E+01  8.484965425E+01  9.536743164E-07  0.00000E+00  9.000E+00
</event>
<event>
      5  10001  3.52971E+09  8.13113E+00 -1.00000E+00  2.06746E-01
      21    -1     0     0   514   513  0.000000000E+00  0.000000000E+00  6.099032631E+01  6.099032631E+01  0.000000000E+00  0.00000E+00  9.000E+00
      21    -1     0     0   511   512  0.000000000E+00  0.000000000E+00 -9.087664659E+00  9.087664659E+00  0.000000000E+00  0.00000E+00  9.000E+00
      21     1     1     2   514   512  1.497319754E+01  4.741235245E+00  2.509342953E+01  2.960331336E+01  3.371747881E-07  0.00000E+00  9.000E+00
       1     1     1     2   511     0 -1.021184397E+01  1.848479109E+00 -1.969199535E+00  1.056812562E+01  3.300000131E-01  0.00000E+00  9.000E+00
      -1     1     1     2     0   513 -4.761353569E+00 -6.589714355E+00  2.877843166E+01  2.990655199E+01  3.300000131E-01  0.00000E+00  9.000E+00
</event>
<event>
      5  10001  3.52971E+09  4.49180E+00 -1.00000E+00  2.52134E-01
      21    -1     0     0   515   511  0.000000000E+00  0.000000000E+00  3.479219542E+02  3.479219542E+02  0.000000000E+00  0.00000E+00  9.000E+00
      21    -1     0     0   512   513  0.000000000E+00  0.000000000E+00 -1.477962561E+02  1.477962561E+02  0.000000000E+00  0.00000E+00  9.000E+00
      21     1     1     2   515   513 -2.710665906E+01  7.727428824E+00  2.875798532E+02  2.889578794E+02  3.814697266E-06  0.00000E+00  9.000E+00
      21     1     1     2   516   511  2.324516659E+01 -5.432840688E+00  5.722863916E+01  6.200782747E+01  1.907348633E-06  0.00000E+00  9.000E+00
      21     1     1     2   512   516  3.861492471E+00 -2.294588136E+00 -1.446827943E+02  1.447525034E+02  2.697398305E-06  0.00000E+00  9.000E+00
</event>
<event>
      5  10001  3.52971E+09  1.76963E+01 -1.00000E+00  1.70873E-01
      21    -1     0     0   514   513  0.000000000E+00  0.000000000E+00  1.201293451E+02  1.201293451E+02  0.000000000E+00  0.00000E+00  9.000E+00
      21    -1     0     0   512   517  0.000000000E+00  0.000000000E+00 -8.497364516E+01  8.497364516E+01  0.000000000E+00  0.00000E+00  9.000E+00
      21     1     1     2   514   517  1.155542066E+01  4.272474820E+00  1.189700820E+02  1.196062800E+02  1.348699152E-06  0.00000E+00  9.000E+00
      21     1     1     2   512   511 -7.397218835E+00  2.175006998E+00 -2.440549172E+01  2.559448237E+01  5.840038640E-07  0.00000E+00  9.000E+00
      21     1     1     2   511   513 -4.158201823E+00 -6.447481818E+00 -5.940889034E+01  5.990222797E+01  9.536743164E-07  0.00000E+00  9.000E+00
</event>
<event>
      5  10001  3.52971E+09  7.72985E+00 -1.00000E+00  2.09635E-01
      21    -1     0     0   515   512  0.000000000E+00  0.000000000E+00  1.826529952E+02  1.826529952E+02  0.000000000E+00  0.00000E+00  9.000E+00
      21    -1     0     0   514   515  0.000000000E+00  0.000000000E+00 -2.439031657E+00  2.439031657E+00  0.000000000E+00  0.00000E+00  9.000E+00
      21     1     1     2   513   516  1.005640527E+01 -1.021049402E+01  3.231165651E+01  3.534725763E+01  4.768371582E-07  0.00000E+00  9.000E+00
      21     1     1     2   516   512 -1.094597646E+01  2.532004738E+00  1.263442539E+02  1.268428001E+02  2.336015456E-06  0.00000E+00  9.000E+00
      21     1     1     2   514   513  8.895711909E-01  7.678489278E+00  2.155805317E+01  2.290196915E+01  0.000000000E+00  0.00000E+00  9.000E+00
</event>
<event>
      5  10001  3.52971E+09  1.11032E+01 -1.00000E+00  1.90642E-01
      21    -1     0     0   511   516  0.000000000E+00  0.000000000E+00  6.670533557E+01  6.670533557E+01  0.000000000E+00  0.00000E+00  9.000E+00
      21    -1     0     0   514   512  0.000000000E+00  0.000000000E+00 -3.610860134E+01  3.610860134E+01  0.000000000E+00  0.00000E+00  9.000E+00
      21     1     1     2   511   513 -1.891262228E+01  1.704624674E+00  5.833178443E+01  6.134484576E+01  9.536743164E-07  0.00000E+00  9.000E+00
      21     1     1     2   514   516  7.831963863E+00 -9.972966385E-01 -2.921924603E+01  3.026712073E+01  5.840038640E-07  0.00000E+00  9.000E+00
      21     1     1     2   513   512  1.108065841E+01 -7.073280359E-01  1.484195831E+00  1.120197041E+01  1.349357536E-07  0.00000E+00  9.000E+00
</event>
<event>
      5  10001  3.52971E+09  1.36977E+01 -1.00000E+00  1.81178E-01
       2    -1     0     0   515     0  0.000000000E+00  0.000000000E+00  1.481783294E+03  1.481783294E+03  0.000000000E+00  0.00000E+00  9.000E+00
      21    -1     0     0   513   517  0.000000000E+00  0.000000000E+00 -1.277052773E+01  1.277052773E+01  0.000000000E+00  0.00000E+00  9.000E+00
      21     1     1     2   515   517 -1.762899406E+01 -2.074164794E+01  1.533816420E+02  1.557784500E+02  1.907348633E-06  0.00000E+00  9.000E+00
      21     1     1     2   513   512  1.268878637E+01  7.965814863E+00 -6.672569268E+00  1.640069165E+01  6.251387883E-07  0.00000E+00  9.000E+00
       2     1     1     2   512     0  4.940207689E+00  1.277583308E+01  1.322303694E+03  1.322374680E+03  3.300000131E-01  0.00000E+00  9.000E+00
</event>
<event>
      5  10001  3.52971E+09  3.19880E+01 -1.00000E+00  1.51127E-01
      -1    -1     0     0     0   511  0.000000000E+00  0.000000000E+00  2.232047349E+01  2.232047349E+01  0.000000000E+00  0.00000E+00  9.000E+00
       1    -1     0     0   513     0  0.000000000E+00  0.000000000E+00 -4.610036343E+01  4.610036343E+01  0.000000000E+00  0.00000E+00  9.000E+00
      21     1     1     2   513   512 -1.047102097E+01  1.741710203E+01 -1.065799283E+01  2.294756053E+01  3.769728732E-07  0.00000E+00  9.000E+00
      -1     1     1     2     0   511  1.472795092E+01 -1.019803326E+01  1.025016026E+01  2.064187748E+01  3.300000131E-01  0.00000E+00  9.000E+00
       1     1     1     2   512     0 -4.256929958E+00 -7.219068770E+00 -2.337205736E+01  2.483139891E+01  3.300000131E-01  0.00000E+00  9.000E+00
</event>
<event>
      5  10001  3.52971E+09  3.15478E+01 -1.00000E+00  1.51535E-01
       2    -1     0     0   513     0  0.000000000E+00  0.000000000E+00  5.529774063E+02  5.529774063E+02  0.000000000E+00  0.00000E+00  9.000E+00
       2    -1     0     0   512     0  0.000000000E+00  0.000000000E+00 -7.331628531E+02  7.331628531E+02  0.000000000E+00  0.00000E+00  9.000E+00
       2     1     1     2   512     0 -1.316779822E+01  5.545759403E+00  5.527412796E+02  5.529260144E+02  3.300000131E-01  0.00000E+00  9.000E+00
      21     1     1     2   513   511 -1.215274268E+00 -5.372088656E+00 -1.312529049E+02  1.313684181E+02  2.697398305E-06  0.00000E+00  9.000E+00
       2     1     1     2   511     0  1.438307248E+01 -1.736707474E-01 -6.016738216E+02  6.018458269E+02  3.300000131E-01  0.00000E+00  9.000E+00
</event>
<event>
      5  10001  3.52971E+09  5.90489E+00 -1.00000E+00  2.26549E-01
      -1    -1     0     0     0   514  0.000000000E+00  0.000000000E+00  5.810969171E+01  5.810969171E+01  0.000000000E+00  0.00000E+00  9.000E+00
      21    -1     0     0   514   512  0.000000000E+00  0.000000000E+00 -1.117063492E+03  1.117063492E+03  0.000000000E+00  0.00000E+00  9.000E+00
      -1     1     1     2     0   511  7.561077015E-01  7.938852373E+00  5.731441458E+01  5.786750465E+01  3.300000131E-01  0.00000E+00  9.000E+00
      21     1     1     2   511   515 -5.426232288E+00 -1.155239014E+01 -7.929243600E+01  8.031308811E+01  9.536743164E-07  0.00000E+00  9.000E+00
      21     1     1     2   515   512  4.670124587E+00  3.613537771E+00 -1.036975779E+03  1.036992591E+03  1.525878906E-05  0.00000E+00  9.000E+00
</event>
<event>
      5  10001  3.52971E+09  6.92072E+00 -1.00000E+00  2.16249E-01
      21    -1     0     0   513   511  0.000000000E+00  0.000000000E+00  8.549335154E+00  8.549335154E+00  0.000000000E+00  0.00000E+00  9.000E+00
      21    -1     0     0   514   513  0.000000000E+00  0.000000000E+00 -9.113495666E+01  9.113495666E+01  0.000000000E+00  0.00000E+00  9.000E+00
      21     1     1     2   514   512 -1.126789899E+01  4.648512029E+00 -8.432540419E+01  8.520180751E+01  1.348699152E-06  0.00000E+00  9.000E+00
      21     1     1     2   512   516  2.763001264E+00 -2.835882019E+00  3.862429012E+00  5.531253084E+00  1.032382731E-07  0.00000E+00  9.000E+00
      21     1     1     2   516   511  8.504897725E+00 -1.812630010E+00 -2.122646327E+00  8.951231217E+00  1.632340424E-07  0.00000E+00  9.000E+00
</event>
<event>
      5  10001  3.52971E+09  1.24034E+01 -1.00000E+00  1.85527E-01
      21    -1     0     0   515   512  0.000000000E+00  0.000000000E+00  1.697467146E+00  1.697467146E+00  0.000000000E+00  0.00000E+00  9.000E+00
      21    -1     0     0   511   515  0.000000000E+00  0.000000000E+00 -1.299031518E+02  1.299031518E+02  0.000000000E+00  0.00000E+00  9.000E+00
      21     1     1     2   511   514 -2.068120670E+00 -6.258016622E+00 -7.081382034E+01  7.111987799E+01  0.000000000E+00  0.00000E+00  9.000E+00
      21     1     1     2   514   513 -1.381147411E+00  5.755257750E+00 -4.401589121E+00  7.375943786E+00  2.665600750E-07  0.00000E+00  9.000E+00
      21     1     1     2   513   512  3.449268081E+00  5.027588720E-01 -5.299027520E+01  5.310479717E+01  6.743495762E-07  0.00000E+00  9.000E+00
</event>
<event>
      5  10001  3.52971E+09  3.78653E+00 -1.00000E+00  2.69203E-01
       1    -1     0     0   514     0  0.000000000E+00  0.000000000E+00  1.019016561E+03  1.019016561E+03  0.000000000E+00  0.00000E+00  9.000E+00
      21    -1     0     0   513   515  0.000000000E+00  0.000000000E+00 -3.010367753E-01  3.010367753E-01  0.000000000E+00  0.00000E+00  9.000E+00
      21     1     1     2   514   515 -2.726237558E+00  1.137027914E+01  1.322281221E+02  1.327440842E+02  3.303624740E-06  0.00000E+00  9.000E+00
       1     1     1     2   511     0  1.136661593E+00 -4.537897301E+00  5.037747534E+02  5.037965815E+02  3.300000131E-01  0.00000E+00  9.000E+00
      21     1     1     2   513   511  1.589575965E+00 -6.832381840E+00  3.827126484E+02  3.827769317E+02  7.629394531E-06  0.00000E+00  9.000E+00
</event>
<event>
      5  10001  3.52971E+09  4.92409E+00 -1.00000E+00  2.43861E-01
      21    -1     0     0   512   511  0.000000000E+00  0.000000000E+00  1.320208585E+00  1.320208585E+00  0.000000000E+00  0.00000E+00  9.000E+00
      21    -1     0     0   513   516  0.000000000E+00  0.000000000E+00 -2.469943070E+02  2.469943070E+02  0.000000000E+00  0.00000E+00  9.000E+00
      21     1     1     2   512   516 -1.012467766E+01  1.066741149E+01 -1.820691239E+02  1.826621708E+02  3.814697266E-06  0.00000E+00  9.000E+00
      21     1     1     2   513   514  7.802554075E+00 -4.926672169E+00 -2.715476328E+01  2.867983817E+01  4.768371582E-07  0.00000E+00  9.000E+00
      21     1     1     2   514   511  2.322123580E+00 -5.740739322E+00 -3.645021124E+01  3.697250661E+01  4.768371582E-07  0.00000E+00  9.000E+00
</event>
<event>
      5  10001  3.52971E+09  7.34435E+00 -1.00000E+00  2.12642E-01
      21    -1     0     0   515   513  0.000000000E+00  0.000000000E+00  7.400895317E+00  7.400895317E+00  0.000000000E+00  0.00000E+00  9.000E+00
      21    -1     0     0   512   515  0.000000000E+00  0.000000000E+00 -3.650988375E+02  3.650988375E+02  0.000000000E+00  0.00000E+00  9.000E+00
      21     1     1     2   511   517 -8.920286970E+00 -1.117243788E+01 -4.414916991E+01  4.640629367E+01  0.000000000E+00  0.00000E+00  9.000E+00
      21     1     1     2   517   513  4.572216925E+00  5.253507477E+00  4.283474995E+00  8.176347990E+00  2.384185791E-07  0.00000E+00  9.000E+00
      21     1     1     2   512   511  4.348070045E+00  5.918930406E+00 -3.178322472E+02  3.179170911E+02  0.000000000E+00  0.00000E+00  9.000E+00
</event>
<event>
      5  10001  3.52971E+09  3.37473E+00 -1.00000E+00  2.82162E-01
      21    -1     0     0   514   513  0.000000000E+00  0.000000000E+00  1.664783255E+01  1.664783255E+01  0.000000000E+00  0.00000E+00  9.000E+00
      21    -1     0     0   512   514  0.000000000E+00  0.000000000E+00 -1.064348464E+02  1.064348464E+02  0.000000000E+00  0.00000E+00  9.000E+00
      21     1     1     2   516   511 -8.237553098E+00  2.936344325E+00 -2.155661528E+01  2.326299769E+01  4.768371582E-07  0.00000E+00  9.000E+00
      21     1     1     2   512   516  1.050640906E+01 -5.434566421E+00 -8.342266370E+01  8.425710630E+01  9.536743164E-07  0.00000E+00  9.000E+00
      21     1     1     2   511   513 -2.268855967E+00  2.498222096E+00  1.519226511E+01  1.556257498E+01  1.685873940E-07  0.00000E+00  9.000E+00
</event>
<event>
      5  10001  3.52971E+09  1.16468E+01 -1.00000E+00  1.88399E-01
      21    -1     0     0   516   514  0.000000000E+00  0.000000000E+00  1.772403525E+02  1.772403525E+02  0.000000000E+00  0.00000E+00  9.000E+00
      -5    -1     0     0     0   515  0.000000000E+00  0.000000000E+00 -6.272707893E+01  6.272707893E+01  0.000000000E+00  0.00000E+00  9.000E+00
      -5     1     1     2     0   512  1.783428210E+01  2.386669270E+01 -4.577211192E+01  5.482523935E+01  4.800000191E+00  0.00000E+00  9.000E+00
      21     1     1     2   516   515 -2.947320674E+01 -2.375542951E+01  1.719147947E+01  4.157568175E+01  0.000000000E+00  0.00000E+00  9.000E+00
      21     1     1     2   512   514  1.163892465E+01 -1.112631942E-01  1.430939060E+02  1.435665103E+02  1.907348633E-06  0.00000E+00  9.000E+00
</event>
<event>
      5  10001  3.52971E+09  1.01243E+01 -1.00000E+00  1.95135E-01
      21    -1     0     0   511   514  0.000000000E+00  0.000000000E+00  1.740651081E+02  1.740651081E+02  0.000000000E+00  0.00000E+00  9.000E+00
      21    -1     0     0   512   513  0.000000000E+00  0.000000000E+00 -1.405211614E+01  1.405211614E+01  0.000000000E+00  0.00000E+00  9.000E+00
      21     1     1     2   511   513  8.683668619E+00 -8.865634740E+00  1.706096064E+02  1.710603501E+02  1.907348633E-06  0.00000E+00  9.000E+00
      21     1     1     2   512   515 -3.187122027E+00  4.740676226E-01 -1.672465170E+00  3.630375555E+00  2.179851955E-07  0.00000E+00  9.000E+00
      21     1     1     2   515   514 -5.496546593E+00  8.391567117E+00 -8.924149297E+00  1.342649857E+01  7.996802250E-07  0.00000E+00  9.000E+00
</event>
<event>
      5  10001  3.52971E+09  1.30634E+01 -1.00000E+00  1.83228E-01
      21    -1     0     0   516   512  0.000000000E+00  0.000000000E+00  2.247369733E+02  2.247369733E+02  0.000000000E+00  0.00000E+00  9.000E+00
       3    -1     0     0   514     0  0.000000000E+00  0.000000000E+00 -9.341252431E+00  9.341252431E+00  0.000000000E+00  0.00000E+00  9.000E+00
      21     1     1     2   514   517  1.097531647E+01  1.380034641E+01  3.080457607E+01  3.549407048E+01  0.000000000E+00  0.00000E+00  9.000E+00
      21     1     1     2   517   512 -3.722506074E+00 -2.935853999E+00  1.854245133E+02  1.854851111E+02  0.000000000E+00  0.00000E+00  9.000E+00
       3     1     1     2   516     0 -7.252810392E+00 -1.086449241E+01 -8.333685718E-01  1.309904413E+01  5.000000000E-01  0.00000E+00  9.000E+00
</event>
<event>
      5  10001  3.52971E+09  7.28321E+00 -1.00000E+00  2.13142E-01
      21    -1     0     0   511   515  0.000000000E+00  0.000000000E+00  1.771888568E+01  1.771888568E+01  0.000000000E+00  0.00000E+00  9.000E+00
      21    -1     0     0   514   513  0.000000000E+00  0.000000000E+00 -3.366353863E+01  3.366353863E+01  0.000000000E+00  0.00000E+00  9.000E+00
      21     1     1     2   511   513 -1.357309234E+01  1.199078248E+01 -2.443845546E+01  3.041785340E+01  0.000000000E+00  0.00000E+00  9.000E+00
      21     1     1     2   512   515  4.906612437E+00 -7.723370340E+00  2.124258379E+00  9.393496084E+00  1.460009660E-07  0.00000E+00  9.000E+00
      21     1     1     2   514   512  8.666479904E+00 -4.267412135E+00  6.369544132E+00  1.157107483E+01  8.429369702E-08  0.00000E+00  9.000E+00
</event>
<event>
      5  10001  3.52971E+09  4.96070E+00 -1.00000E+00  2.43219E-01
       1    -1     0     0   513     0  0.000000000E+00  0.000000000E+00  1.129589783E+03  1.129589783E+03  0.000000000E+00  0.00000E+00  9.000E+00
      21    -1     0     0   516   511  0.000000000E+00  0.000000000E+00 -3.078589000E-01  3.078589000E-01  0.000000000E+00  0.00000E+00  9.000E+00
      21     1     1     2   513   512 -1.417235738E+01 -4.742201793E-01  6.597623134E+02  6.599146845E+02  0.000000000E+00  0.00000E+00  9.000E+00
       1     1     1     2   516     0  1.088224485E+01 -3.237595225E+00  4.304392428E+02  4.305890801E+02  3.300000131E-01  0.00000E+00  9.000E+00
      21     1     1     2   512   511  3.290112533E+00  3.711815404E+00  3.908036764E+01  3.939387705E+01  1.651812370E-06  0.00000E+00  9.000E+00
</event>
<event>
      5  10001  3.52971E+09  4.73383E+00 -1.00000E+00  2.47338E-01
      21    -1     0     0   512   515  0.000000000E+00  0.000000000E+00  1.050664173E+01  1.050664173E+01  0.000000000E+00  0.00000E+00  9.000E+00
       3    -1     0     0   515     0  0.000000000E+00  0.000000000E+00 -1.114992792E+01  1.114992792E+01  0.000000000E+00  0.00000E+00  9.000E+00
      21     1     1     2   512   513  8.272579037E+00  1.150106262E+00  3.052689646E+00  8.892537456E+00  2.230201594E-07  0.00000E+00  9.000E+00
       3     1     1     2   514     0 -9.375635084E+00  6.678403617E-02 -7.853511590E-01  9.421983325E+00  5.000000000E-01  0.00000E+00  9.000E+00
      21     1     1     2   513   514  1.103056047E+00 -1.216890298E+00 -2.910624677E+00  3.342048870E+00  5.960464478E-08  0.00000E+00  9.000E+00
</event>
<event>
      5  10001  3.52971E+09  6.56896E+00 -1.00000E+00  2.19524E-01
      21    -1     0     0   511   514  0.000000000E+00  0.000000000E+00  9.762284484E+00  9.762284484E+00  0.000000000E+00  0.00000E+00  9.000E+00
       2    -1     0     0   513     0  0.000000000E+00  0.000000000E+00 -1.260359770E+01  1.260359770E+01  0.000000000E+00  0.00000E+00  9.000E+00
      21     1     1     2   512   514  2.295681498E+00 -3.126454549E+00  2.391348667E+00  4.556689591E+00  2.980232239E-08  0.00000E+00  9.000E+00
       2     1     1     2   511     0 -9.002740876E+00  2.667167213E+00 -5.834502051E+00  1.105954061E+01  3.300000131E-01  0.00000E+00  9.000E+00
      21     1     1     2   513   512  6.707059378E+00  4.592873352E-01  6.018401683E-01  6.749651987E+00  7.028863677E-08  0.00000E+00  9.000E+00
</event>
<event>
      5  10001  3.52971E+09  8.71696E+00 -1.00000E+00  2.02908E-01
      21    -1     0     0   515   512  0.000000000E+00  0.000000000E+00  3.852790637E+01  3.852790637E+01  0.000000000E+00  0.00000E+00  9.000E+00
      21    -1     0     0   511   515  0.000000000E+00  0.000000000E+00 -2.275912113E+02  2.275912113E+02  0.000000000E+00  0.00000E+00  9.000E+00
      21     1     1     2   516   512 -8.195470379E-01 -8.731886379E+00  3.643766405E+01  3.747827182E+01  6.743495762E-07  0.00000E+00  9.000E+00
      21     1     1     2   513   516  9.519169592E+00  9.281355129E+00 -2.851492319E+01  3.146202453E+01  8.259061849E-07  0.00000E+00  9.000E+00
      21     1     1     2   511   513 -8.699622555E+00 -5.494687502E-01 -1.969860458E+02  1.971788213E+02  2.697398305E-06  0.00000E+00  9.000E+00
</event>
<event>
      5  10001  3.52971E+09  2.83110E+01 -1.00000E+00  1.54806E-01
      21    -1     0     0   512   516  0.000000000E+00  0.000000000E+00  2.174585893E+01  2.174585893E+01  0.000000000E+00  0.00000E+00  9.000E+00
      21    -1     0     0   511   514  0.000000000E+00  0.000000000E+00 -7.321254163E+01  7.321254163E+01  0.000000000E+00  0.00000E+00  9.000E+00
      21     1     1     2   513   516 -1.826453889E+01  2.053661990E+00 -1.913764817E+01  2.653413812E+01  2.384185791E-07  0.00000E+00  9.000E+00
      21     1     1     2   511   513  1.826166447E+01  2.625736010E+01 -1.650384414E+01  3.599047402E+01  4.768371582E-07  0.00000E+00  9.000E+00
      21     1     1     2   512   514  2.874420105E-03 -2.831102209E+01 -1.582519039E+01  3.243378842E+01  6.743495762E-07  0.00000E+00  9.000E+00
</event>
<event>
      5  10001  3.52971E+09  9.36204E+00 -1.00000E+00  1.99121E-01
      21    -1     0     0   513   511  0.000000000E+00  0.000000000E+00  5.766058161E+02  5.766058161E+02  0.000000000E+00  0.00000E+00  9.000E+00
      21    -1     0     0   516   517  0.000000000E+00  0.000000000E+00 -1.505393083E+00  1.505393083E+00  0.000000000E+00  0.00000E+00  9.000E+00
      21     1     1     2   515   517  3.819960248E+00 -1.455314417E+01  7.866473993E+01  8.009074485E+01  9.536743164E-07  0.00000E+00  9.000E+00
      21     1     1     2   516   511 -1.161495981E+01  9.368001087E+00  7.443673595E+01  7.591768170E+01  0.000000000E+00  0.00000E+00  9.000E+00
      21     1     1     2   513   515  7.794999564E+00  5.185143080E+00  4.219989472E+02  4.221027827E+02  0.000000000E+00  0.00000E+00  9.000E+00
</event>
<event>
      5  10001  3.52971E+09  2.34786E+00 -1.00000E+00  3.33403E-01
      -2    -1     0     0     0   512  0.000000000E+00  0.000000000E+00  6.302429653E+00  6.302429653E+00  0.000000000E+00  0.00000E+00  9.000E+00
      21    -1     0     0   514   513  0.000000000E+00  0.000000000E+00 -2.774146534E+01  2.774146534E+01  0.000000000E+00  0.00000E+00  9.000E+00
      -2     1     1     2     0   513 -1.047482095E+01 -4.794328577E+00 -7.220384487E+00  1.359964384E+01  3.300000131E-01  0.00000E+00  9.000E+00
      21     1     1     2   511   512  9.792815779E+00  7.040518790E+00 -1.022591839E+01  1.581257577E+01  2.665600750E-07  0.00000E+00  9.000E+00
      21     1     1     2   514   511  6.820051697E-01 -2.246190213E+00 -3.992732812E+00  4.631675381E+00  8.429369702E-08  0.00000E+00  9.000E+00
</event>
<event>
      5  10001  3.52971E+09  6.50644E+00 -1.00000E+00  2.20136E-01
      21    -1     0     0   515   514  0.000000000E+00  0.000000000E+00  5.172237704E+01  5.172237704E+01  0.000000000E+00  0.00000E+00  9.000E+00
      -3    -1     0     0     0   515  0.000000000E+00  0.000000000E+00 -2.664372622E+00  2.664372622E+00  0.000000000E+00  0.00000E+00  9.000E+00
      -3     1     1     2     0   512 -8.951852957E+00  1.703453029E+00  1.089858271E+01  1.421501068E+01  5.000000000E-01  0.00000E+00  9.000E+00
      21     1     1     2   513   514  4.922667937E+00 -6.846490675E-01  3.374403339E+01  3.410808105E+01  4.768371582E-07  0.00000E+00  9.000E+00
      21     1     1     2   512   513  4.029185019E+00 -1.018803961E+00  4.415388323E+00  6.063657928E+00  5.960464478E-08  0.00000E+00  9.000E+00
</event>
<event>
      5  10001  3.52971E+09  1.58133E+01 -1.00000E+00  1.75246E-01
      21    -1     0     0   511   513  0.000000000E+00  0.000000000E+00  3.919871143E+01  3.919871143E+01  0.000000000E+00  0.00000E+00  9.000E+00
      21    -1     0     0   513   514  0.000000000E+00  0.000000000E+00 -7.009856611E+00  7.009856611E+00  0.000000000E+00  0.00000E+00  9.000E+00
      -5     1     1     2     0   514 -9.277811538E+00 -8.413955149E-01  5.101755296E+00  1.165562707E+01  4.800000191E+00  0.00000E+00  9.000E+00
       5     1     1     2   515     0  7.146377706E+00 -5.939546948E+00  2.507006166E+01  2.716425824E+01  4.800000191E+00  0.00000E+00  9.000E+00
      21     1     1     2   511   515  2.131433833E+00  6.780942463E+00  2.017037868E+00  7.388682740E+00  1.659323085E-07  0.00000E+00  9.000E+00
</event>
<event>
      5  10001  3.52971E+09  7.44614E+00 -1.00000E+00  2.11824E-01
       2    -1     0     0   514     0  0.000000000E+00  0.000000000E+00  1.814854410E+03  1.814854410E+03  0.000000000E+00  0.00000E+00  9.000E+00
      21    -1     0     0   513   512  0.000000000E+00  0.000000000E+00 -7.532809181E-01  7.532809181E-01  0.000000000E+00  0.00000E+00  9.000E+00
      21     1     1     2   514   512  1.135023168E+01 -1.415444108E+00  6.720707652E+01  6.817347267E+01  4.573661350E-06  0.00000E+00  9.000E+00
       2     1     1     2   511     0 -1.118463053E+01  8.859586835E+00  1.689366602E+03  1.689426889E+03  3.300000131E-01  0.00000E+00  9.000E+00
      21     1     1     2   513   511 -1.656011461E-01 -7.444142727E+00  5.752745024E+01  5.800732898E+01  0.000000000E+00  0.00000E+00  9.000E+00
</event>
<event>
      5  10001  3.52971E+09  7.07493E+00 -1.00000E+00  2.14897E-01
      21    -1     0     0   515   516  0.000000000E+00  0.000000000E+00  6.468089022E+00  6.468089022E+00  0.000000000E+00  0.00000E+00  9.000E+00
      -1    -1     0     0     0   515  0.000000000E+00  0.000000000E+00 -4.150007385E+02  4.150007385E+02  0.000000000E+00  0.00000E+00  9.000E+00
      21     1     1     2   511   516 -8.352311631E+00  6.724821479E+00  1.345701784E+00  1.080718496E+01  4.267043192E-07  0.00000E+00  9.000E+00
      21     1     1     2   513   511  1.542673116E+01 -6.653846313E+00 -2.153284490E+02  2.159828666E+02  2.697398305E-06  0.00000E+00  9.000E+00
      -1     1     1     2     0   513 -7.074419530E+00 -7.097516600E-02 -1.945499022E+02  1.946787759E+02  3.300000131E-01  0.00000E+00  9.000E+00
</event>
<event>
      5  10001  3.52971E+09  1.65428E+01 -1.00000E+00  1.73466E-01
       2    -1     0     0   514     0  0.000000000E+00  0.000000000E+00  1.665101755E+01  1.665101755E+01  0.000000000E+00  0.00000E+00  9.000E+00
      21    -1     0     0   512   513  0.000000000E+00  0.000000000E+00 -4.819124584E+01  4.819124584E+01  0.000000000E+00  0.00000E+00  9.000E+00
      21     1     1     2   514   511  7.551703516E+00  1.358804527E+01 -2.130256882E+01  2.637162563E+01  2.384185791E-07  0.00000E+00  9.000E+00
       2     1     1     2   512     0 -1.567349857E+00 -1.256708283E+01  1.075470301E+01  1.661808332E+01  3.300000131E-01  0.00000E+00  9.000E+00
      21     1     1     2   511   513 -5.984353659E+00 -1.020962444E+00 -2.099236248E+01  2.185255444E+01  0.000000000E+00  0.00000E+00  9.000E+00
</event>
<event>
      5  10001  3.52971E+09  1.20015E+01 -1.00000E+00  1.87018E-01
      21    -1     0     0   511   512  0.000000000E+00  0.000000000E+00  4.840954269E-01  4.840954269E-01  0.000000000E+00  0.00000E+00  9.000E+00
       2    -1     0     0   512     0  0.000000000E+00  0.000000000E+00 -8.147601682E+02  8.147601682E+02  0.000000000E+00  0.00000E+00  9.000E+00
      21     1     1     2   514   515  3.238279289E+00 -7.577890123E+00 -1.159523515E+02  1.162448222E+02  0.000000000E+00  0.00000E+00  9.000E+00
       2     1     1     2   515     0 -3.413760052E+00  1.000639211E+01 -6.936399825E+02  6.937206324E+02  3.300000131E-01  0.00000E+00  9.000E+00
      21     1     1     2   511   514  1.754807630E-01 -2.428501988E+00 -4.683738753E+00  5.278808967E+00  2.665600750E-07  0.00000E+00  9.000E+00
</event>
<event>
      5  10001  3.52971E+09  1.62167E+01 -1.00000E+00  1.74247E-01
      21    -1     0     0   513   515  0.000000000E+00  0.000000000E+00  1.196261578E+02  1.196261578E+02  0.000000000E+00  0.00000E+00  9.000E+00
      21    -1     0     0   512   514  0.000000000E+00  0.000000000E+00 -1.883887979E+00  1.883887979E+00  0.000000000E+00  0.00000E+00  9.000E+00
      21     1     1     2   513   514 -2.780173165E+00 -6.384026544E+00  1.370141872E+01  1.536925608E+01  0.000000000E+00  0.00000E+00  9.000E+00
      21     1     1     2   516   515  1.119193509E+01  5.724072066E+00  6.256983162E+01  6.382012411E+01  6.743495762E-07  0.00000E+00  9.000E+00
      21     1     1     2   512   516 -8.411761928E+00  6.599544775E-01  4.147101950E+01  4.232066560E+01  0.000000000E+00  0.00000E+00  9.000E+00
</event>
<event>
      5  10001  3.52971E+09  6.13567E+00 -1.00000E+00  2.23968E-01
       1    -1     0     0   514     0  0.000000000E+00  0.000000000E+00  5.757081726E+02  5.757081726E+02  0.000000000E+00  0.00000E+00  9.000E+00
      21    -1     0     0   516   513  0.000000000E+00  0.000000000E+00 -4.031132684E+00  4.031132684E+00  0.000000000E+00  0.00000E+00  9.000E+00
      21     1     1     2   516   511  7.625633853E-01  7.308673969E+00 -3.446123705E-01  7.356424116E+00  1.305271763E-06  0.00000E+00  9.000E+00
       1     1     1     2   511     0 -1.470573447E-01 -1.341326483E+01  3.113075793E+02  3.115966225E+02  3.300000131E-01  0.00000E+00  9.000E+00
      21     1     1     2   514   513 -6.155060406E-01  6.104590863E+00  2.607140730E+02  2.607862587E+02  0.000000000E+00  0.00000E+00  9.000E+00
</event>
<event>
      5  10001  3.52971E+09  7.54726E+00 -1.00000E+00  2.11029E-01
      21    -1     0     0   512   511  0.000000000E+00  0.000000000E+00  2.438811855E+02  2.438811855E+02  0.000000000E+00  0.00000E+00  9.000E+00
       2    -1     0     0   516     0  0.000000000E+00  0.000000000E+00 -4.367532346E+02  4.367532346E+02  0.000000000E+00  0.00000E+00  9.000E+00
      21     1     1     2   512   515  1.659877274E+01  5.825208898E+00 -2.167560726E+01  2.791566344E+01  1.784161275E-06  0.00000E+00  9.000E+00
      21     1     1     2   516   511 -2.010393979E+01  8.587190053E-01  2.403059846E+02  2.411469926E+02  0.000000000E+00  0.00000E+00  9.000E+00
       2     1     1     2   515     0  3.505167052E+00 -6.683927904E+00 -4.115024265E+02  4.115717641E+02  3.300000131E-01  0.00000E+00  9.000E+00
</event>
<event>
      5  10001  3.52971E+09  4.18934E+00 -1.00000E+00  2.58817E-01
       2    -1     0     0   512     0  0.000000000E+00  0.000000000E+00  1.242937099E+03  1.242937099E+03  0.000000000E+00  0.00000E+00  9.000E+00
      21    -1     0     0   514   511  0.000000000E+00  0.000000000E+00 -6.573847661E+00  6.573847661E+00  0.000000000E+00  0.00000E+00  9.000E+00
      21     1     1     2   514   513  1.346269615E+01 -9.709829990E-01  7.616636611E+01  7.735310156E+01  2.523185073E-06  0.00000E+00  9.000E+00
       2     1     1     2   513     0 -1.536527464E+01 -2.761397293E+00  1.165384932E+03  1.165489539E+03  3.300000131E-01  0.00000E+00  9.000E+00
      21     1     1     2   512   511  1.902578495E+00  3.732380292E+00 -5.188047140E+00  6.668305685E+00  1.011524364E-06  0.00000E+00  9.000E+00
</event>
<event>
      5  10001  3.52971E+09  4.61226E+00 -1.00000E+00  2.49691E-01
      21    -1     0     0   515   513  0.000000000E+00  0.000000000E+00  4.619326007E+01  4.619326007E+01  0.000000000E+00  0.00000E+00  9.000E+00
      21    -1     0     0   516   515  0.000000000E+00  0.000000000E+00 -7.320190192E+00  7.320190192E+00  0.000000000E+00  0.00000E+00  9.000E+00
      21     1     1     2   516   511  9.625790112E+00  3.534775036E+00 -2.350743777E+00  1.052028831E+01  2.149076030E-07  0.00000E+00  9.000E+00
      21     1     1     2   514   513 -4.137003830E+00 -2.579772397E+00  3.070866786E+01  3.109328397E+01  4.768371582E-07  0.00000E+00  9.000E+00
      21     1     1     2   511   514 -5.488786282E+00 -9.550026386E-01  1.051514579E+01  1.189987798E+01  2.064765462E-07  0.00000E+00  9.000E+00
</event>
<event>
      5  10001  3.52971E+09  1.60066E+01 -1.00000E+00  1.74763E-01
      21    -1     0     0   515   512  0.000000000E+00  0.000000000E+00  1.322433257E+01  1.322433257E+01  0.000000000E+00  0.00000E+00  9.000E+00
       2    -1     0     0   513     0  0.000000000E+00  0.000000000E+00 -9.183174488E+01  9.183174488E+01  0.000000000E+00  0.00000E+00  9.000E+00
      21     1     1     2   511   512  2.368936942E+01 -5.176218370E-01 -3.203217920E+01  3.984362760E+01  6.743495762E-07  0.00000E+00  9.000E+00
      21     1     1     2   513   511 -8.331493006E+00  5.026583865E+00 -4.815217537E+01  4.912547520E+01  6.743495762E-07  0.00000E+00  9.000E+00
       2     1     1     2   515     0 -1.535787641E+01 -4.508962028E+00  1.576942255E+00  1.608697465E+01  3.300000131E-01  0.00000E+00  9.000E+00
</event>
<event>
      5  10001  3.52971E+09  2.60836E+00 -1.00000E+00  3.16598E-01
      21    -1     0     0   513   511  0.000000000E+00  0.000000000E+00  1.475775541E+01  1.475775541E+01  0.000000000E+00  0.00000E+00  9.000E+00
       3    -1     0     0   511     0  0.000000000E+00  0.000000000E+00 -3.630120716E+01  3.630120716E+01  0.000000000E+00  0.00000E+00  9.000E+00
      21     1     1     2   513   512 -2.195440711E+00 -2.076856708E+00  3.567397743E+00  4.675427291E+00  1.032382731E-07  0.00000E+00  9.000E+00
       3     1     1     2   514     0  9.593429100E+00  5.647231830E+00 -3.309957611E+01  3.492502037E+01  5.000000000E-01  0.00000E+00  9.000E+00
      21     1     1     2   512   514 -7.397988389E+00 -3.570375122E+00  7.988726620E+00  1.145851490E+01  4.380028980E-07  0.00000E+00  9.000E+00
</event>
<event>
      5  10001  3.52971E+09  5.58995E+00 -1.00000E+00  2.30348E-01
       1    -1     0     0   512     0  0.000000000E+00  0.000000000E+00  9.610161740E+01  9.610161740E+01  0.000000000E+00  0.00000E+00  9.000E+00
       1    -1     0     0   515     0  0.000000000E+00  0.000000000E+00 -8.591084526E+01  8.591084526E+01  0.000000000E+00  0.00000E+00  9.000E+00
      21     1     1     2   512   514 -8.337733608E+00  4.952721694E+00 -4.644262751E+00  1.075250810E+01  4.042583694E-07  0.00000E+00  9.000E+00
       1     1     1     2   515     0  9.245425059E+00 -1.046844605E+01  9.242162454E+01  9.347155626E+01  3.300000131E-01  0.00000E+00  9.000E+00
       1     1     1     2   514     0 -9.076914511E-01  5.515724356E+00 -7.758658964E+01  7.778839831E+01  3.300000131E-01  0.00000E+00  9.000E+00
</event>
<event>
      5  10001  3.52971E+09  1.78418E+01 -1.00000E+00  1.70564E-01
      21    -1     0     0   511   516  0.000000000E+00  0.000000000E+00  6.607912370E+01  6.607912370E+01  0.000000000E+00  0.00000E+00  9.000E+00
      21    -1     0     0   513   511  0.000000000E+00  0.000000000E+00 -6.770018628E+00  6.770018628E+00  0.000000000E+00  0.00000E+00  9.000E+00
      21     1     1     2   515   516  5.951713766E+00 -5.638151602E+00  4.265436931E+01  4.343508803E+01  4.768371582E-07  0.00000E+00  9.000E+00
      21     1     1     2   512   515 -1.010121650E+01 -3.842477005E+00  1.283019747E+00  1.088325980E+01  3.851308818E-07  0.00000E+00  9.000E+00
      21     1     1     2   513   512  4.149502731E+00  9.480628607E+00  1.537171601E+01  1.853079450E+01  2.384185791E-07  0.00000E+00  9.000E+00
</event>
<event>
      5  10001  3.52971E+09  9.90289E+00 -1.00000E+00  1.96244E-01
      21    -1     0     0   512   514  0.000000000E+00  0.000000000E+00  6.014393213E-01  6.014393213E-01  0.000000000E+00  0.00000E+00  9.000E+00
       1    -1     0     0   514     0  0.000000000E+00  0.000000000E+00 -1.015538427E+03  1.015538427E+03  0.000000000E+00  0.00000E+00  9.000E+00
      21     1     1     2   511   513  4.293946386E+00 -1.087505836E+01 -1.433254925E+02  1.438016052E+02  1.907348633E-06  0.00000E+00  9.000E+00
       1     1     1     2   513     0  1.312283627E+00  1.933530657E+01 -7.648227380E+02  7.650683013E+02  3.300000131E-01  0.00000E+00  9.000E+00
      21     1     1     2   512   511 -5.606230013E+00 -8.460248216E+00 -1.067887574E+02  1.072699601E+02  2.336015456E-06  0.00000E+00  9.000E+00
</event>
<event>
      5  10001  3.52971E+09  1.47847E+01 -1.00000E+00  1.77973E-01
      21    -1     0     0   513   511  0.000000000E+00  0.000000000E+00  9.392147146E+01  9.392147146E+01  0.000000000E+00  0.00000E+00  9.000E+00
      21    -1     0     0   514   515  0.000000000E+00  0.000000000E+00 -3.805732283E+01  3.805732283E+01  0.000000000E+00  0.00000E+00  9.000E+00
      21     1     1     2   516   511  7.046689704E+00  1.373180515E+01  9.505123592E+00  1.812638085E+01  4.915124924E-07  0.00000E+00  9.000E+00
      21     1     1     2   514   516 -1.614221579E+01 -2.075984107E+00 -3.104319118E+01  3.505082822E+01  6.743495762E-07  0.00000E+00  9.000E+00
      21     1     1     2   513   515  9.095526089E+00 -1.165582104E+01  7.740221621E+01  7.880158522E+01  0.000000000E+00  0.00000E+00  9.000E+00
</event>
<event>
      5  10001  3.52971E+09  5.12812E+00 -1.00000E+00  2.36605E-01
      21    -1     0     0   512   514  0.000000000E+00  0.000000000E+00  9.473392344E-01  9.473392344E-01  0.000000000E+00  0.00000E+00  9.000E+00
      21    -1     0     0   511   517  0.000000000E+00  0.000000000E+00 -5.569907081E+02  5.569907081E+02  0.000000000E+00  0.00000E+00  9.000E+00
      21     1     1     2   512   517  6.921766453E+00  7.242192859E+00 -2.956178438E+01  3.121312711E+01  8.920806376E-07  0.00000E+00  9.000E+00
      21     1     1     2   516   514 -9.807284030E+00 -8.075887378E+00 -4.601844054E+02  4.603597395E+02  5.394796609E-06  0.00000E+00  9.000E+00
      21     1     1     2   511   516  2.885517577E+00  8.336945188E-01 -6.629717904E+01  6.636518068E+01  9.536743164E-07  0.00000E+00  9.000E+00
</event>
<event>
      5  10001  3.52971E+09  7.65748E+00 -1.00000E+00  2.10181E-01
      21    -1     0     0   511   514  0.000000000E+00  0.000000000E+00  7.681346770E-01  7.681346770E-01  0.000000000E+00  0.00000E+00  9.000E+00
      -4    -1     0     0     0   513  0.000000000E+00  0.000000000E+00 -1.685968071E+02  1.685968071E+02  0.000000000E+00  0.00000E+00  9.000E+00
      -4     1     1     2     0   512  5.398363138E+00 -2.965108906E-01 -4.761842863E+01  4.794783612E+01  1.500000000E+00  0.00000E+00  9.000E+00
      21     1     1     2   511   513 -8.428925473E+00  4.709396144E+00 -1.014378087E+02  1.018962916E+02  0.000000000E+00  0.00000E+00  9.000E+00
      21     1     1     2   512   514  3.030562335E+00 -4.412885253E+00 -1.877243507E+01  1.952081410E+01  2.384185791E-07  0.00000E+00  9.000E+00
</event>
<event>
      5  10001  3.52971E+09  7.10361E+00 -1.00000E+00  2.14650E-01
      21    -1     0     0   515   516  0.000000000E+00  0.000000000E+00  1.408065419E+02  1.408065419E+02  0.000000000E+00  0.00000E+00  9.000E+00
      21    -1     0     0   512   514  0.000000000E+00  0.000000000E+00 -2.035826360E+00  2.035826360E+00  0.000000000E+00  0.00000E+00  9.000E+00
      21     1     1     2   515   514  6.822088880E+00 -8.029664943E+00  1.501750092E+01  1.834507426E+01  2.920019320E-07  0.00000E+00  9.000E+00
      21     1     1     2   512   511 -6.021892642E+00  1.448461791E+00  8.061906767E+01  8.085663427E+01  9.536743164E-07  0.00000E+00  9.000E+00
      21     1     1     2   511   516 -8.001962371E-01  6.581203152E+00  4.313414696E+01  4.364065974E+01  6.743495762E-07  0.00000E+00  9.000E+00
</event>
<event>
      5  10001  3.52971E+09  1.93699E+01 -1.00000E+00  1.67521E-01
      21    -1     0     0   513   516  0.000000000E+00  0.000000000E+00  1.635841443E+01  1.635841443E+01  0.000000000E+00  0.00000E+00  9.000E+00
      -2    -1     0     0     0   513  0.000000000E+00  0.000000000E+00 -2.118524599E+01  2.118524599E+01  0.000000000E+00  0.00000E+00  9.000E+00
      -2     1     1     2     0   511  1.179640425E+01 -5.646464230E+00 -9.148548183E+00  1.596378857E+01  3.300000131E-01  0.00000E+00  9.000E+00
      21     1     1     2   512   516 -8.814492806E+00 -1.594063297E+00 -4.297295124E+00  9.934941701E+00  1.192092896E-07  0.00000E+00  9.000E+00
      21     1     1     2   511   512 -2.981911447E+00  7.240527527E+00  8.619011746E+00  1.164493015E+01  1.685873940E-07  0.00000E+00  9.000E+00
</event>
<event>
      5  10001  3.52971E+09  8.21005E+00 -1.00000E+00  2.06205E-01
      21    -1     0     0   514   513  0.000000000E+00  0.000000000E+00  8.574311713E+00  8.574311713E+00  0.000000000E+00  0.00000E+00  9.000E+00
      21    -1     0     0   511   515  0.000000000E+00  0.000000000E+00 -8.106342058E+02  8.106342058E+02  0.000000000E+00  0.00000E+00  9.000E+00
      21     1     1     2   514   515  1.774124110E+00  1.131521679E+01 -1.254583065E+01  1.698762826E+01  1.807898389E-06  0.00000E+00  9.000E+00
      21     1     1     2   511   512 -9.516225626E+00 -8.583038889E+00 -7.931416171E+02  7.932451398E+02  1.078959322E-05  0.00000E+00  9.000E+00
      21     1     1     2   512   513  7.742101516E+00 -2.732177898E+00  3.627553660E+00  8.975749412E+00  9.443151663E-07  0.00000E+00  9.000E+00
</event>
<event>
      5  10001  3.52971E+09  1.30589E+01 -1.00000E+00  1.83244E-01
      21    -1     0     0   516   511  0.000000000E+00  0.000000000E+00  2.539520802E-01  2.539520802E-01  0.000000000E+00  0.00000E+00  9.000E+00
      21    -1     0     0   517   513  0.000000000E+00  0.000000000E+00 -7.587146597E+02  7.587146597E+02  0.000000000E+00  0.00000E+00  9.000E+00
      21     1     1     2   516   513 -1.859243828E+00 -6.339392960E+00 -3.651035288E+02  3.651632942E+02  5.394796609E-06  0.00000E+00  9.000E+00
      21     1     1     2   514   511 -2.151633132E+00  6.200569971E+00 -5.050772613E+01  5.093237666E+01  2.023048729E-06  0.00000E+00  9.000E+00
      21     1     1     2   517   514  4.010876960E+00  1.388229890E-01 -3.428494528E+02  3.428729410E+02  5.394796609E-06  0.00000E+00  9.000E+00
</event>
<event>
      5  10001  3.52971E+09  1.36706E+01 -1.00000E+00  1.81263E-01
      21    -1     0     0   512   513  0.000000000E+00  0.000000000E+00  2.086877416E+01  2.086877416E+01  0.000000000E+00  0.00000E+00  9.000E+00
      21    -1     0     0   515   512  0.000000000E+00  0.000000000E+00 -4.173903189E+01  4.173903189E+01  0.000000000E+00  0.00000E+00  9.000E+00
      21     1     1     2   515   517  5.010528998E+00  1.133781402E+01 -3.339102069E+01  3.561757558E+01  0.000000000E+00  0.00000E+00  9.000E+00
      21     1     1     2   517   511 -7.945794738E+00 -1.668522914E+00  1.457007033E+01  1.667952554E+01  3.371747881E-07  0.00000E+00  9.000E+00
      21     1     1     2   511   513  2.935265740E+00 -9.669291107E+00 -2.049307367E+00  1.031070493E+01  1.737759082E-07  0.00000E+00  9.000E+00
</event>
<event>
      5  10001  3.52971E+09  3.42981E+00 -1.00000E+00  2.80260E-01
      21    -1     0     0   514   516  0.000000000E+00  0.000000000E+00  1.313845725E+01  1.313845725E+01  0.000000000E+00  0.00000E+00  9.000E+00
      21    -1     0     0   513   514  0.000000000E+00  0.000000000E+00 -1.297635350E+01  1.297635350E+01  0.000000000E+00  0.00000E+00  9.000E+00
      21     1     1     2   513   515 -1.937620076E+00 -9.223596661E+00 -7.075407698E+00  1.178518142E+01  2.665600750E-07  0.00000E+00  9.000E+00
      21     1     1     2   515   512  2.369868199E+00  1.052638458E+01  5.486254683E+00  1.210454617E+01  2.598106231E-07  0.00000E+00  9.000E+00
      21     1     1     2   512   516 -4.322481236E-01 -1.302787919E+00  1.751256767E+00  2.225083160E+00  0.000000000E+00  0.00000E+00  9.000E+00
</event>
<event>
      5  10001  3.52971E+09  1.07533E+01 -1.00000E+00  1.92176E-01
      21    -1     0     0   513   511  0.000000000E+00  0.000000000E+00  6.927596971E+00  6.927596971E+00  0.000000000E+00  0.00000E+00  9.000E+00
      21    -1     0     0   512   514  0.000000000E+00  0.000000000E+00 -2.604791723E+02  2.604791723E+02  0.000000000E+00  0.00000E+00  9.000E+00
      -5     1     1     2     0   514  1.520733263E+01 -7.577061420E+00 -7.745359889E+00  1.927966356E+01  4.800000191E+00  0.00000E+00  9.000E+00
      21     1     1     2   512   511 -8.378795327E+00 -5.096939596E-01 -2.155841955E+02  2.157475593E+02  3.814697266E-06  0.00000E+00  9.000E+00
       5     1     1     2   513     0 -6.828537298E+00  8.086755379E+00 -3.022202000E+01  3.237954646E+01  4.800000191E+00  0.00000E+00  9.000E+00
</event>
<event>
      5  10001  3.52971E+09  7.51543E+00 -1.00000E+00  2.11278E-01
      21    -1     0     0   515   512  0.000000000E+00  0.000000000E+00  2.457209950E-01  2.457209950E-01  0.000000000E+00  0.00000E+00  9.000E+00
      21    -1     0     0   517   516  0.000000000E+00  0.000000000E+00 -1.037137349E+03  1.037137349E+03  0.000000000E+00  0.00000E+00  9.000E+00
      21     1     1     2   515   516  1.887323582E-01  1.562775923E+01 -4.469845288E+02  4.472576790E+02  5.394796609E-06  0.00000E+00  9.000E+00
      21     1     1     2   517   511  9.846575131E-01 -2.613040757E+00 -1.431052740E+02  1.431325154E+02  1.907348633E-06  0.00000E+00  9.000E+00
      21     1     1     2   511   512 -1.173389871E+00 -1.301471848E+01 -4.468018249E+02  4.469928752E+02  5.394796609E-06  0.00000E+00  9.000E+00
</event>
<event>
      5  10001  3.52971E+09  6.40193E+00 -1.00000E+00  2.21180E-01
      21    -1     0     0   513   516  0.000000000E+00  0.000000000E+00  4.268354867E+01  4.268354867E+01  0.000000000E+00  0.00000E+00  9.000E+00
      21    -1     0     0   514   512  0.000000000E+00  0.000000000E+00 -8.357175268E+00  8.357175268E+00  0.000000000E+00  0.00000E+00  9.000E+00
      21     1     1     2   513   512  6.892998824E+00 -9.116463967E+00 -2.819836708E+00  1.177178097E+01  5.960464478E-08  0.00000E+00  9.000E+00
      21     1     1     2   515   516 -5.154761125E+00  4.684357276E+00  1.398539944E+01  1.562389717E+01  1.685873940E-07  0.00000E+00  9.000E+00
      21     1     1     2   514   515 -1.738237699E+00  4.432106691E+00  2.316081067E+01  2.364504580E+01  0.000000000E+00  0.00000E+00  9.000E+00
</event>
<event>
      5  10001  3.52971E+09  1.64469E+01 -1.00000E+00  1.73693E-01
      21    -1     0     0   511   512  0.000000000E+00  0.000000000E+00  9.825353089E+00  9.825353089E+00  0.000000000E+00  0.00000E+00  9.000E+00
      21    -1     0     0   514   517  0.000000000E+00  0.000000000E+00 -1.707053075E+01  1.707053075E+01  0.000000000E+00  0.00000E+00  9.000E+00
      21     1     1     2   511   517  5.681413096E-01 -8.350336225E+00 -6.871489944E+00  1.082904768E+01  1.460009660E-07  0.00000E+00  9.000E+00
      21     1     1     2   513   512  4.943143534E+00  2.872939079E-01  2.933786005E+00  5.755371935E+00  1.115100797E-07  0.00000E+00  9.000E+00
      21     1     1     2   514   513 -5.511284844E+00  8.063042317E+00 -3.307473723E+00  1.031146423E+01  2.190014490E-07  0.00000E+00  9.000E+00
</event>
<event>
      5  10001  3.52971E+09  1.04646E+01 -1.00000E+00  1.93500E-01
      21    -1     0     0   515   513  0.000000000E+00  0.000000000E+00  1.041792179E+03  1.041792179E+03  0.000000000E+00  0.00000E+00  9.000E+00
      21    -1     0     0   514   516  0.000000000E+00  0.000000000E+00 -1.133414263E-01  1.133414263E-01  0.000000000E+00  0.00000E+00  9.000E+00
      21     1     1     2   515   516 -3.629433431E+00 -8.012464839E+00  5.701375540E+02  5.702054041E+02  1.078959322E-05  0.00000E+00  9.000E+00
      21     1     1     2   511   513  4.069718085E+00  2.105813357E+00  3.339116765E+02  3.339431160E+02  3.814697266E-06  0.00000E+00  9.000E+00
      21     1     1     2   514   511 -4.402846539E-01  5.906651483E+00  1.376296068E+02  1.377570000E+02  1.907348633E-06  0.00000E+00  9.000E+00
</event>
<event>
      5  10001  3.52971E+09  1.10605E+01 -1.00000E+00  1.90825E-01
      -3    -1     0     0     0   512  0.000000000E+00  0.000000000E+00  8.620813042E-01  8.620813042E-01  0.000000000E+00  0.00000E+00  9.000E+00
      21    -1     0     0   513   511  0.000000000E+00  0.000000000E+00 -6.082309278E+02  6.082309278E+02  0.000000000E+00  0.00000E+00  9.000E+00
      21     1     1     2   515   511  3.517648281E+00  1.853116296E-01 -2.074044452E+01  2.103744824E+01  6.307962682E-07  0.00000E+00  9.000E+00
      21     1     1     2   513   512 -8.863429412E+00  4.479807663E+00 -5.684272403E+02  5.685139898E+02  7.629394531E-06  0.00000E+00  9.000E+00
      -3     1     1     2     0   515  5.345781131E+00 -4.665119293E+00 -1.820116167E+01  1.954157107E+01  5.000000000E-01  0.00000E+00  9.000E+00
</event>
<event>
      5  10001  3.52971E+09  7.69362E+00 -1.00000E+00  2.09908E-01
       1    -1     0     0   511     0  0.000000000E+00  0.000000000E+00  4.527635550E+02  4.527635550E+02  0.000000000E+00  0.00000E+00  9.000E+00
      21    -1     0     0   516   511  0.000000000E+00  0.000000000E+00 -4.133166157E-01  4.133166157E-01  0.000000000E+00  0.00000E+00  9.000E+00
      21     1     1     2   512   514 -6.272590945E-01  4.396773008E+00  2.330434697E+01  2.372377826E+01  7.539457465E-07  0.00000E+00  9.000E+00
       1     1     1     2   514     0  5.096364847E+00 -9.978913762E+00  2.998466370E+02  3.000561052E+02  3.300000131E-01  0.00000E+00  9.000E+00
      21     1     1     2   516   512 -4.469105752E+00  5.582140755E+00  1.291992544E+02  1.293969881E+02  0.000000000E+00  0.00000E+00  9.000E+00
</event>
<event>
      5  10001  3.52971E+09  3.64728E+00 -1.00000E+00  2.73280E-01
      21    -1     0     0   513   514  0.000000000E+00  0.000000000E+00  1.996310215E+00  1.996310215E+00  0.000000000E+00  0.00000E+00  9.000E+00
      21    -1     0     0   515   512  0.000000000E+00  0.000000000E+00 -1.000490199E+02  1.000490199E+02  0.000000000E+00  0.00000E+00  9.000E+00
      21     1     1     2   513   512  2.798654531E+00 -1.273812842E+01 -3.570041790E+01  3.800805469E+01  0.000000000E+00  0.00000E+00  9.000E+00
      21     1     1     2   515   511 -4.049626938E-01  1.132995017E+01 -4.227406271E+01  4.376788941E+01  6.743495762E-07  0.00000E+00  9.000E+00
      21     1     1     2   511   514 -2.393691838E+00  1.408178256E+00 -2.007822912E+01  2.026938606E+01  3.371747881E-07  0.00000E+00  9.000E+00
</event>
<event>
      5  10001  3.52971E+09  9.67273E+00 -1.00000E+00  1.97438E-01
      21    -1     0     0   516   512  0.000000000E+00  0.000000000E+00  1.433571510E+02  1.433571510E+02  0.000000000E+00  0.00000E+00  9.000E+00
      21    -1     0     0   517   514  0.000000000E+00  0.000000000E+00 -1.210660027E+00  1.210660027E+00  0.000000000E+00  0.00000E+00  9.000E+00
      21     1     1     2   516   514  1.041821690E+01  3.081566863E+00  4.122597961E+01  4.263351607E+01  8.259061849E-07  0.00000E+00  9.000E+00
      21     1     1     2   517   513 -3.078849401E+00 -5.280459711E+00  5.932330387E+01  5.963737880E+01  0.000000000E+00  0.00000E+00  9.000E+00
      21     1     1     2   513   512 -7.339367495E+00  2.198892848E+00  4.159720753E+01  4.229691619E+01  0.000000000E+00  0.00000E+00  9.000E+00
</event>
<event>
      5  10001  3.52971E+09  5.11520E+00 -1.00000E+00  2.36794E-01
      21    -1     0     0   511   514  0.000000000E+00  0.000000000E+00  1.879010122E+01  1.879010122E+01  0.000000000E+00  0.00000E+00  9.000E+00
      21    -1     0     0   515   512  0.000000000E+00  0.000000000E+00 -3.359671425E+01  3.359671425E+01  0.000000000E+00  0.00000E+00  9.000E+00
      21     1     1     2   511   512  8.800688684E+00  4.699650108E+00  1.562708566E+01  1.854035163E+01  3.371747881E-07  0.00000E+00  9.000E+00
       5     1     1     2   515     0 -1.202687433E+00 -1.001138965E+00 -9.194411385E+00  1.048932499E+01  4.800000191E+00  0.00000E+00  9.000E+00
      -5     1     1     2     0   514 -7.598001251E+00 -3.698511144E+00 -2.123928731E+01  2.335713884E+01  4.800000191E+00  0.00000E+00  9.000E+00
</event>
<event>
      5  10001  3.52971E+09  1.16989E+01 -1.00000E+00  1.88192E-01
      21    -1     0     0   516   511  0.000000000E+00  0.000000000E+00  7.269372075E-01  7.269372075E-01  0.000000000E+00  0.00000E+00  9.000E+00
      21    -1     0     0   513   516  0.000000000E+00  0.000000000E+00 -8.932987572E+02  8.932987572E+02  0.000000000E+00  0.00000E+00  9.000E+00
      -3     1     1     2     0   514 -5.831173552E+00 -1.874351062E+01 -3.560345258E+02  3.565755956E+02  5.000000000E-01  0.00000E+00  9.000E+00
       3     1     1     2   513     0  4.330469193E+00  7.144768079E+00 -4.551330421E+02  4.552099919E+02  5.000000000E-01  0.00000E+00  9.000E+00
      21     1     1     2   514   511  1.500704359E+00  1.159874254E+01 -8.140425210E+01  8.224010702E+01  0.000000000E+00  0.00000E+00  9.000E+00
</event>
<event>
      5  10001  3.52971E+09  5.98995E+00 -1.00000E+00  2.25579E-01
      21    -1     0     0   512   511  0.000000000E+00  0.000000000E+00  3.723144169E+01  3.723144169E+01  0.000000000E+00  0.00000E+00  9.000E+00
       3    -1     0     0   513     0  0.000000000E+00  0.000000000E+00 -6.436940515E+00  6.436940515E+00  0.000000000E+00  0.00000E+00  9.000E+00
      21     1     1     2   513   511 -6.796575269E+00 -1.033955674E+01  4.501589791E+00  1.316678319E+01  8.429369702E-08  0.00000E+00  9.000E+00
      21     1     1     2   512   515  4.146149457E+00  6.682539176E+00  2.429787984E+01  2.553886939E+01  0.000000000E+00  0.00000E+00  9.000E+00
       3     1     1     2   515     0  2.650425812E+00  3.657017561E+00  1.995031542E+00  4.962729620E+00  5.000000000E-01  0.00000E+00  9.000E+00
</event>
<event>
      5  10001  3.52971E+09  2.64137E+01 -1.00000E+00  1.56979E-01
      21    -1     0     0   514   515  0.000000000E+00  0.000000000E+00  7.619820860E+00  7.619820860E+00  0.000000000E+00  0.00000E+00  9.000E+00
       1    -1     0     0   511     0  0.000000000E+00  0.000000000E+00 -3.380201357E+01  3.380201357E+01  0.000000000E+00  0.00000E+00  9.000E+00
      21     1     1     2   511   512 -6.899008739E+00  7.237896925E+00  6.264157354E-01  1.001877588E+01  9.799708752E-08  0.00000E+00  9.000E+00
       1     1     1     2   514     0 -3.326977345E+00 -5.991084791E-02 -9.385674685E+00  9.963541382E+00  3.300000131E-01  0.00000E+00  9.000E+00
      21     1     1     2   512   515  1.022598608E+01 -7.177986077E+00 -1.742293376E+01  2.143951717E+01  2.384185791E-07  0.00000E+00  9.000E+00
</event>
<event>
      5  10001  3.52971E+09  9.79656E+00 -1.00000E+00  1.96790E-01
      21    -1     0     0   512   511  0.000000000E+00  0.000000000E+00  6.293137888E+00  6.293137888E+00  0.000000000E+00  0.00000E+00  9.000E+00
       4    -1     0     0   511     0  0.000000000E+00  0.000000000E+00 -3.191973230E+01  3.191973230E+01  0.000000000E+00  0.00000E+00  9.000E+00
      21     1     1     2   512   513  3.987823839E+00 -9.558482031E+00 -1.344046559E+00  1.044383928E+01  2.723286581E-07  0.00000E+00  9.000E+00
       4     1     1     2   514     0 -2.308712682E+00  1.020676991E+00 -1.397343637E+01  1.427861547E+01  1.500000000E+00  0.00000E+00  9.000E+00
      21     1     1     2   513   514 -1.679111157E+00  8.537805040E+00 -1.030911148E+01  1.349041544E+01  3.371747881E-07  0.00000E+00  9.000E+00
</event>
<event>
      5  10001  3.52971E+09  1.67342E+01 -1.00000E+00  1.73018E-01
      21    -1     0     0   513   511  0.000000000E+00  0.000000000E+00  8.931019155E+00  8.931019155E+00  0.000000000E+00  0.00000E+00  9.000E+00
       2    -1     0     0   511     0  0.000000000E+00  0.000000000E+00 -1.945871172E+01  1.945871172E+01  0.000000000E+00  0.00000E+00  9.000E+00
      21     1     1     2   512   515  3.271794055E+00  3.505624215E+00 -9.225686308E-01  4.883151682E+00  9.305772183E-08  0.00000E+00  9.000E+00
       2     1     1     2   515     0  5.115168513E+00 -6.419564352E+00 -1.178361482E+01  1.436447819E+01  3.300000131E-01  0.00000E+00  9.000E+00
      21     1     1     2   513   512 -8.386962568E+00  2.913940137E+00  2.178490885E+00  9.142101005E+00  6.664001875E-08  0.00000E+00  9.000E+00
</event>
<event>
      5  10001  3.52971E+09  6.46245E+00 -1.00000E+00  2.20572E-01
      21    -1     0     0   514   516  0.000000000E+00  0.000000000E+00  1.416930897E+02  1.416930897E+02  0.000000000E+00  0.00000E+00  9.000E+00
      21    -1     0     0   511   514  0.000000000E+00  0.000000000E+00 -5.041464334E+01  5.041464334E+01  0.000000000E+00  0.00000E+00  9.000E+00
      21     1     1     2   511   512 -4.761451147E+00  5.278917133E+00 -4.842870513E+01  4.894770539E+01  9.536743164E-07  0.00000E+00  9.000E+00
      21     1     1     2   512   515  8.482050638E+00 -1.056288931E+01  2.643820099E+01  2.970687270E+01  7.539457465E-07  0.00000E+00  9.000E+00
      21     1     1     2   515   516 -3.720599490E+00  5.283972181E+00  1.132689505E+02  1.134531550E+02  0.000000000E+00  0.00000E+00  9.000E+00
</event>
<event>
      5  10001  3.52971E+09  6.99105E+00 -1.00000E+00  2.15627E-01
      21    -1     0     0   513   515  0.000000000E+00  0.000000000E+00  2.651786914E+01  2.651786914E+01  0.000000000E+00  0.00000E+00  9.000E+00
       2    -1     0     0   511     0  0.000000000E+00  0.000000000E+00 -5.340227589E+02  5.340227589E+02  0.000000000E+00  0.00000E+00  9.000E+00
      21     1     1     2   512   515  6.098308573E+00 -1.245702926E+01  2.416835484E+01  2.786532471E+01  2.500555153E-06  0.00000E+00  9.000E+00
       2     1     1     2   513     0 -8.798817040E+00  6.008626982E+00 -5.046444401E+02  5.047570134E+02  3.300000131E-01  0.00000E+00  9.000E+00
      21     1     1     2   511   512  2.700508467E+00  6.448402278E+00 -2.702880454E+01  2.791828993E+01  3.371747881E-07  0.00000E+00  9.000E+00
</event>
<event>
      5  10001  3.52971E+09  5.47170E+00 -1.00000E+00  2.31867E-01
       2    -1     0     0   513     0  0.000000000E+00  0.000000000E+00  1.847495977E+02  1.847495977E+02  0.000000000E+00  0.00000E+00  9.000E+00
       2    -1     0     0   512     0  0.000000000E+00  0.000000000E+00 -7.597818197E+00  7.597818197E+00  0.000000000E+00  0.00000E+00  9.000E+00
       2     1     1     2   511     0 -7.066212443E+00 -4.842358061E+00 -4.466417044E+00  9.666311143E+00  3.300000131E-01  0.00000E+00  9.000E+00
       2     1     1     2   512     0  1.213848255E+01  2.790778947E+00  1.553657794E+02  1.558645743E+02  3.300000131E-01  0.00000E+00  9.000E+00
      21     1     1     2   513   511 -5.072270109E+00  2.051579114E+00  2.625241720E+01  2.681653053E+01  5.840038640E-07  0.00000E+00  9.000E+00
</event>
<event>
      5  10001  3.52971E+09  3.65398E+00 -1.00000E+00  2.73077E-01
      21    -1     0     0   514   512  0.000000000E+00  0.000000000E+00  5.422944232E+02  5.422944232E+02  0.000000000E+00  0.00000E+00  9.000E+00
      21    -1     0     0   516   511  0.000000000E+00  0.000000000E+00 -2.344012047E+00  2.344012047E+00  0.000000000E+00  0.00000E+00  9.000E+00
      21     1     1     2   514   511  4.205562572E+00  9.248749901E+00  5.145629296E+02  5.146632245E+02  7.629394531E-06  0.00000E+00  9.000E+00
      21     1     1     2   515   512 -7.701533983E+00 -8.185866653E+00  1.364800042E+01  1.768021363E+01  1.052827938E-06  0.00000E+00  9.000E+00
      21     1     1     2   516   515  3.495971411E+00 -1.062883248E+00  1.173948113E+01  1.229499712E+01  2.384185791E-07  0.00000E+00  9.000E+00
</event>
<event>
      5  10001  3.52971E+09  5.69555E+00 -1.00000E+00  2.29036E-01
      21    -1     0     0   513   511  0.000000000E+00  0.000000000E+00  2.155808610E+00  2.155808610E+00  0.000000000E+00  0.00000E+00  9.000E+00
      21    -1     0     0   516   517  0.000000000E+00  0.000000000E+00 -7.406422240E+01  7.406422240E+01  0.000000000E+00  0.00000E+00  9.000E+00
      21     1     1     2   513   517  8.526176521E+00  5.167347123E+00 -1.383791177E+01  1.705535003E+01  0.000000000E+00  0.00000E+00  9.000E+00
      21     1     1     2   512   511 -2.342482255E+00 -4.489351347E+00 -2.859429546E+01  2.903920163E+01  4.768371582E-07  0.00000E+00  9.000E+00
      21     1     1     2   516   512 -6.183694265E+00 -6.779957756E-01 -2.947620656E+01  3.012547935E+01  3.371747881E-07  0.00000E+00  9.000E+00
</event>
<event>
      5  10001  3.52971E+09  9.11508E+00 -1.00000E+00  2.00522E-01
      21    -1     0     0   514   511  0.000000000E+00  0.000000000E+00  1.322331198E+00  1.322331198E+00  0.000000000E+00  0.00000E+00  9.000E+00
       1    -1     0     0   512     0  0.000000000E+00  0.000000000E+00 -1.700177869E+02  1.700177869E+02  0.000000000E+00  0.00000E+00  9.000E+00
      21     1     1     2   512   511 -1.022648857E+01  7.846021586E+00 -4.873902860E+01  5.041462121E+01  1.168007728E-06  0.00000E+00  9.000E+00
       1     1     1     2   513     0  2.159408436E+00 -6.694197919E+00 -4.919484230E+01  4.969624472E+01  3.300000131E-01  0.00000E+00  9.000E+00
      21     1     1     2   514   513  8.067080137E+00 -1.151823667E+00 -7.076158479E+01  7.122925215E+01  0.000000000E+00  0.00000E+00  9.000E+00
</event>
<event>
      5  10001  3.52971E+09  2.69485E+00 -1.00000E+00  3.11748E-01
       2    -1     0     0   515     0  0.000000000E+00  0.000000000E+00  4.248247647E+02  4.248247647E+02  0.000000000E+00  0.00000E+00  9.000E+00
      21    -1     0     0   513   515  0.000000000E+00  0.000000000E+00 -6.928543367E-01  6.928543367E-01  0.000000000E+00  0.00000E+00  9.000E+00
      21     1     1     2   513   511 -6.793800050E+00  1.066560094E+01  8.514556852E+01  8.607949001E+01  1.348699152E-06  0.00000E+00  9.000E+00
       2     1     1     2   514     0  6.908824345E+00 -1.322760784E+01  2.941755285E+02  2.945539881E+02  3.300000131E-01  0.00000E+00  9.000E+00
      21     1     1     2   511   514 -1.150242949E-01  2.562006905E+00  4.481081338E+01  4.488414092E+01  6.743495762E-07  0.00000E+00  9.000E+00
</event>
<event>
      5  10001  3.52971E+09  6.17276E+00 -1.00000E+00  2.23568E-01
      21    -1     0     0   512   514  0.000000000E+00  0.000000000E+00  2.189933730E-01  2.189933730E-01  0.000000000E+00  0.00000E+00  9.000E+00
       2    -1     0     0   511     0  0.000000000E+00  0.000000000E+00 -9.742423670E+02  9.742423670E+02  0.000000000E+00  0.00000E+00  9.000E+00
      21     1     1     2   513   514 -3.154808709E+00  1.983727164E+00 -3.478085390E+01  3.497993410E+01  8.259061849E-07  0.00000E+00  9.000E+00
       2     1     1     2   512     0  1.075731850E+01 -2.645912150E+00 -7.544521067E+02  7.545335055E+02  3.300000131E-01  0.00000E+00  9.000E+00
      21     1     1     2   511   513 -7.602509791E+00  6.621849861E-01 -1.847904131E+02  1.849479208E+02  3.814697266E-06  0.00000E+00  9.000E+00
</event>
<event>
      5  10001  3.52971E+09  1.53695E+01 -1.00000E+00  1.76390E-01
      21    -1     0     0   515   514  0.000000000E+00  0.000000000E+00  2.014777169E+02  2.014777169E+02  0.000000000E+00  0.00000E+00  9.000E+00
      21    -1     0     0   511   515  0.000000000E+00  0.000000000E+00 -2.358837822E+01  2.358837822E+01  0.000000000E+00  0.00000E+00  9.000E+00
      21     1     1     2   511   513  8.686317142E+00  1.369294454E+01 -1.994764474E+01  2.570714621E+01  4.129530925E-07  0.00000E+00  9.000E+00
      21     1     1     2   512   514  2.459256887E+00 -3.716303189E+00  1.208544282E+02  1.209365605E+02  2.336015456E-06  0.00000E+00  9.000E+00
      21     1     1     2   513   512 -1.114557403E+01 -9.976641349E+00  7.698255528E+01  7.842238845E+01  9.536743164E-07  0.00000E+00  9.000E+00
</event>
<event>
      5  10001 -3.52971E+09  8.19411E+00 -1.00000E+00  2.06313E-01
      21    -1     0     0   516   512  0.000000000E+00  0.000000000E+00  1.926677541E+03  1.926677541E+03  0.000000000E+00  0.00000E+00  9.000E+00
      21    -1     0     0   517   516  0.000000000E+00  0.000000000E+00 -1.707396633E+01  1.707396633E+01  0.000000000E+00  0.00000E+00  9.000E+00
      21     1     1     2   517   511 -4.866233464E+00  1.361430593E+01 -1.394508146E+01  2.008718126E+01  2.953889774E-06  0.00000E+00  9.000E+00
      21     1     1     2   511   514  9.781869511E+00 -8.445366362E+00  1.499424613E+03  1.499480303E+03  0.000000000E+00  0.00000E+00  9.000E+00
      21     1     1     2   514   512 -4.915636047E+00 -5.168939573E+00  4.241240429E+02  4.241840227E+02  7.629394531E-06  0.00000E+00  9.000E+00
</event>
<event>
      5  10001  3.52971E+09  2.75525E+00 -1.00000E+00  3.08542E-01
       1    -1     0     0   511     0  0.000000000E+00  0.000000000E+00  2.620654690E+01  2.620654690E+01  0.000000000E+00  0.00000E+00  9.000E+00
      21    -1     0     0   513   514  0.000000000E+00  0.000000000E+00 -5.911241157E+00  5.911241157E+00  0.000000000E+00  0.00000E+00  9.000E+00
      21     1     1     2   511   514 -9.575653923E+00 -4.498830814E+00  2.611793584E+00  1.089743513E+01  9.884312124E-08  0.00000E+00  9.000E+00
       1     1     1     2   515     0  6.896040143E+00  5.485481084E+00  1.421240247E+01  1.672564367E+01  3.300000131E-01  0.00000E+00  9.000E+00
      21     1     1     2   513   515  2.679613779E+00 -9.866502702E-01  3.471109695E+00  4.494709254E+00  5.960464478E-08  0.00000E+00  9.000E+00
</event>
<event>
      5  10001  3.52971E+09  1.25126E+01 -1.00000E+00  1.85134E-01
       1    -1     0     0   511     0  0.000000000E+00  0.000000000E+00  2.043366028E+01  2.043366028E+01  0.000000000E+00  0.00000E+00  9.000E+00
      -4    -1     0     0     0   511  0.000000000E+00  0.000000000E+00 -3.548287378E+01  3.548287378E+01  0.000000000E+00  0.00000E+00  9.000E+00
      -4     1     1     2     0   514  1.380518217E+01  4.129892319E+00 -2.455122943E+01  2.850705057E+01  1.500000000E+00  0.00000E+00  9.000E+00
       1     1     1     2   512     0 -1.945315321E+01 -2.251850581E+00  5.912266425E+00  2.045873396E+01  3.300000131E-01  0.00000E+00  9.000E+00
      21     1     1     2   514   512  5.647971037E+00 -1.878041738E+00  3.589749504E+00  6.950749535E+00  1.032382731E-07  0.00000E+00  9.000E+00
</event>
<event>
      5  10001  3.52971E+09  9.37395E+00 -1.00000E+00  1.99055E-01
      21    -1     0     0   513   512  0.000000000E+00  0.000000000E+00  3.245428306E+00  3.245428306E+00  0.000000000E+00  0.00000E+00  9.000E+00
      21    -1     0     0   514   515  0.000000000E+00  0.000000000E+00 -1.169112370E+02  1.169112370E+02  0.000000000E+00  0.00000E+00  9.000E+00
      21     1     1     2   513   515  1.321935700E+00 -1.763830321E+01 -7.317609990E+01  7.528345669E+01  0.000000000E+00  0.00000E+00  9.000E+00
      21     1     1     2   514   511 -3.006496888E+00  5.859965102E+00 -8.572921316E+00  1.081079065E+01  1.685873940E-07  0.00000E+00  9.000E+00
      21     1     1     2   511   512  1.684561188E+00  1.177833811E+01 -3.191678748E+01  3.406241797E+01  4.768371582E-07  0.00000E+00  9.000E+00
</event>
<event>
      5  10001  3.52971E+09  1.05624E+01 -1.00000E+00  1.93045E-01
      21    -1     0     0   516   514  0.000000000E+00  0.000000000E+00  8.092290289E+01  8.092290289E+01  0.000000000E+00  0.00000E+00  9.000E+00
      21    -1     0     0   512   516  0.000000000E+00  0.000000000E+00 -3.562293201E+01  3.562293201E+01  0.000000000E+00  0.00000E+00  9.000E+00
      21     1     1     2   512   517  1.026476428E+01  9.196416715E+00 -3.337692779E+01  3.611036935E+01  6.743495762E-07  0.00000E+00  9.000E+00
      -2     1     1     2     0   514  5.883052182E-02 -4.380565923E+00  3.584958422E+01  3.611778520E+01  3.300000131E-01  0.00000E+00  9.000E+00
       2     1     1     2   517     0 -1.032359480E+01 -4.815850791E+00  4.282731445E+01  4.431768034E+01  3.300000131E-01  0.00000E+00  9.000E+00
</event>
<event>
      5  10001  3.52971E+09  3.87253E+00 -1.00000E+00  2.66820E-01
      21    -1     0     0   511   515  0.000000000E+00  0.000000000E+00  9.869483506E+01  9.869483506E+01  0.000000000E+00  0.00000E+00  9.000E+00
      21    -1     0     0   513   514  0.000000000E+00  0.000000000E+00 -3.172863404E+00  3.172863404E+00  0.000000000E+00  0.00000E+00  9.000E+00
      21     1     1     2   513   512 -1.240204035E+01  5.246231005E+00  2.435519006E+01  2.782999870E+01  8.259061849E-07  0.00000E+00  9.000E+00
      21     1     1     2   512   515  1.300430380E+01 -9.071646755E+00  6.348385558E+01  6.543398667E+01  1.348699152E-06  0.00000E+00  9.000E+00
      21     1     1     2   511   514 -6.022634453E-01  3.825415750E+00  7.682926012E+00  8.603713095E+00  1.192092896E-07  0.00000E+00  9.000E+00
</event>
<event>
      5  10001  3.52971E+09  3.94545E+00 -1.00000E+00  2.64875E-01
      21    -1     0     0   515   512  0.000000000E+00  0.000000000E+00  3.165059229E+02  3.165059229E+02  0.000000000E+00  0.00000E+00  9.000E+00
      21    -1     0     0   513   517  0.000000000E+00  0.000000000E+00 -2.349862607E+00  2.349862607E+00  0.000000000E+00  0.00000E+00  9.000E+00
      21     1     1     2   516   517  1.653627225E+00  1.036464825E+01  1.111886313E+02  1.116829089E+02  1.348699152E-06  0.00000E+00  9.000E+00
      21     1     1     2   513   512  2.282985775E+00 -1.010065509E+01  1.079105618E+01  1.495600718E+01  2.064765462E-07  0.00000E+00  9.000E+00
      21     1     1     2   515   516 -3.936613000E+00 -2.639931608E-01  1.921763728E+02  1.922168694E+02  3.814697266E-06  0.00000E+00  9.000E+00
</event>
<event>
      5  10001  3.52971E+09  6.83251E+01 -1.00000E+00  1.31754E-01
      -1    -1     0     0     0   511  0.000000000E+00  0.000000000E+00  4.652969770E+01  4.652969770E+01  0.000000000E+00  0.00000E+00  9.000E+00
      21    -1     0     0   512   514  0.000000000E+00  0.000000000E+00 -1.862607469E+02  1.862607469E+02  0.000000000E+00  0.00000E+00  9.000E+00
      -1     1     1     2     0   514 -4.556474140E+01  1.699957593E+01  2.441470965E+01  5.441799507E+01  3.300000131E-01  0.00000E+00  9.000E+00
      21     1     1     2   513   511  3.282692735E+01  3.807641895E+00 -4.015861127E+01  5.200787782E+01  1.261592536E-06  0.00000E+00  9.000E+00
      21     1     1     2   512   513  1.273781405E+01 -2.080721783E+01 -1.239871476E+02  1.263645717E+02  0.000000000E+00  0.00000E+00  9.000E+00
</event>
<event>
      5  10001  3.52971E+09  4.16053E+00 -1.00000E+00  2.59499E-01
      21    -1     0     0   512   511  0.000000000E+00  0.000000000E+00  1.499257964E-01  1.499257964E-01  0.000000000E+00  0.00000E+00  9.000E+00
       1    -1     0     0   513     0  0.000000000E+00  0.000000000E+00 -7.105370973E+02  7.105370973E+02  0.000000000E+00  0.00000E+00  9.000E+00
      21     1     1     2   513   511 -3.814366063E+00  8.235372395E+00 -2.755290209E+02  2.756784578E+02  3.814697266E-06  0.00000E+00  9.000E+00
      21     1     1     2   512   514  5.737904083E+00 -6.192209554E+00 -2.899434248E+02  2.900662969E+02  5.394796609E-06  0.00000E+00  9.000E+00
       1     1     1     2   514     0 -1.923538020E+00 -2.043162841E+00 -1.449147258E+02  1.449422684E+02  3.300000131E-01  0.00000E+00  9.000E+00
</event>
<event>
      5  10001  3.52971E+09  5.89623E+00 -1.00000E+00  2.26649E-01
      -2    -1     0     0     0   515  0.000000000E+00  0.000000000E+00  5.564189503E+00  5.564189503E+00  0.000000000E+00  0.00000E+00  9.000E+00
      21    -1     0     0   514   512  0.000000000E+00  0.000000000E+00 -7.289045315E+01  7.289045315E+01  0.000000000E+00  0.00000E+00  9.000E+00
      -2     1     1     2     0   511  3.818192265E+00 -4.308388860E+00 -4.968529317E+00  7.611569504E+00  3.300000131E-01  0.00000E+00  9.000E+00
      21     1     1     2   514   515 -6.594782218E+00  1.592553822E+01 -5.280941047E+01  5.555130741E+01  9.536743164E-07  0.00000E+00  9.000E+00
      21     1     1     2   511   512  2.776589953E+00 -1.161714936E+01 -9.548323858E+00  1.529176574E+01  1.192092896E-07  0.00000E+00  9.000E+00
</event>
<event>
      5  10001  3.52971E+09  9.60962E+00 -1.00000E+00  1.97773E-01
      21    -1     0     0   512   514  0.000000000E+00  0.000000000E+00  9.209543134E+01  9.209543134E+01  0.000000000E+00  0.00000E+00  9.000E+00
      21    -1     0     0   515   512  0.000000000E+00  0.000000000E+00 -3.556022809E+01  3.556022809E+01  0.000000000E+00  0.00000E+00  9.000E+00
      -3     1     1     2     0   514  1.756478073E+01  5.284927181E+00  8.363136176E+01  8.562071389E+01  5.000000000E-01  0.00000E+00  9.000E+00
       3     1     1     2   513     0 -9.064980426E+00 -9.766096497E+00 -5.174386784E-02  1.333428620E+01  5.000000000E-01  0.00000E+00  9.000E+00
      21     1     1     2   515   513 -8.499800304E+00  4.481169316E+00 -2.704441464E+01  2.870065934E+01  0.000000000E+00  0.00000E+00  9.000E+00
</event>
<event>
      5  10001  3.52971E+09  7.25011E+00 -1.00000E+00  2.13416E-01
      -1    -1     0     0     0   511  0.000000000E+00  0.000000000E+00  2.284376514E+01  2.284376514E+01  0.000000000E+00  0.00000E+00  9.000E+00
      21    -1     0     0   516   512  0.000000000E+00  0.000000000E+00 -2.600264020E+01  2.600264020E+01  0.000000000E+00  0.00000E+00  9.000E+00
      -1     1     1     2     0   514 -1.081026665E+00 -4.745407599E+00  1.690341465E+01  1.759323276E+01  3.300000131E-01  0.00000E+00  9.000E+00
      21     1     1     2   516   511 -2.878257430E+00  1.013807826E+01 -2.190985605E+01  2.431268781E+01  2.384185791E-07  0.00000E+00  9.000E+00
      21     1     1     2   514   512  3.959284096E+00 -5.392670661E+00  1.847566339E+00  6.940484766E+00  1.965598160E-07  0.00000E+00  9.000E+00
</event>
<event>
      5  10001  3.52971E+09  5.50494E+00 -1.00000E+00  2.31435E-01
      21    -1     0     0   513   515  0.000000000E+00  0.000000000E+00  6.175546351E+00  6.175546351E+00  0.000000000E+00  0.00000E+00  9.000E+00
       4    -1     0     0   514     0  0.000000000E+00  0.000000000E+00 -4.667920258E+02  4.667920258E+02  0.000000000E+00  0.00000E+00  9.000E+00
      21     1     1     2   514   511 -8.056038681E+00  9.541685627E+00 -5.863257931E+00  1.379569924E+01  1.498437535E-06  0.00000E+00  9.000E+00
       4     1     1     2   513     0  1.190007044E+01 -5.602669186E+00 -4.532813285E+02  4.534746016E+02  1.500000000E+00  0.00000E+00  9.000E+00
      21     1     1     2   511   515 -3.844031763E+00 -3.939016441E+00 -1.471893011E+00  5.697271255E+00  2.502330486E-07  0.00000E+00  9.000E+00
</event>
<event>
      5  10001  3.52971E+09  8.59171E+00 -1.00000E+00  2.03695E-01
       2    -1     0     0   511     0  0.000000000E+00  0.000000000E+00  1.527350411E+01  1.527350411E+01  0.000000000E+00  0.00000E+00  9.000E+00
      21    -1     0     0   512   513  0.000000000E+00  0.000000000E+00 -9.333883951E+00  9.333883951E+00  0.000000000E+00  0.00000E+00  9.000E+00
      21     1     1     2   511   513  1.739864446E+00  8.226025514E+00  7.242239284E+00  1.109705609E+01  2.665600750E-07  0.00000E+00  9.000E+00
      21     1     1     2   512   514  2.232353933E+00 -4.667482097E+00 -4.854100139E+00  7.094440173E+00  1.332800375E-07  0.00000E+00  9.000E+00
       2     1     1     2   514     0 -3.972218380E+00 -3.558543417E+00  3.551481011E+00  6.415891792E+00  3.300000131E-01  0.00000E+00  9.000E+00
</event>
<event>
      5  10001  3.52971E+09  6.67078E+00 -1.00000E+00  2.18548E-01
      21    -1     0     0   514   512  0.000000000E+00  0.000000000E+00  6.881858541E+00  6.881858541E+00  0.000000000E+00  0.00000E+00  9.000E+00
       3    -1     0     0   515     0  0.000000000E+00  0.000000000E+00 -3.772429191E+01  3.772429191E+01  0.000000000E+00  0.00000E+00  9.000E+00
      21     1     1     2   515   512 -4.948680302E+00  1.144350795E+01 -2.704800125E+01  2.978317785E+01  3.371747881E-07  0.00000E+00  9.000E+00
       3     1     1     2   511     0  5.910712485E+00 -4.862311200E+00 -2.278572640E+00  8.001280245E+00  5.000000000E-01  0.00000E+00  9.000E+00
      21     1     1     2   514   511 -9.620321828E-01 -6.581196755E+00 -1.515859476E+00  6.821692356E+00  8.429369702E-08  0.00000E+00  9.000E+00
</event>
<event>
      5  10001  3.52971E+09  5.87683E+00 -1.00000E+00  2.26874E-01
      21    -1     0     0   512   515  0.000000000E+00  0.000000000E+00  3.546109168E+01  3.546109168E+01  0.000000000E+00  0.00000E+00  9.000E+00
      21    -1     0     0   516   513  0.000000000E+00  0.000000000E+00 -1.335623397E+02  1.335623397E+02  0.000000000E+00  0.00000E+00  9.000E+00
      21     1     1     2   511   515 -1.267582203E+01 -1.911205946E+00  1.348590505E+01  1.860641844E+01  6.307962682E-07  0.00000E+00  9.000E+00
      21     1     1     2   516   511  8.205754003E+00 -1.903984731E+00 -1.304183426E+02  1.306901054E+02  0.000000000E+00  0.00000E+00  9.000E+00
      21     1     1     2   512   513  4.470068025E+00  3.815190677E+00  1.883118947E+01  1.972690763E+01  3.371747881E-07  0.00000E+00  9.000E+00
</event>
<event>
      5  10001  3.52971E+09  1.16828E+01 -1.00000E+00  1.88256E-01
      21    -1     0     0   514   515  0.000000000E+00  0.000000000E+00  7.690628740E+02  7.690628740E+02  0.000000000E+00  0.00000E+00  9.000E+00
      21    -1     0     0   517   511  0.000000000E+00  0.000000000E+00 -4.369826105E+01  4.369826105E+01  0.000000000E+00  0.00000E+00  9.000E+00
      21     1     1     2   517   513  8.275243710E-01  1.857122999E+01  1.325303307E+02  1.338277397E+02  3.303624740E-06  0.00000E+00  9.000E+00
      21     1     1     2   513   515  1.082852451E+01 -1.936077763E+01  6.348939292E+02  6.352813534E+02  0.000000000E+00  0.00000E+00  9.000E+00
      21     1     1     2   514   511 -1.165604888E+01  7.895476417E-01 -4.205964693E+01  4.365204188E+01  1.261592536E-06  0.00000E+00  9.000E+00
</event>
<event>
      5  10001  3.52971E+09  1.22361E+01 -1.00000E+00  1.86139E-01
      21    -1     0     0   511   512  0.000000000E+00  0.000000000E+00  1.954778458E+01  1.954778458E+01  0.000000000E+00  0.00000E+00  9.000E+00
      -1    -1     0     0     0   513  0.000000000E+00  0.000000000E+00 -9.722172022E+01  9.722172022E+01  0.000000000E+00  0.00000E+00  9.000E+00
      -1     1     1     2     0   514  1.702732502E+01 -1.735778621E+01 -6.584203723E+01  7.018906828E+01  3.300000131E-01  0.00000E+00  9.000E+00
      21     1     1     2   514   512 -1.252120857E+01  5.981893173E+00  1.292577845E+01  1.896416248E+01  6.743495762E-07  0.00000E+00  9.000E+00
      21     1     1     2   511   513 -4.506116450E+00  1.137589303E+01 -2.475767687E+01  2.761627404E+01  3.371747881E-07  0.00000E+00  9.000E+00
</event>
<event>
      5  10001  3.52971E+09  1.35881E+01 -1.00000E+00  1.81522E-01
      21    -1     0     0   515   513  0.000000000E+00  0.000000000E+00  1.842991841E+02  1.842991841E+02  0.000000000E+00  0.00000E+00  9.000E+00
      21    -1     0     0   517   516  0.000000000E+00  0.000000000E+00 -1.235920835E+01  1.235920835E+01  0.000000000E+00  0.00000E+00  9.000E+00
      21     1     1     2   515   516 -1.700396781E+01  9.550103740E+00 -2.428172658E+00  1.965287320E+01  1.228781231E-07  0.00000E+00  9.000E+00
      21     1     1     2   512   513  5.032473486E+00 -6.855224889E+00  1.440133304E+02  1.442641994E+02  1.907348633E-06  0.00000E+00  9.000E+00
      21     1     1     2   517   512  1.197149432E+01 -2.694878851E+00  3.035481795E+01  3.274131978E+01  4.768371582E-07  0.00000E+00  9.000E+00
</event>
<event>
      5  10001  3.52971E+09  9.63228E+00 -1.00000E+00  1.97652E-01
       1    -1     0     0   511     0  0.000000000E+00  0.000000000E+00  1.168293536E+02  1.168293536E+02  0.000000000E+00  0.00000E+00  9.000E+00
      21    -1     0     0   517   514  0.000000000E+00  0.000000000E+00 -9.794883462E+01  9.794883462E+01  0.000000000E+00  0.00000E+00  9.000E+00
      21     1     1     2   511   514  1.517523215E+01 -2.013939261E+01  3.250910930E+01  4.114273925E+01  0.000000000E+00  0.00000E+00  9.000E+00
      21     1     1     2   517   512 -2.460459875E+01  1.817288637E+01 -9.082616224E+01  9.583857170E+01  0.000000000E+00  0.00000E+00  9.000E+00
       1     1     1     2   512     0  9.429366601E+00  1.966506246E+00  7.719757188E+01  7.779687722E+01  3.300000131E-01  0.00000E+00  9.000E+00
</event>
<event>
      5  10001  3.52971E+09  1.02609E+01 -1.00000E+00  1.94468E-01
      -2    -1     0     0     0   513  0.000000000E+00  0.000000000E+00  4.294529646E+00  4.294529646E+00  0.000000000E+00  0.00000E+00  9.000E+00
      -3    -1     0     0     0   511  0.000000000E+00  0.000000000E+00 -1.045912432E+02  1.045912432E+02  0.000000000E+00  0.00000E+00  9.000E+00
      -3     1     1     2     0   513 -1.034319019E+01  7.007356648E-01 -7.390978089E+01  7.463496717E+01  5.000000000E-01  0.00000E+00  9.000E+00
      -2     1     1     2     0   514  1.576376118E+01 -1.745572168E+00 -1.625705975E+01  2.271440249E+01  3.300000131E-01  0.00000E+00  9.000E+00
      21     1     1     2   514   511 -5.420570997E+00  1.044836503E+00 -1.012987295E+01  1.153640322E+01  2.064765462E-07  0.00000E+00  9.000E+00
</event>
<event>
      5  10001  3.52971E+09  9.02602E+00 -1.00000E+00  2.01042E-01
      21    -1     0     0   512   511  0.000000000E+00  0.000000000E+00  7.578992570E-01  7.578992570E-01  0.000000000E+00  0.00000E+00  9.000E+00
      21    -1     0     0   513   515  0.000000000E+00  0.000000000E+00 -2.225002674E+02  2.225002674E+02  0.000000000E+00  0.00000E+00  9.000E+00
      21     1     1     2   512   515  1.073181357E+01  6.803342961E+00 -1.049910417E+02  1.057571564E+02  0.000000000E+00  0.00000E+00  9.000E+00
      21     1     1     2   513   516 -9.675417790E-01 -1.324218247E+00 -7.487040795E+00  7.664559409E+00  0.000000000E+00  0.00000E+00  9.000E+00
      21     1     1     2   516   511 -9.764271791E+00 -5.479124714E+00 -1.092642856E+02  1.098364508E+02  1.907348633E-06  0.00000E+00  9.000E+00
</event>
<event>
      5  10001  3.52971E+09  4.22283E+00 -1.00000E+00  2.58035E-01
      21    -1     0     0   512   513  0.000000000E+00  0.000000000E+00  2.226510442E+01  2.226510442E+01  0.000000000E+00  0.00000E+00  9.000E+00
      21    -1     0     0   517   511  0.000000000E+00  0.000000000E+00 -4.984699503E+01  4.984699503E+01  0.000000000E+00  0.00000E+00  9.000E+00
      21     1     1     2   514   511  5.277621156E+00  1.092805981E+01 -1.390462231E+01  1.845573889E+01  3.769728732E-07  0.00000E+00  9.000E+00
      21     1     1     2   517   513 -1.189350585E+00 -9.870552587E+00 -3.269617383E+01  3.417429072E+01  4.768371582E-07  0.00000E+00  9.000E+00
      21     1     1     2   512   514 -4.088270571E+00 -1.057507225E+00  1.901890553E+01  1.948206984E+01  2.384185791E-07  0.00000E+00  9.000E+00
</event>
<event>
      5  10001  3.52971E+09  7.95735E+00 -1.00000E+00  2.07969E-01
       2    -1     0     0   515     0  0.000000000E+00  0.000000000E+00  8.628355394E+02  8.628355394E+02  0.000000000E+00  0.00000E+00  9.000E+00
      21    -1     0     0   516   514  0.000000000E+00  0.000000000E+00 -1.047861902E+00  1.047861902E+00  0.000000000E+00  0.00000E+00  9.000E+00
      21     1     1     2   515   514 -2.817198009E+00 -6.432040786E+00  1.312695174E+01  1.488706201E+01  1.155776944E-06  0.00000E+00  9.000E+00
      21     1     1     2   516   511  8.219465156E+00  1.227394171E+01  4.156973161E+02  4.159596950E+02  5.394796609E-06  0.00000E+00  9.000E+00
       2     1     1     2   511     0 -5.402267148E+00 -5.841900923E+00  4.329634097E+02  4.330366443E+02  3.300000131E-01  0.00000E+00  9.000E+00
</event>
<event>
      5  10001  3.52971E+09  6.47317E+00 -1.00000E+00  2.20465E-01
      21    -1     0     0   512   514  0.000000000E+00  0.000000000E+00  1.597823912E+01  1.597823912E+01  0.000000000E+00  0.00000E+00  9.000E+00
      21    -1     0     0   515   513  0.000000000E+00  0.000000000E+00 -1.781364284E+02  1.781364284E+02  0.000000000E+00  0.00000E+00  9.000E+00
      21     1     1     2   512   513 -5.015196775E-01 -1.738166290E+01  9.285122603E+00  1.971261598E+01  3.576278687E-07  0.00000E+00  9.000E+00
      21     1     1     2   517   514 -4.000886601E+00  1.273083158E+01 -3.027728239E+01  3.308768645E+01  4.768371582E-07  0.00000E+00  9.000E+00
      21     1     1     2   515   517  4.502406278E+00  4.650831322E+00 -1.411660295E+02  1.413143651E+02  2.697398305E-06  0.00000E+00  9.000E+00
</event>
<event>
      5  10001  3.52971E+09  8.28437E+00 -1.00000E+00  2.05702E-01
      21    -1     0     0   515   514  0.000000000E+00  0.000000000E+00  2.026355935E+00  2.026355935E+00  0.000000000E+00  0.00000E+00  9.000E+00
       2    -1     0     0   514     0  0.000000000E+00  0.000000000E+00 -2.826856709E+02  2.826856709E+02  0.000000000E+00  0.00000E+00  9.000E+00
      21     1     1     2   515   512  1.345653485E+00 -2.333463140E+00 -3.329004599E+00  4.282301384E+00  1.976862425E-07  0.00000E+00  9.000E+00
       2     1     1     2   511     0 -9.874024911E+00  2.463701974E+00 -2.662603135E+02  2.664549298E+02  3.300000131E-01  0.00000E+00  9.000E+00
      21     1     1     2   512   511  8.528371426E+00 -1.302388346E-01 -1.106999684E+01  1.397479557E+01  5.960464478E-07  0.00000E+00  9.000E+00
</event>
<event>
      5  10001  3.52971E+09  8.95705E+00 -1.00000E+00  2.01449E-01
      21    -1     0     0   513   511  0.000000000E+00  0.000000000E+00  3.437935045E+01  3.437935045E+01  0.000000000E+00  0.00000E+00  9.000E+00
       1    -1     0     0   512     0  0.000000000E+00  0.000000000E+00 -2.252943415E+02  2.252943415E+02  0.000000000E+00  0.00000E+00  9.000E+00
      21     1     1     2   512   511 -7.087135168E+00 -1.072507181E+01  3.278233883E+01  3.521273051E+01  1.719260824E-06  0.00000E+00  9.000E+00
       1     1     1     2   514     0  4.386990871E+00  1.348215560E+00 -1.556047476E+02  1.556727650E+02  3.300000131E-01  0.00000E+00  9.000E+00
      21     1     1     2   513   514  2.700144297E+00  9.376856253E+00 -6.809258224E+01  6.878819643E+01  1.348699152E-06  0.00000E+00  9.000E+00
</event>
<event>
      5  10001  3.52971E+09  8.64698E+00 -1.00000E+00  2.03345E-01
      21    -1     0     0   515   517  0.000000000E+00  0.000000000E+00  2.272920447E+02  2.272920447E+02  0.000000000E+00  0.00000E+00  9.000E+00
      21    -1     0     0   511   516  0.000000000E+00  0.000000000E+00 -2.423184228E+02  2.423184228E+02  0.000000000E+00  0.00000E+00  9.000E+00
      21     1     1     2   515   516 -3.570141113E+00  8.856022603E+00 -2.229808730E+02  2.231852252E+02  2.697398305E-06  0.00000E+00  9.000E+00
      21     1     1     2   511   512 -2.548458457E+00 -1.496610329E+01 -1.614344235E+01  2.216054195E+01  6.307962682E-07  0.00000E+00  9.000E+00
      21     1     1     2   512   517  6.118599570E+00  6.110080690E+00  2.240979372E+02  2.242647003E+02  3.814697266E-06  0.00000E+00  9.000E+00
</event>
<event>
      5  10001  3.52971E+09  1.14011E+01 -1.00000E+00  1.89392E-01
       2    -1     0     0   513     0  0.000000000E+00  0.000000000E+00  3.923705390E+01  3.923705390E+01  0.000000000E+00  0.00000E+00  9.000E+00
      21    -1     0     0   512   511  0.000000000E+00  0.000000000E+00 -4.846755220E+02  4.846755220E+02  0.000000000E+00  0.00000E+00  9.000E+00
       2     1     1     2   512     0  2.182853670E+01 -8.177923803E-01  3.058085562E+01  3.758259477E+01  3.300000131E-01  0.00000E+00  9.000E+00
       4     1     1     2   513     0 -1.062635637E+01  2.923722072E+00 -9.957712124E-01  1.116732559E+01  1.500000000E+00  0.00000E+00  9.000E+00
      -4     1     1     2     0   511 -1.120218033E+01 -2.105929691E+00 -4.750235525E+02  4.751626555E+02  1.500000000E+00  0.00000E+00  9.000E+00
</event>
<event>
      5  10001  3.52971E+09  3.86710E+00 -1.00000E+00  2.66968E-01
      21    -1     0     0   514   511  0.000000000E+00  0.000000000E+00  1.567925340E+01  1.567925340E+01  0.000000000E+00  0.00000E+00  9.000E+00
      21    -1     0     0   512   515  0.000000000E+00  0.000000000E+00 -1.618277543E+01  1.618277543E+01  0.000000000E+00  0.00000E+00  9.000E+00
      21     1     1     2   514   515 -1.909851581E+00 -1.177251788E+01 -1.024119512E+01  1.572010775E+01  2.064765462E-07  0.00000E+00  9.000E+00
      21     1     1     2   513   511  2.200080703E+00  8.601117914E+00  4.357267493E+00  9.889659472E+00  1.576990671E-07  0.00000E+00  9.000E+00
      21     1     1     2   512   513 -2.902291220E-01  3.171399962E+00  5.380405607E+00  6.252261604E+00  1.192092896E-07  0.00000E+00  9.000E+00
</event>
<event>
      5  10001  3.52971E+09  1.03087E+01 -1.00000E+00  1.94238E-01
      21    -1     0     0   516   513  0.000000000E+00  0.000000000E+00  1.631706583E+02  1.631706583E+02  0.000000000E+00  0.00000E+00  9.000E+00
      21    -1     0     0   512   517  0.000000000E+00  0.000000000E+00 -1.290820806E+01  1.290820806E+01  0.000000000E+00  0.00000E+00  9.000E+00
      21     1     1     2   516   517 -4.568779371E+00  1.050450429E+01 -9.627370077E+00  1.496344245E+01  8.513246093E-07  0.00000E+00  9.000E+00
      21     1     1     2   511   513  7.111576735E+00 -1.368012760E+01  1.125565007E+02  1.136075977E+02  1.907348633E-06  0.00000E+00  9.000E+00
      21     1     1     2   512   511 -2.542797364E+00  3.175623302E+00  4.733331964E+01  4.750782620E+01  6.743495762E-07  0.00000E+00  9.000E+00
</event>
<event>
      5  10001  3.52971E+09  6.21219E+00 -1.00000E+00  2.23147E-01
      21    -1     0     0   512   511  0.000000000E+00  0.000000000E+00  2.182250226E+02  2.182250226E+02  0.000000000E+00  0.00000E+00  9.000E+00
       1    -1     0     0   513     0  0.000000000E+00  0.000000000E+00 -1.175942375E+02  1.175942375E+02  0.000000000E+00  0.00000E+00  9.000E+00
      21     1     1     2   513   511  9.118042738E+00  5.166586100E+00  2.175090457E+02  2.177613770E+02  2.697398305E-06  0.00000E+00  9.000E+00
       1     1     1     2   514     0 -6.039363145E+00  6.278170738E-01 -9.554604418E+01  9.573935199E+01  3.300000131E-01  0.00000E+00  9.000E+00
      21     1     1     2   512   514 -3.078679593E+00 -5.794403174E+00 -2.133221645E+01  2.231853120E+01  3.371747881E-07  0.00000E+00  9.000E+00
</event>
<event>
      5  10001  3.52971E+09  4.29408E+00 -1.00000E+00  2.56408E-01
      21    -1     0     0   515   513  0.000000000E+00  0.000000000E+00  6.540980551E+02  6.540980551E+02  0.000000000E+00  0.00000E+00  9.000E+00
      21    -1     0     0   516   515  0.000000000E+00  0.000000000E+00 -4.952097402E-01  4.952097402E-01  0.000000000E+00  0.00000E+00  9.000E+00
      21     1     1     2   514   513 -7.169703286E+00  8.571532419E+00  5.712371979E+02  5.713464904E+02  1.078959322E-05  0.00000E+00  9.000E+00
      21     1     1     2   511   514  5.865220477E+00 -4.593360017E+00  6.265941652E+01  6.310073095E+01  9.536743164E-07  0.00000E+00  9.000E+00
      21     1     1     2   516   511  1.304482810E+00 -3.978172401E+00  1.970623092E+01  2.014604349E+01  1.039242493E-06  0.00000E+00  9.000E+00
</event>
<event>
      5  10001  3.52971E+09  5.37061E+00 -1.00000E+00  2.33209E-01
      21    -1     0     0   512   511  0.000000000E+00  0.000000000E+00  2.383825949E+02  2.383825949E+02  0.000000000E+00  0.00000E+00  9.000E+00
       1    -1     0     0   513     0  0.000000000E+00  0.000000000E+00 -7.607993568E+00  7.607993568E+00  0.000000000E+00  0.00000E+00  9.000E+00
      21     1     1     2   513   514 -2.546888445E+00  4.946729427E+00  1.235642755E+02  1.236894780E+02  1.348699152E-06  0.00000E+00  9.000E+00
       1     1     1     2   512     0 -2.325978308E-01 -1.107217782E+01 -3.320021309E+00  1.156627274E+01  3.300000131E-01  0.00000E+00  9.000E+00
      21     1     1     2   514   511  2.779486275E+00  6.125448397E+00  1.105303471E+02  1.107348377E+02  2.697398305E-06  0.00000E+00  9.000E+00
</event>
<event>
      5  10001  3.52971E+09  1.52473E+01 -1.00000E+00  1.76713E-01
      21    -1     0     0   515   514  0.000000000E+00  0.000000000E+00  3.710414456E+00  3.710414456E+00  0.000000000E+00  0.00000E+00  9.000E+00
       2    -1     0     0   513     0  0.000000000E+00  0.000000000E+00 -5.868717457E+02  5.868717457E+02  0.000000000E+00  0.00000E+00  9.000E+00
      21     1     1     2   515   511  2.024119143E+01 -8.741727965E+00 -2.571901164E+02  2.581334531E+02  0.000000000E+00  0.00000E+00  9.000E+00
      21     1     1     2   513   514 -1.334168549E+01 -4.854831221E+00 -1.345414753E+01  1.955975571E+01  1.105501472E-06  0.00000E+00  9.000E+00
       2     1     1     2   511     0 -6.899505945E+00  1.359655919E+01 -3.125170673E+02  3.128889513E+02  3.300000131E-01  0.00000E+00  9.000E+00
</event>
<event>
      5  10001  3.52971E+09  1.47948E+01 -1.00000E+00  1.77945E-01
      21    -1     0     0   512   513  0.000000000E+00  0.000000000E+00  5.731412838E+00  5.731412838E+00  0.000000000E+00  0.00000E+00  9.000E+00
      21    -1     0     0   514   516  0.000000000E+00  0.000000000E+00 -4.296350579E+02  4.296350579E+02  0.000000000E+00  0.00000E+00  9.000E+00
      21     1     1     2   512   516 -2.482675295E+00 -1.654177060E+01 -8.674763846E+00  1.884264788E+01  6.529361695E-07  0.00000E+00  9.000E+00
      21     1     1     2   511   513 -1.003355209E+01  8.653206082E+00 -9.120630681E+01  9.216366174E+01  1.907348633E-06  0.00000E+00  9.000E+00
      21     1     1     2   514   511  1.251622739E+01  7.888564520E+00 -3.240225744E+02  3.243601611E+02  0.000000000E+00  0.00000E+00  9.000E+00
</event>
<event>
      5  10001  3.52971E+09  5.64202E+00 -1.00000E+00  2.29696E-01
      21    -1     0     0   515   511  0.000000000E+00  0.000000000E+00  1.150937478E+00  1.150937478E+00  0.000000000E+00  0.00000E+00  9.000E+00
      21    -1     0     0   514   517  0.000000000E+00  0.000000000E+00 -2.255553139E+02  2.255553139E+02  0.000000000E+00  0.00000E+00  9.000E+00
      21     1     1     2   515   517 -1.315507679E+01  8.349455576E+00 -9.138492115E+01  9.270368530E+01  1.348699152E-06  0.00000E+00  9.000E+00
      21     1     1     2   512   511  5.173323519E+00 -2.110023101E+00 -6.401684950E+01  6.426019370E+01  9.536743164E-07  0.00000E+00  9.000E+00
      21     1     1     2   514   512  7.981753275E+00 -6.239432475E+00 -6.900260573E+01  6.974237235E+01  1.348699152E-06  0.00000E+00  9.000E+00
</event>
<event>
      5  10001  3.52971E+09  1.47002E+01 -1.00000E+00  1.78210E-01
      21    -1     0     0   512   511  0.000000000E+00  0.000000000E+00  3.237658497E+02  3.237658497E+02  0.000000000E+00  0.00000E+00  9.000E+00
       4    -1     0     0   511     0  0.000000000E+00  0.000000000E+00 -1.162104349E+01  1.162104349E+01  0.000000000E+00  0.00000E+00  9.000E+00
      21     1     1     2   512   515 -2.187392444E+00 -1.845271275E+00  2.280241797E+02  2.280421370E+02  0.000000000E+00  0.00000E+00  9.000E+00
       4     1     1     2   513     0 -5.427711654E+00 -8.315565550E+00 -8.925694357E+00  1.343602262E+01  1.500000000E+00  0.00000E+00  9.000E+00
      21     1     1     2   515   513  7.615104098E+00  1.016083683E+01  9.304632088E+01  9.390873359E+01  1.907348633E-06  0.00000E+00  9.000E+00
</event>
<event>
      5  10001  3.52971E+09  1.53720E+01 -1.00000E+00  1.76383E-01
       2    -1     0     0   512     0  0.000000000E+00  0.000000000E+00  3.444611425E+02  3.444611425E+02  0.000000000E+00  0.00000E+00  9.000E+00
      21    -1     0     0   513   512  0.000000000E+00  0.000000000E+00 -1.180226668E+01  1.180226668E+01  0.000000000E+00  0.00000E+00  9.000E+00
      21     1     1     2   511   514  3.192553699E+00  1.013193334E+01 -6.321291946E+00  1.236152111E+01  4.616955931E-07  0.00000E+00  9.000E+00
       2     1     1     2   514     0 -1.596678161E+01 -6.330149591E+00  3.213099167E+02  3.217688306E+02  3.300000131E-01  0.00000E+00  9.000E+00
      21     1     1     2   513   511  1.277422791E+01 -3.801783752E+00  1.767025110E+01  2.213305746E+01  4.129530925E-07  0.00000E+00  9.000E+00
</event>
<event>
      5  10001  3.52971E+09  1.67943E+01 -1.00000E+00  1.72879E-01
       1    -1     0     0   513     0  0.000000000E+00  0.000000000E+00  3.756195860E+00  3.756195860E+00  0.000000000E+00  0.00000E+00  9.000E+00
      21    -1     0     0   515   512  0.000000000E+00  0.000000000E+00 -8.723146510E+01  8.723146510E+01  0.000000000E+00  0.00000E+00  9.000E+00
      21     1     1     2   513   514  1.044179091E+01 -3.792935473E+00 -2.274925889E+01  2.531691405E+01  4.768371582E-07  0.00000E+00  9.000E+00
       1     1     1     2   515     0 -6.587232596E+00  1.083397135E+01 -1.697924107E+01  2.119363338E+01  3.300000131E-01  0.00000E+00  9.000E+00
      21     1     1     2   514   512 -3.854558310E+00 -7.041035875E+00 -4.374676928E+01  4.447711354E+01  0.000000000E+00  0.00000E+00  9.000E+00
</event>
<event>
      5  10001  3.52971E+09  3.51539E+00 -1.00000E+00  2.77417E-01
      21    -1     0     0   511   512  0.000000000E+00  0.000000000E+00  4.735574831E+01  4.735574831E+01  0.000000000E+00  0.00000E+00  9.000E+00
      21    -1     0     0   513   516  0.000000000E+00  0.000000000E+00 -1.756184440E+02  1.756184440E+02  0.000000000E+00  0.00000E+00  9.000E+00
      21     1     1     2   511   516  3.523532716E+00  1.624924082E+01  2.985360002E+00  1.689276426E+01  2.598106231E-07  0.00000E+00  9.000E+00
      21     1     1     2   514   512 -1.210996613E+00 -1.360157192E+01  3.615172117E+01  3.864474370E+01  6.743495762E-07  0.00000E+00  9.000E+00
      21     1     1     2   513   514 -2.312536103E+00 -2.647668897E+00 -1.673997769E+02  1.674366844E+02  3.303624740E-06  0.00000E+00  9.000E+00
</event>
<event>
      5  10001  3.52971E+09  6.62591E+00 -1.00000E+00  2.18975E-01
      21    -1     0     0   515   514  0.000000000E+00  0.000000000E+00  8.445972185E+01  8.445972185E+01  0.000000000E+00  0.00000E+00  9.000E+00
      21    -1     0     0   511   515  0.000000000E+00  0.000000000E+00 -9.936583181E+01  9.936583181E+01  0.000000000E+00  0.00000E+00  9.000E+00
      21     1     1     2   513   517  6.364593478E+00 -7.995908783E+00 -3.092675676E+01  3.257156569E+01  4.768371582E-07  0.00000E+00  9.000E+00
      21     1     1     2   517   514 -1.106787658E+01  3.328804177E+00  8.307396807E+01  8.387409016E+01  1.348699152E-06  0.00000E+00  9.000E+00
      21     1     1     2   511   513  4.703283102E+00  4.667104606E+00 -6.705332126E+01  6.737989781E+01  9.536743164E-07  0.00000E+00  9.000E+00
</event>
<event>
      5  10001  3.52971E+09  1.01679E+01 -1.00000E+00  1.94920E-01
       4    -1     0     0   511     0  0.000000000E+00  0.000000000E+00  1.257356753E+01  1.257356753E+01  0.000000000E+00  0.00000E+00  9.000E+00
      21    -1     0     0   512   515  0.000000000E+00  0.000000000E+00 -1.683967543E+02  1.683967543E+02  0.000000000E+00  0.00000E+00  9.000E+00
      21     1     1     2   511   515 -2.677969376E+00 -1.880705921E+01 -1.589993634E+02  1.601301801E+02  1.907348633E-06  0.00000E+00  9.000E+00
       4     1     1     2   514     0 -1.600452287E-02  3.470559160E+00  3.658797734E+00  5.261353237E+00  1.500000000E+00  0.00000E+00  9.000E+00
      21     1     1     2   512   514  2.693973899E+00  1.533650005E+01 -4.826210754E-01  1.557878854E+01  6.748844315E-07  0.00000E+00  9.000E+00
</event>
<event>
      5  10001  3.52971E+09  7.05677E+00 -1.00000E+00  2.15053E-01
      -3    -1     0     0     0   513  0.000000000E+00  0.000000000E+00  1.180519696E+01  1.180519696E+01  0.000000000E+00  0.00000E+00  9.000E+00
      21    -1     0     0   513   511  0.000000000E+00  0.000000000E+00 -9.873407970E+00  9.873407970E+00  0.000000000E+00  0.00000E+00  9.000E+00
      21     1     1     2   515   512 -2.847334514E+00  2.617652729E+00  1.431563187E+00  4.124171772E+00  7.598131170E-08  0.00000E+00  9.000E+00
      21     1     1     2   512   511  1.752741359E+00 -9.934346222E+00 -3.294968671E-01  1.009316131E+01  1.643355563E-07  0.00000E+00  9.000E+00
      -3     1     1     2     0   515  1.094593155E+00  7.316693494E+00  8.297226728E-01  7.461271847E+00  5.000000000E-01  0.00000E+00  9.000E+00
</event>
<event>
      5  10001  3.52971E+09  5.59813E+00 -1.00000E+00  2.30245E-01
      21    -1     0     0   514   511  0.000000000E+00  0.000000000E+00  1.447082860E+02  1.447082860E+02  0.000000000E+00  0.00000E+00  9.000E+00
      21    -1     0     0   512   514  0.000000000E+00  0.000000000E+00 -2.062900621E+00  2.062900621E+00  0.000000000E+00  0.00000E+00  9.000E+00
      21     1     1     2   516   511  1.045571770E+01 -6.986345592E+00  1.006500371E+02  1.014325442E+02  0.000000000E+00  0.00000E+00  9.000E+00
      21     1     1     2   513   516 -4.922194031E+00  7.834372136E+00  3.585457171E+01  3.702911953E+01  9.536743164E-07  0.00000E+00  9.000E+00
      21     1     1     2   512   513 -5.533523668E+00 -8.480265445E-01  6.140776493E+00  8.309522799E+00  1.192092896E-07  0.00000E+00  9.000E+00
</event>
<event>
      5  10001  3.52971E+09  1.01741E+01 -1.00000E+00  1.94890E-01
      21    -1     0     0   515   511  0.000000000E+00  0.000000000E+00  1.400891521E+02  1.400891521E+02  0.000000000E+00  0.00000E+00  9.000E+00
      21    -1     0     0   512   515  0.000000000E+00  0.000000000E+00 -6.478565951E+01  6.478565951E+01  0.000000000E+00  0.00000E+00  9.000E+00
      21     1     1     2   512   517 -2.040015020E+00  1.290446442E+01 -6.350434031E+01  6.483431269E+01  9.536743164E-07  0.00000E+00  9.000E+00
      21     1     1     2   514   511 -4.811711450E+00 -9.931325501E+00  8.696931460E+01  8.766667255E+01  0.000000000E+00  0.00000E+00  9.000E+00
      21     1     1     2   517   514  6.851726470E+00 -2.973138923E+00  5.183851824E+01  5.237382633E+01  6.743495762E-07  0.00000E+00  9.000E+00
</event>
<event>
      5  10001  3.52971E+09  1.53218E+01 -1.00000E+00  1.76516E-01
      21    -1     0     0   513   511  0.000000000E+00  0.000000000E+00  1.105822869E+01  1.105822869E+01  0.000000000E+00  0.00000E+00  9.000E+00
      21    -1     0     0   512   516  0.000000000E+00  0.000000000E+00 -9.525517365E+01  9.525517365E+01  0.000000000E+00  0.00000E+00  9.000E+00
      21     1     1     2   513   516  1.737379446E+01  1.060844723E+01 -2.324475482E+01  3.089832541E+01  5.840038640E-07  0.00000E+00  9.000E+00
      21     1     1     2   512   514 -2.107282254E+00 -1.190944972E+01 -5.869469641E+01  5.992781506E+01  0.000000000E+00  0.00000E+00  9.000E+00
      21     1     1     2   514   511 -1.526651221E+01  1.301002494E+00 -2.257493735E+00  1.548726188E+01  4.075406292E-07  0.00000E+00  9.000E+00
</event>
<event>
      5  10001  3.52971E+09  5.79821E+00 -1.00000E+00  2.27798E-01
       2    -1     0     0   515     0  0.000000000E+00  0.000000000E+00  8.975218490E+01  8.975218490E+01  0.000000000E+00  0.00000E+00  9.000E+00
      21    -1     0     0   511   515  0.000000000E+00  0.000000000E+00 -6.112389613E+02  6.112389613E+02  0.000000000E+00  0.00000E+00  9.000E+00
      21     1     1     2   511   517 -6.540018255E+00  1.044440510E+01 -6.100622660E+02  6.101867139E+02  7.629394531E-06  0.00000E+00  9.000E+00
      21     1     1     2   517   512  1.039146027E+01 -6.110192422E+00  7.603241895E+01  7.698211240E+01  2.697398305E-06  0.00000E+00  9.000E+00
       2     1     1     2   512     0 -3.851442020E+00 -4.334212681E+00  1.254307066E+01  1.382231988E+01  3.300000131E-01  0.00000E+00  9.000E+00
</event>
<event>
      5  10001  3.52971E+09  5.50901E+00 -1.00000E+00  2.31382E-01
      21    -1     0     0   513   516  0.000000000E+00  0.000000000E+00  1.946891909E+01  1.946891909E+01  0.000000000E+00  0.00000E+00  9.000E+00
      21    -1     0     0   515   514  0.000000000E+00  0.000000000E+00 -5.270213682E+01  5.270213682E+01  0.000000000E+00  0.00000E+00  9.000E+00
      21     1     1     2   513   514  1.135090630E+01 -5.209798409E+00  4.194548518E+00  1.317495012E+01  1.685873940E-07  0.00000E+00  9.000E+00
      21     1     1     2   511   516 -1.596996653E+01  8.212038683E+00  2.989781767E+00  1.820484016E+01  3.816559456E-07  0.00000E+00  9.000E+00
      21     1     1     2   515   511  4.619060229E+00 -3.002240274E+00 -4.041754802E+01  4.079126563E+01  8.259061849E-07  0.00000E+00  9.000E+00
</event>
<event>
      5  10001  3.52971E+09  6.86311E+00 -1.00000E+00  2.16767E-01
      21    -1     0     0   513   511  0.000000000E+00  0.000000000E+00  6.656258664E+00  6.656258664E+00  0.000000000E+00  0.00000E+00  9.000E+00
       2    -1     0     0   515     0  0.000000000E+00  0.000000000E+00 -1.112907389E+03  1.112907389E+03  0.000000000E+00  0.00000E+00  9.000E+00
      21     1     1     2   515   511 -2.155812400E+01  1.864495046E+01 -3.897418961E+02  3.907827177E+02  9.344061824E-06  0.00000E+00  9.000E+00
       2     1     1     2   512     0  1.756944000E+01 -2.422994574E+01 -7.203127613E+02  7.209343649E+02  3.300000131E-01  0.00000E+00  9.000E+00
      21     1     1     2   513   512  3.988684001E+00  5.584995283E+00  3.803526751E+00  7.846565371E+00  4.214684851E-08  0.00000E+00  9.000E+00
</event>
<event>
      5  10001  3.52971E+09  5.89972E+00 -1.00000E+00  2.26608E-01
       3    -1     0     0   514     0  0.000000000E+00  0.000000000E+00  2.028151940E+02  2.028151940E+02  0.000000000E+00  0.00000E+00  9.000E+00
       2    -1     0     0   511     0  0.000000000E+00  0.000000000E+00 -2.579002117E+00  2.579002117E+00  0.000000000E+00  0.00000E+00  9.000E+00
      21     1     1     2   511   512 -8.899639685E+00  8.558845878E+00  6.117114778E+01  6.240486159E+01  9.536743164E-07  0.00000E+00  9.000E+00
       2     1     1     2   514     0  6.091625724E+00 -1.374567775E+01  2.813965847E+01  3.190612542E+01  3.300000131E-01  0.00000E+00  9.000E+00
       3     1     1     2   512     0  2.808013961E+00  5.186831868E+00  1.109253856E+02  1.110832091E+02  5.000000000E-01  0.00000E+00  9.000E+00
</event>
<event>
      5  10001  3.52971E+09  8.76996E+00 -1.00000E+00  2.02581E-01
      21    -1     0     0   514   511  0.000000000E+00  0.000000000E+00  1.998612793E+01  1.998612793E+01  0.000000000E+00  0.00000E+00  9.000E+00
      21    -1     0     0   515   513  0.000000000E+00  0.000000000E+00 -9.226930983E+01  9.226930983E+01  0.000000000E+00  0.00000E+00  9.000E+00
      21     1     1     2   516   511  8.648308425E+00 -4.127527078E+00  1.030672673E+01  1.407331994E+01  5.331201500E-07  0.00000E+00  9.000E+00
      21     1     1     2   515   516 -1.597171261E+01 -6.973964451E-01 -8.693643117E+01  8.839414590E+01  9.536743164E-07  0.00000E+00  9.000E+00
      21     1     1     2   514   513  7.323404184E+00  4.824923523E+00  4.346522547E+00  9.787971909E+00  2.064765462E-07  0.00000E+00  9.000E+00
</event>
<event>
      5  10001  3.52971E+09  1.15365E+01 -1.00000E+00  1.88841E-01
      21    -1     0     0   512   515  0.000000000E+00  0.000000000E+00  5.077550870E+02  5.077550870E+02  0.000000000E+00  0.00000E+00  9.000E+00
       1    -1     0     0   511     0  0.000000000E+00  0.000000000E+00 -4.211553885E-01  4.211553885E-01  0.000000000E+00  0.00000E+00  9.000E+00
      21     1     1     2   511   515 -5.705585127E+00  7.080600212E+00  9.260842893E+01  9.305380008E+01  0.000000000E+00  0.00000E+00  9.000E+00
      21     1     1     2   512   516  9.620721396E+00 -2.222240773E+00  3.375606120E+02  3.377049946E+02  3.814697266E-06  0.00000E+00  9.000E+00
       1     1     1     2   516     0 -3.915136269E+00 -4.858359439E+00  7.716489078E+01  7.741744776E+01  3.300000131E-01  0.00000E+00  9.000E+00
</event>
<event>
      5  10001  3.52971E+09  1.59874E+01 -1.00000E+00  1.74811E-01
      21    -1     0     0   513   515  0.000000000E+00  0.000000000E+00  3.480988366E+01  3.480988366E+01  0.000000000E+00  0.00000E+00  9.000E+00
      21    -1     0     0   511   514  0.000000000E+00  0.000000000E+00 -3.766799009E+00  3.766799009E+00  0.000000000E+00  0.00000E+00  9.000E+00
      21     1     1     2   513   514  1.328536354E+00 -7.099495782E+00  9.464490071E+00  1.190564662E+01  1.192092896E-07  0.00000E+00  9.000E+00
      21     1     1     2   512   515 -3.284358472E+00  8.317786540E-01 -6.874713693E-01  3.457091724E+00  7.598131170E-08  0.00000E+00  9.000E+00
      21     1     1     2   511   512  1.955822119E+00  6.267717128E+00  2.226606595E+01  2.321394432E+01  3.371747881E-07  0.00000E+00  9.000E+00
</event>
<event>
      5  10001  3.52971E+09  4.80491E+00 -1.00000E+00  2.46011E-01
       2    -1     0     0   513     0  0.000000000E+00  0.000000000E+00  2.749491470E+02  2.749491470E+02  0.000000000E+00  0.00000E+00  9.000E+00
      21    -1     0     0   512   514  0.000000000E+00  0.000000000E+00 -8.393690336E+00  8.393690336E+00  0.000000000E+00  0.00000E+00  9.000E+00
      21     1     1     2   512   516 -3.559208107E+00  1.189932286E+01 -2.502449177E+00  1.266981053E+01  5.255696800E-07  0.00000E+00  9.000E+00
       2     1     1     2   516     0  4.895950806E+00 -7.284163418E+00  2.619281117E+02  2.620753211E+02  3.300000131E-01  0.00000E+00  9.000E+00
      21     1     1     2   513   514 -1.336742699E+00 -4.615159443E+00  7.129794167E+00  8.597705659E+00  8.429369702E-08  0.00000E+00  9.000E+00
</event>
<event>
      5  10001  3.52971E+09  5.74059E+00 -1.00000E+00  2.28488E-01
       4    -1     0     0   511     0  0.000000000E+00  0.000000000E+00  2.823181608E+01  2.823181608E+01  0.000000000E+00  0.00000E+00  9.000E+00
      21    -1     0     0   512   515  0.000000000E+00  0.000000000E+00 -1.363492017E+02  1.363492017E+02  0.000000000E+00  0.00000E+00  9.000E+00
      21     1     1     2   511   515 -7.368606087E+00 -7.348739339E+00 -1.275704739E+02  1.279942425E+02  1.907348633E-06  0.00000E+00  9.000E+00
      21     1     1     2   512   514  3.282543184E+00  1.137950501E+01 -3.917836159E+00  1.247468093E+01  3.153981341E-07  0.00000E+00  9.000E+00
       4     1     1     2   514     0  4.086062903E+00 -4.030765676E+00  2.337092442E+01  2.411209427E+01  1.500000000E+00  0.00000E+00  9.000E+00
</event>
<event>
      5  10001  3.52971E+09  4.24518E+00 -1.00000E+00  2.57519E-01
      21    -1     0     0   513   512  0.000000000E+00  0.000000000E+00  2.658930588E+01  2.658930588E+01  0.000000000E+00  0.00000E+00  9.000E+00
      21    -1     0     0   514   511  0.000000000E+00  0.000000000E+00 -1.217873101E+02  1.217873101E+02  0.000000000E+00  0.00000E+00  9.000E+00
      21     1     1     2   514   512 -7.041584901E+00 -1.670591897E+01  2.010892117E+01  2.707471804E+01  6.307962682E-07  0.00000E+00  9.000E+00
       1     1     1     2   513     0  2.813820705E+00  1.708830544E+01 -2.248952065E+01  2.838688445E+01  3.300000131E-01  0.00000E+00  9.000E+00
      -1     1     1     2     0   511  4.227764196E+00 -3.823864602E-01 -9.281740474E+01  9.291501349E+01  3.300000131E-01  0.00000E+00  9.000E+00
</event>
<event>
      5  10001  3.52971E+09  1.10986E+01 -1.00000E+00  1.90661E-01
      -1    -1     0     0     0   515  0.000000000E+00  0.000000000E+00  5.242553981E+02  5.242553981E+02  0.000000000E+00  0.00000E+00  9.000E+00
      21    -1     0     0   515   511  0.000000000E+00  0.000000000E+00 -4.932174152E+01  4.932174152E+01  0.000000000E+00  0.00000E+00  9.000E+00
      -1     1     1     2     0   514 -1.191615112E+01 -1.678724705E+01  5.177250326E+02  5.181342728E+02  3.300000131E-01  0.00000E+00  9.000E+00
      21     1     1     2   514   512  1.193334951E+00  1.640114284E+01 -4.149545639E+01  4.463512558E+01  1.348699152E-06  0.00000E+00  9.000E+00
      21     1     1     2   512   511  1.072281617E+01  3.861042100E-01 -1.295919666E+00  1.080774125E+01  3.613339559E-07  0.00000E+00  9.000E+00
</event>
<event>
      5  10001  3.52971E+09  2.92729E+00 -1.00000E+00  3.00128E-01
      -1    -1     0     0     0   512  0.000000000E+00  0.000000000E+00  3.710582111E+00  3.710582111E+00  0.000000000E+00  0.00000E+00  9.000E+00
       1    -1     0     0   512     0  0.000000000E+00  0.000000000E+00 -1.112255714E+03  1.112255714E+03  0.000000000E+00  0.00000E+00  9.000E+00
      -1     1     1     2     0   513  1.120918072E+01 -1.578835348E+01 -2.656935681E+01  3.287791750E+01  3.300000131E-01  0.00000E+00  9.000E+00
       1     1     1     2   511     0 -1.004175936E+01  1.722657960E+01 -1.080592471E+03  1.080776476E+03  3.300000131E-01  0.00000E+00  9.000E+00
      21     1     1     2   513   511 -1.167421359E+00 -1.438226125E+00 -1.383303882E+00  2.311903252E+00  6.143906155E-08  0.00000E+00  9.000E+00
</event>
<event>
      5  10001  3.52971E+09  2.98433E+00 -1.00000E+00  2.97549E-01
      21    -1     0     0   513   512  0.000000000E+00  0.000000000E+00  1.518310214E+02  1.518310214E+02  0.000000000E+00  0.00000E+00  9.000E+00
      21    -1     0     0   511   513  0.000000000E+00  0.000000000E+00 -2.227465729E+00  2.227465729E+00  0.000000000E+00  0.00000E+00  9.000E+00
      21     1     1     2   511   514 -5.296249864E+00  1.082555224E+01  1.675636784E+01  2.064022062E+01  2.384185791E-07  0.00000E+00  9.000E+00
       2     1     1     2   514     0  4.841292612E+00 -7.877290180E+00  9.342763647E+01  9.388462053E+01  3.300000131E-01  0.00000E+00  9.000E+00
      -2     1     1     2     0   512  4.549572528E-01 -2.948262063E+00  3.941955132E+01  3.953364594E+01  3.300000131E-01  0.00000E+00  9.000E+00
</event>
<event>
      5  10001  3.52971E+09  4.33748E+00 -1.00000E+00  2.55440E-01
       3    -1     0     0   513     0  0.000000000E+00  0.000000000E+00  5.828611404E+00  5.828611404E+00  0.000000000E+00  0.00000E+00  9.000E+00
      21    -1     0     0   514   513  0.000000000E+00  0.000000000E+00 -1.507367311E+02  1.507367311E+02  0.000000000E+00  0.00000E+00  9.000E+00
      -2     1     1     2     0   515 -2.081694576E+01  9.810146255E+00 -1.210751276E+02  1.232431727E+02  3.300000131E-01  0.00000E+00  9.000E+00
       3     1     1     2   515     0  1.993087024E+01 -8.554999737E+00 -2.256811008E+01  3.130490699E+01  5.000000000E-01  0.00000E+00  9.000E+00
       2     1     1     2   514     0  8.860755189E-01 -1.255146518E+00 -1.264882010E+00  2.017262778E+00  3.300000131E-01  0.00000E+00  9.000E+00
</event>
<event>
      5  10001  3.52971E+09  7.03248E+00 -1.00000E+00  2.15264E-01
      21    -1     0     0   511   515  0.000000000E+00  0.000000000E+00  1.142721265E+00  1.142721265E+00  0.000000000E+00  0.00000E+00  9.000E+00
      21    -1     0     0   514   512  0.000000000E+00  0.000000000E+00 -1.999399123E+02  1.999399123E+02  0.000000000E+00  0.00000E+00  9.000E+00
      21     1     1     2   511   512  1.758815066E+00 -1.391947233E+01 -8.280265495E+01  8.398288401E+01  1.348699152E-06  0.00000E+00  9.000E+00
      21     1     1     2   514   513 -4.763086815E+00  7.340497471E+00 -6.880405293E+01  6.935825545E+01  0.000000000E+00  0.00000E+00  9.000E+00
      21     1     1     2   513   515  3.004271749E+00  6.578974858E+00 -4.719048317E+01  4.774149412E+01  0.000000000E+00  0.00000E+00  9.000E+00
</event>
<event>
      5  10001  3.52971E+09  1.44915E+01 -1.00000E+00  1.78803E-01
      21    -1     0     0   514   515  0.000000000E+00  0.000000000E+00  2.040167741E+02  2.040167741E+02  0.000000000E+00  0.00000E+00  9.000E+00
       2    -1     0     0   515     0  0.000000000E+00  0.000000000E+00 -1.085941254E+01  1.085941254E+01  0.000000000E+00  0.00000E+00  9.000E+00
      21     1     1     2   514   513  1.807553752E+00  9.260222987E+00  1.847329846E+02  1.849737672E+02  2.697398305E-06  0.00000E+00  9.000E+00
      21     1     1     2   513   511 -6.118059954E+00  7.950285762E-01 -8.038519564E+00  1.013313993E+01  4.298152060E-07  0.00000E+00  9.000E+00
       2     1     1     2   511     0  4.310506202E+00 -1.005525156E+01  1.646289658E+01  1.976927949E+01  3.300000131E-01  0.00000E+00  9.000E+00
</event>
<event>
      5  10001  3.52971E+09  5.97460E+00 -1.00000E+00  2.25752E-01
       2    -1     0     0   513     0  0.000000000E+00  0.000000000E+00  3.554697944E+00  3.554697944E+00  0.000000000E+00  0.00000E+00  9.000E+00
      21    -1     0     0   511   514  0.000000000E+00  0.000000000E+00 -4.318029922E+02  4.318029922E+02  0.000000000E+00  0.00000E+00  9.000E+00
      21     1     1     2   513   512  2.065330753E-01  7.569832857E+00 -2.385023033E+00  7.939355154E+00  1.884864366E-07  0.00000E+00  9.000E+00
       2     1     1     2   511     0  7.218912069E-02 -1.353762279E+01 -6.011940715E+01  6.162568018E+01  3.300000131E-01  0.00000E+00  9.000E+00
      21     1     1     2   512   514 -2.787221960E-01  5.967789928E+00 -3.657438641E+02  3.657926548E+02  5.394796609E-06  0.00000E+00  9.000E+00
</event>
<event>
      5  10001  3.52971E+09  5.56074E+00 -1.00000E+00  2.30719E-01
       3    -1     0     0   515     0  0.000000000E+00  0.000000000E+00  3.635170917E+00  3.635170917E+00  0.000000000E+00  0.00000E+00  9.000E+00
       2    -1     0     0   512     0  0.000000000E+00  0.000000000E+00 -4.133653253E+02  4.133653253E+02  0.000000000E+00  0.00000E+00  9.000E+00
      21     1     1     2   512   511  1.334568333E+01  4.003454139E+00 -3.728340460E+01  3.980184879E+01  6.743495762E-07  0.00000E+00  9.000E+00
       2     1     1     2   515     0 -1.461861038E+01  1.409141256E+00 -3.711844410E+02  3.714750161E+02  3.300000131E-01  0.00000E+00  9.000E+00
       3     1     1     2   511     0  1.272927050E+00 -5.412595395E+00 -1.262308799E+00  5.723631338E+00  5.000000000E-01  0.00000E+00  9.000E+00
</event>
<event>
      5  10001  3.52971E+09  8.10459E+00 -1.00000E+00  2.06931E-01
      21    -1     0     0   513   511  0.000000000E+00  0.000000000E+00  2.178834519E+02  2.178834519E+02  0.000000000E+00  0.00000E+00  9.000E+00
      21    -1     0     0   514   513  0.000000000E+00  0.000000000E+00 -2.020239553E+02  2.020239553E+02  0.000000000E+00  0.00000E+00  9.000E+00
      21     1     1     2   514   512  7.292266457E+00  8.161155956E+00 -2.005867417E+02  2.008850979E+02  2.697398305E-06  0.00000E+00  9.000E+00
      21     1     1     2   515   511 -6.071475334E+00 -4.887927924E-01  2.055493036E+02  2.056395340E+02  0.000000000E+00  0.00000E+00  9.000E+00
      21     1     1     2   512   515 -1.220791122E+00 -7.672363163E+00  1.089693482E+01  1.338277534E+01  3.371747881E-07  0.00000E+00  9.000E+00
</event>
<event>
      5  10001  3.52971E+09  4.04038E+00 -1.00000E+00  2.62438E-01
      21    -1     0     0   513   511  0.000000000E+00  0.000000000E+00  1.025876479E+02  1.025876479E+02  0.000000000E+00  0.00000E+00  9.000E+00
      21    -1     0     0   517   516  0.000000000E+00  0.000000000E+00 -2.630563161E+01  2.630563161E+01  0.000000000E+00  0.00000E+00  9.000E+00
      21     1     1     2   515   511  9.207387340E+00 -1.180562498E+00 -4.568701905E+00  1.034614646E+01  4.172325134E-07  0.00000E+00  9.000E+00
      21     1     1     2   517   515 -1.152490008E+01 -2.129096605E+00 -1.698059335E+01  2.063242411E+01  3.371747881E-07  0.00000E+00  9.000E+00
      21     1     1     2   513   516  2.317512744E+00  3.309659103E+00  9.783131152E+01  9.791470892E+01  1.907348633E-06  0.00000E+00  9.000E+00
</event>
<event>
      5  10001  3.52971E+09  8.32978E+00 -1.00000E+00  2.05398E-01
      21    -1     0     0   512   516  0.000000000E+00  0.000000000E+00  6.973526524E+01  6.973526524E+01  0.000000000E+00  0.00000E+00  9.000E+00
      21    -1     0     0   511   514  0.000000000E+00  0.000000000E+00 -8.127391822E+00  8.127391822E+00  0.000000000E+00  0.00000E+00  9.000E+00
      21     1     1     2   512   514  7.508974138E+00  5.692876150E+00 -3.899968818E+00  1.019820025E+01  3.371747881E-07  0.00000E+00  9.000E+00
      21     1     1     2   511   515 -6.781582685E+00  7.693611515E-01  5.413587551E+01  5.456440962E+01  9.536743164E-07  0.00000E+00  9.000E+00
      21     1     1     2   515   516 -7.273914531E-01 -6.462237301E+00  1.137196673E+01  1.310004720E+01  1.685873940E-07  0.00000E+00  9.000E+00
</event>
<event>
      5  10001  3.52971E+09  7.00371E+00 -1.00000E+00  2.15515E-01
      21    -1     0     0   513   511  0.000000000E+00  0.000000000E+00  1.313438914E+01  1.313438914E+01  0.000000000E+00  0.00000E+00  9.000E+00
      21    -1     0     0   512   513  0.000000000E+00  0.000000000E+00 -4.947165604E+02  4.947165604E+02  0.000000000E+00  0.00000E+00  9.000E+00
      21     1     1     2   516   517  3.865065860E+00 -1.193544177E+01 -5.785102843E+01  5.919573459E+01  6.743495762E-07  0.00000E+00  9.000E+00
      21     1     1     2   517   511  3.066290983E+00  1.093130641E+01  9.842107497E+00  1.502540117E+01  2.384185791E-07  0.00000E+00  9.000E+00
      21     1     1     2   512   516 -6.931356843E+00  1.004135358E+00 -4.335732504E+02  4.336298138E+02  7.629394531E-06  0.00000E+00  9.000E+00
</event>
<event>
      5  10001  3.52971E+09  5.06376E+00 -1.00000E+00  2.37552E-01
       2    -1     0     0   514     0  0.000000000E+00  0.000000000E+00  3.045387197E+02  3.045387197E+02  0.000000000E+00  0.00000E+00  9.000E+00
      21    -1     0     0   512   515  0.000000000E+00  0.000000000E+00 -1.960590740E+01  1.960590740E+01  0.000000000E+00  0.00000E+00  9.000E+00
      21     1     1     2   514   515  9.477272266E+00 -1.081874422E+01 -1.044165148E+01  1.777335089E+01  1.192092896E-07  0.00000E+00  9.000E+00
      21     1     1     2   512   516 -8.079897392E+00  5.951633434E+00 -8.796080610E-01  1.007374770E+01  2.365486006E-07  0.00000E+00  9.000E+00
       2     1     1     2   516     0 -1.397374875E+00  4.867110784E+00  2.962540718E+02  2.962975285E+02  3.300000131E-01  0.00000E+00  9.000E+00
</event>
<event>
      5  10001  3.52971E+09  2.79987E+00 -1.00000E+00  3.06262E-01
      21    -1     0     0   511   513  0.000000000E+00  0.000000000E+00  6.927712100E+00  6.927712100E+00  0.000000000E+00  0.00000E+00  9.000E+00
      21    -1     0     0   513   514  0.000000000E+00  0.000000000E+00 -3.125093695E+01  3.125093695E+01  0.000000000E+00  0.00000E+00  9.000E+00
      21     1     1     2   512   514  3.627572716E+00 -1.999411868E+00 -1.225420820E+01  1.293532181E+01  1.685873940E-07  0.00000E+00  9.000E+00
       3     1     1     2   511     0 -1.007473817E+01  3.250926911E+00  9.626930906E-01  1.064169408E+01  5.000000000E-01  0.00000E+00  9.000E+00
      -3     1     1     2     0   512  6.447165452E+00 -1.251515043E+00 -1.303170974E+01  1.460163316E+01  5.000000000E-01  0.00000E+00  9.000E+00
</event>
<event>
      5  10001  3.52971E+09  3.57285E+00 -1.00000E+00  2.75580E-01
      21    -1     0     0   515   511  0.000000000E+00  0.000000000E+00  3.994184646E+01  3.994184646E+01  0.000000000E+00  0.00000E+00  9.000E+00
      21    -1     0     0   513   515  0.000000000E+00  0.000000000E+00 -6.984999267E+00  6.984999267E+00  0.000000000E+00  0.00000E+00  9.000E+00
      21     1     1     2   513   512 -6.576522262E+00 -7.640004891E+00 -9.032906050E-01  1.012107967E+01  1.173318606E-07  0.00000E+00  9.000E+00
      21     1     1     2   512   514  3.598123576E+00  9.613427430E+00  2.907628989E+01  3.083496577E+01  5.840038640E-07  0.00000E+00  9.000E+00
      21     1     1     2   514   511  2.978398687E+00 -1.973422539E+00  4.783847902E+00  5.970800282E+00  5.960464478E-08  0.00000E+00  9.000E+00
</event>
<event>
      5  10001  3.52971E+09  1.07324E+01 -1.00000E+00  1.92270E-01
      21    -1     0     0   516   512  0.000000000E+00  0.000000000E+00  2.884750197E+01  2.884750197E+01  0.000000000E+00  0.00000E+00  9.000E+00
      21    -1     0     0   513   511  0.000000000E+00  0.000000000E+00 -3.438661612E+01  3.438661612E+01  0.000000000E+00  0.00000E+00  9.000E+00
      21     1     1     2   516   511 -3.449470266E+00 -1.583479189E+01 -2.701417705E+01  3.150246404E+01  6.743495762E-07  0.00000E+00  9.000E+00
      21     1     1     2   513   515  8.194547531E+00  7.954145345E+00  1.906258606E+01  2.222163866E+01  0.000000000E+00  0.00000E+00  9.000E+00
      21     1     1     2   515   512 -4.745077265E+00  7.880646544E+00  2.412476843E+00  9.510015390E+00  2.327635788E-07  0.00000E+00  9.000E+00
</event>
<event>
      5  10001  3.52971E+09  1.26653E+01 -1.00000E+00  1.84593E-01
      -1    -1     0     0     0   512  0.000000000E+00  0.000000000E+00  6.106889599E+02  6.106889599E+02  0.000000000E+00  0.00000E+00  9.000E+00
       4    -1     0     0   512     0  0.000000000E+00  0.000000000E+00 -3.011109789E+01  3.011109789E+01  0.000000000E+00  0.00000E+00  9.000E+00
      -1     1     1     2     0   511  2.133175667E+01 -3.348715043E-01  5.818486612E+02  5.822397525E+02  3.300000131E-01  0.00000E+00  9.000E+00
       4     1     1     2   514     0 -1.233876283E+01  2.061154561E+00 -2.778561791E+01  3.050875266E+01  1.500000000E+00  0.00000E+00  9.000E+00
      21     1     1     2   511   514 -8.992993840E+00 -1.726283057E+00  2.651481869E+01  2.805155257E+01  0.000000000E+00  0.00000E+00  9.000E+00
</event>
<event>
      5  10001  3.52971E+09  3.39954E+01 -1.00000E+00  1.49359E-01
      21    -1     0     0   513   515  0.000000000E+00  0.000000000E+00  1.765297655E+02  1.765297655E+02  0.000000000E+00  0.00000E+00  9.000E+00
      21    -1     0     0   512   513  0.000000000E+00  0.000000000E+00 -1.324435005E+01  1.324435005E+01  0.000000000E+00  0.00000E+00  9.000E+00
      21     1     1     2   514   515  1.040627140E+01 -2.968757985E+00  1.723603358E+02  1.726997086E+02  3.303624740E-06  0.00000E+00  9.000E+00
      21     1     1     2   512   516 -3.698568307E-01 -2.184102043E+00  5.070928187E-01  2.272496191E+00  5.475036225E-08  0.00000E+00  9.000E+00
      21     1     1     2   516   514 -1.003641457E+01  5.152860029E+00 -9.582013182E+00  1.480191071E+01  3.769728732E-07  0.00000E+00  9.000E+00
</event>
<event>
      5  10001  3.52971E+09  1.60846E+01 -1.00000E+00  1.74571E-01
      21    -1     0     0   511   512  0.000000000E+00  0.000000000E+00  3.044031259E+00  3.044031259E+00  0.000000000E+00  0.00000E+00  9.000E+00
      21    -1     0     0   515   514  0.000000000E+00  0.000000000E+00 -4.850965542E+01  4.850965542E+01  0.000000000E+00  0.00000E+00  9.000E+00
      21     1     1     2   511   514 -1.923825733E+00 -5.728557433E+00 -1.183199388E+01  1.328584039E+01  1.685873940E-07  0.00000E+00  9.000E+00
      21     1     1     2   513   512  2.523711569E+00  4.682227587E+00 -3.558146261E+01  3.597683778E+01  4.768371582E-07  0.00000E+00  9.000E+00
      21     1     1     2   515   513 -5.998858354E-01  1.046329846E+00  1.947832334E+00  2.291008503E+00  8.688795410E-08  0.00000E+00  9.000E+00
</event>
<event>
      5  10001  3.52971E+09  1.20290E+01 -1.00000E+00  1.86914E-01
      21    -1     0     0   516   513  0.000000000E+00  0.000000000E+00  3.332511223E-01  3.332511223E-01  0.000000000E+00  0.00000E+00  9.000E+00
      21    -1     0     0   515   517  0.000000000E+00  0.000000000E+00 -5.479677693E+02  5.479677693E+02  0.000000000E+00  0.00000E+00  9.000E+00
      21     1     1     2   516   517  1.185364040E+01 -4.739523053E-01 -2.189877789E+02  2.193088706E+02  2.697398305E-06  0.00000E+00  9.000E+00
       2     1     1     2   515     0 -3.183413463E+00  4.143222932E+00 -1.568168350E+02  1.569042034E+02  3.300000131E-01  0.00000E+00  9.000E+00
      -2     1     1     2     0   513 -8.670226936E+00 -3.669270627E+00 -1.718299043E+02  1.720879464E+02  3.300000131E-01  0.00000E+00  9.000E+00
</event>
<event>
      5  10001  3.52971E+09  3.16389E+00 -1.00000E+00  2.90020E-01
      21    -1     0     0   511   515  0.000000000E+00  0.000000000E+00  8.238810168E+01  8.238810168E+01  0.000000000E+00  0.00000E+00  9.000E+00
      21    -1     0     0   512   511  0.000000000E+00  0.000000000E+00 -2.429172039E+01  2.429172039E+01  0.000000000E+00  0.00000E+00  9.000E+00
      21     1     1     2   513   514  8.331464540E+00  2.418533701E+00  7.394632765E+01  7.445348870E+01  1.348699152E-06  0.00000E+00  9.000E+00
      21     1     1     2   512   513 -1.141512447E+01 -3.126495871E+00 -2.218527528E+01  2.514490967E+01  1.118282261E-06  0.00000E+00  9.000E+00
      21     1     1     2   514   515  3.083659932E+00  7.079621703E-01  6.335328926E+00  7.081423700E+00  1.192092896E-07  0.00000E+00  9.000E+00
</event>
<event>
      5  10001  3.52971E+09  1.99516E+01 -1.00000E+00  1.66453E-01
      21    -1     0     0   516   512  0.000000000E+00  0.000000000E+00  1.937649347E+02  1.937649347E+02  0.000000000E+00  0.00000E+00  9.000E+00
      21    -1     0     0   514   515  0.000000000E+00  0.000000000E+00 -1.094424855E+00  1.094424855E+00  0.000000000E+00  0.00000E+00  9.000E+00
      21     1     1     2   516   515  8.693557450E+00  6.773191034E+00  7.786638444E+01  7.864240513E+01  1.348699152E-06  0.00000E+00  9.000E+00
      21     1     1     2   511   512  2.495903413E+00 -4.789288450E+00  6.026403488E+01  6.050554286E+01  0.000000000E+00  0.00000E+00  9.000E+00
      21     1     1     2   514   511 -1.118946086E+01 -1.983902583E+00  5.454009054E+01  5.571141158E+01  9.536743164E-07  0.00000E+00  9.000E+00
</event>
<event>
      5  10001  3.52971E+09  7.55283E+00 -1.00000E+00  2.10986E-01
      21    -1     0     0   515   511  0.000000000E+00  0.000000000E+00  5.368312634E+01  5.368312634E+01  0.000000000E+00  0.00000E+00  9.000E+00
       2    -1     0     0   512     0  0.000000000E+00  0.000000000E+00 -2.990498209E+01  2.990498209E+01  0.000000000E+00  0.00000E+00  9.000E+00
      21     1     1     2   512   511 -1.584374797E+01 -3.322168808E+00  3.843192818E+01  4.170220928E+01  0.000000000E+00  0.00000E+00  9.000E+00
       2     1     1     2   513     0  8.311143539E+00  2.771688349E+00 -2.645769631E+01  2.787249464E+01  3.300000131E-01  0.00000E+00  9.000E+00
      21     1     1     2   515   513  7.532604432E+00  5.504804588E-01  1.180391238E+01  1.401340450E+01  0.000000000E+00  0.00000E+00  9.000E+00
</event>
<event>
      5  10001  3.52971E+09  6.32746E+00 -1.00000E+00  2.21940E-01
      21    -1     0     0   514   511  0.000000000E+00  0.000000000E+00  8.634583372E+00  8.634583372E+00  0.000000000E+00  0.00000E+00  9.000E+00
      21    -1     0     0   516   514  0.000000000E+00  0.000000000E+00 -5.346146848E+01  5.346146848E+01  0.000000000E+00  0.00000E+00  9.000E+00
      21     1     1     2   516   512 -1.592305847E+01  5.501400779E+00 -3.992208320E+01  4.333107348E+01  6.743495762E-07  0.00000E+00  9.000E+00
      21     1     1     2   517   511  9.838078659E+00  4.394055180E-02 -3.303260648E+00  1.037792144E+01  2.190014490E-07  0.00000E+00  9.000E+00
      21     1     1     2   512   517  6.084979807E+00 -5.545341330E+00 -1.601541261E+00  8.387056941E+00  1.228781231E-07  0.00000E+00  9.000E+00
</event>
<event>
      5  10001  3.52971E+09  4.74762E+00 -1.00000E+00  2.47078E-01
      21    -1     0     0   513   516  0.000000000E+00  0.000000000E+00  2.104996895E+02  2.104996895E+02  0.000000000E+00  0.00000E+00  9.000E+00
      21    -1     0     0   511   515  0.000000000E+00  0.000000000E+00 -2.607788370E+00  2.607788370E+00  0.000000000E+00  0.00000E+00  9.000E+00
      21     1     1     2   513   515 -6.451655117E+00  7.045375905E+00  2.848895109E+01  3.004798678E+01  1.348699152E-06  0.00000E+00  9.000E+00
      21     1     1     2   512   516  5.626549215E+00 -1.172075032E+01  1.774503782E+02  1.779260261E+02  2.697398305E-06  0.00000E+00  9.000E+00
      21     1     1     2   511   512  8.251059011E-01  4.675374414E+00  1.952571802E+00  5.133464941E+00  1.604904177E-07  0.00000E+00  9.000E+00
</event>
<event>
      5  10001  3.52971E+09  7.72456E+00 -1.00000E+00  2.09675E-01
      21    -1     0     0   514   512  0.000000000E+00  0.000000000E+00  6.621366121E+00  6.621366121E+00  0.000000000E+00  0.00000E+00  9.000E+00
      21    -1     0     0   511   514  0.000000000E+00  0.000000000E+00 -1.547888232E+02  1.547888232E+02  0.000000000E+00  0.00000E+00  9.000E+00
      21     1     1     2   511   517 -2.011571096E-02  1.046849188E+01 -1.467797143E+02  1.471525543E+02  1.907348633E-06  0.00000E+00  9.000E+00
      21     1     1     2   517   513 -2.214985208E+00 -2.579259261E+00  3.362145165E+00  4.781501638E+00  5.479090306E-07  0.00000E+00  9.000E+00
      21     1     1     2   513   512  2.235100919E+00 -7.889232615E+00 -4.749887968E+00  9.476133341E+00  3.674277069E-07  0.00000E+00  9.000E+00
</event>
<event>
      5  10001  3.52971E+09  8.90326E+00 -1.00000E+00  2.01771E-01
      21    -1     0     0   515   516  0.000000000E+00  0.000000000E+00  1.525074885E+02  1.525074885E+02  0.000000000E+00  0.00000E+00  9.000E+00
      21    -1     0     0   511   512  0.000000000E+00  0.000000000E+00 -1.402154955E+00  1.402154955E+00  0.000000000E+00  0.00000E+00  9.000E+00
      21     1     1     2   515   512  4.759624199E-01 -8.742536956E+00  1.705256484E+01  1.916894521E+01  3.371747881E-07  0.00000E+00  9.000E+00
      21     1     1     2   514   516 -5.224852063E+00  6.317022233E+00  7.450384728E+01  7.495349964E+01  0.000000000E+00  0.00000E+00  9.000E+00
      21     1     1     2   511   514  4.748889643E+00  2.425514724E+00  5.954892147E+01  5.978719865E+01  9.536743164E-07  0.00000E+00  9.000E+00
</event>
<event>
      5  10001  3.52971E+09  9.64299E+00 -1.00000E+00  1.97595E-01
      21    -1     0     0   511   513  0.000000000E+00  0.000000000E+00  2.998312317E+00  2.998312317E+00  0.000000000E+00  0.00000E+00  9.000E+00
       2    -1     0     0   514     0  0.000000000E+00  0.000000000E+00 -7.203312382E+01  7.203312382E+01  0.000000000E+00  0.00000E+00  9.000E+00
      21     1     1     2   514   512  6.587330784E-01  4.204952923E+00 -9.949180607E+00  1.082135634E+01  0.000000000E+00  0.00000E+00  9.000E+00
       2     1     1     2   511     0  6.818012237E+00 -1.229591630E+01 -3.524059793E+01  3.794316132E+01  3.300000131E-01  0.00000E+00  9.000E+00
      21     1     1     2   512   513 -7.476745315E+00  8.090963380E+00 -2.384503296E+01  2.626691847E+01  4.768371582E-07  0.00000E+00  9.000E+00
</event>
<event>
      5  10001  3.52971E+09  2.83717E+00 -1.00000E+00  3.04410E-01
      21    -1     0     0   515   511  0.000000000E+00  0.000000000E+00  2.024246966E+01  2.024246966E+01  0.000000000E+00  0.00000E+00  9.000E+00
      21    -1     0     0   512   513  0.000000000E+00  0.000000000E+00 -1.881190381E+01  1.881190381E+01  0.000000000E+00  0.00000E+00  9.000E+00
      21     1     1     2   515   513  1.092589914E+01 -1.119589873E+01  5.689227719E+00  1.664604254E+01  3.039252468E-07  0.00000E+00  9.000E+00
      21     1     1     2   512   514 -9.141959434E+00  1.340205115E+01 -7.692087878E+00  1.795434803E+01  2.064765462E-07  0.00000E+00  9.000E+00
      21     1     1     2   514   511 -1.783939704E+00 -2.206152420E+00  3.433426009E+00  4.453982884E+00  4.214684851E-08  0.00000E+00  9.000E+00
</event>
<event>
      5  10001  3.52971E+09  4.94250E+00 -1.00000E+00  2.43537E-01
      21    -1     0     0   514   513  0.000000000E+00  0.000000000E+00  2.066615762E+01  2.066615762E+01  0.000000000E+00  0.00000E+00  9.000E+00
       2    -1     0     0   512     0  0.000000000E+00  0.000000000E+00 -4.293804624E+01  4.293804624E+01  0.000000000E+00  0.00000E+00  9.000E+00
      21     1     1     2   512   511  3.227106887E+00 -1.174574978E+01  1.486151784E+01  1.921565948E+01  0.000000000E+00  0.00000E+00  9.000E+00
       2     1     1     2   514     0  3.262912543E-01  8.310625849E+00 -3.839570287E+01  3.928755359E+01  3.300000131E-01  0.00000E+00  9.000E+00
      21     1     1     2   511   513 -3.553398141E+00  3.435123933E+00  1.262296411E+00  5.100990788E+00  9.424321831E-08  0.00000E+00  9.000E+00
</event>
<event>
      5  10001  3.52971E+09  6.79996E+00 -1.00000E+00  2.17343E-01
       4    -1     0     0   511     0  0.000000000E+00  0.000000000E+00  7.476873589E+00  7.476873589E+00  0.000000000E+00  0.00000E+00  9.000E+00
      -1    -1     0     0     0   514  0.000000000E+00  0.000000000E+00 -1.128275900E+02  1.128275900E+02  0.000000000E+00  0.00000E+00  9.000E+00
      21     1     1     2   511   514  1.418454568E+01 -9.030825197E+00 -6.425849372E+00  1.800135218E+01  3.953724850E-07  0.00000E+00  9.000E+00
       4     1     1     2   515     0 -7.492703160E+00  1.017692988E+01 -2.487075346E+01  2.793769640E+01  1.500000000E+00  0.00000E+00  9.000E+00
      -1     1     1     2     0   515 -6.691842524E+00 -1.146104685E+00 -7.405411358E+01  7.436541501E+01  3.300000131E-01  0.00000E+00  9.000E+00
</event>
<event>
      5  10001  3.52971E+09  3.59068E+00 -1.00000E+00  2.75021E-01
      -3    -1     0     0     0   512  0.000000000E+00  0.000000000E+00  3.974299893E+00  3.974299893E+00  0.000000000E+00  0.00000E+00  9.000E+00
      21    -1     0     0   511   513  0.000000000E+00  0.000000000E+00 -9.578839742E+01  9.578839742E+01  0.000000000E+00  0.00000E+00  9.000E+00
      -3     1     1     2     0   513  2.518161133E+00  1.234695226E+01 -8.314217680E+00  1.510511771E+01  5.000000000E-01  0.00000E+00  9.000E+00
      21     1     1     2   514   512 -1.947424717E+00 -7.399440343E+00 -6.663076593E+01  6.706864505E+01  9.536743164E-07  0.00000E+00  9.000E+00
      21     1     1     2   511   514 -5.707364160E-01 -4.947511914E+00 -1.686911392E+01  1.758893455E+01  0.000000000E+00  0.00000E+00  9.000E+00
</event>
<event>
      5  10001  3.52971E+09  3.49414E+00 -1.00000E+00  2.78111E-01
      21    -1     0     0   515   513  0.000000000E+00  0.000000000E+00  1.559302167E+02  1.559302167E+02  0.000000000E+00  0.00000E+00  9.000E+00
      21    -1     0     0   511   516  0.000000000E+00  0.000000000E+00 -4.430584161E+01  4.430584161E+01  0.000000000E+00  0.00000E+00  9.000E+00
      21     1     1     2   515   516 -3.549324637E+01 -1.284474712E+01  1.445429997E+02  1.493902166E+02  1.907348633E-06  0.00000E+00  9.000E+00
      21     1     1     2   512   513  3.279216511E+01  9.003927598E+00 -2.804831095E+01  4.408065962E+01  1.430511475E-06  0.00000E+00  9.000E+00
      21     1     1     2   511   512  2.701081254E+00  3.840819524E+00 -4.870313588E+00  6.765182112E+00  2.384185791E-07  0.00000E+00  9.000E+00
</event>
<event>
      5  10001  3.52971E+09  7.55089E+00 -1.00000E+00  2.11001E-01
      21    -1     0     0   514   512  0.000000000E+00  0.000000000E+00  3.081796217E+01  3.081796217E+01  0.000000000E+00  0.00000E+00  9.000E+00
      21    -1     0     0   511   517  0.000000000E+00  0.000000000E+00 -7.758082760E+01  7.758082760E+01  0.000000000E+00  0.00000E+00  9.000E+00
      21     1     1     2   514   517  5.860637979E+00  9.526655311E+00 -7.373222205E+01  7.457576555E+01  9.536743164E-07  0.00000E+00  9.000E+00
      21     1     1     2   513   512 -7.222046190E+00 -2.855026936E+00  2.576281454E+01  2.690783794E+01  8.259061849E-07  0.00000E+00  9.000E+00
      21     1     1     2   511   513  1.361408211E+00 -6.671628375E+00  1.206542079E+00  6.915186279E+00  7.146345859E-08  0.00000E+00  9.000E+00
</event>
<event>
      5  10001  3.52971E+09  9.40312E+00 -1.00000E+00  1.98894E-01
      21    -1     0     0   511   512  0.000000000E+00  0.000000000E+00  9.068637263E+01  9.068637263E+01  0.000000000E+00  0.00000E+00  9.000E+00
       2    -1     0     0   513     0  0.000000000E+00  0.000000000E+00 -9.388471051E+01  9.388471051E+01  0.000000000E+00  0.00000E+00  9.000E+00
      21     1     1     2   513   512  8.853703126E+00  9.330225421E+00  8.717433494E+01  8.811813569E+01  9.536743164E-07  0.00000E+00  9.000E+00
       2     1     1     2   514     0 -1.797876538E+00 -1.186238342E+01 -8.766450944E+01  8.848233505E+01  3.300000131E-01  0.00000E+00  9.000E+00
      21     1     1     2   511   514 -7.055826588E+00  2.532158001E+00 -2.708163376E+00  7.970612389E+00  7.300048300E-08  0.00000E+00  9.000E+00
</event>
<event>
      5  10001  3.52971E+09  1.47552E+01 -1.00000E+00  1.78056E-01
      21    -1     0     0   515   512  0.000000000E+00  0.000000000E+00  1.895558688E+00  1.895558688E+00  0.000000000E+00  0.00000E+00  9.000E+00
      21    -1     0     0   516   515  0.000000000E+00  0.000000000E+00 -1.238414669E+02  1.238414669E+02  0.000000000E+00  0.00000E+00  9.000E+00
      21     1     1     2   516   513 -4.957421207E-01  9.172024972E+00 -6.849419018E+01  6.910735048E+01  0.000000000E+00  0.00000E+00  9.000E+00
      21     1     1     2   513   517  6.961626203E+00 -8.253440120E+00 -4.275112082E+01  4.409355786E+01  9.536743164E-07  0.00000E+00  9.000E+00
      21     1     1     2   517   512 -6.465884083E+00 -9.185848521E-01 -1.070059725E+01  1.253611729E+01  1.685873940E-07  0.00000E+00  9.000E+00
</event>
<event>
      5  10001  3.52971E+09  8.97895E+00 -1.00000E+00  2.01319E-01
      21    -1     0     0   515   513  0.000000000E+00  0.000000000E+00  8.929351860E+02  8.929351860E+02  0.000000000E+00  0.00000E+00  9.000E+00
      21    -1     0     0   512   511  0.000000000E+00  0.000000000E+00 -2.822838265E+01  2.822838265E+01  0.000000000E+00  0.00000E+00  9.000E+00
      21     1     1     2   512   514  1.240666060E+01  1.940138672E+01 -2.296196866E+01  3.252062482E+01  1.261592536E-06  0.00000E+00  9.000E+00
      21     1     1     2   514   513 -8.140981816E+00 -1.150039920E+01  1.071424055E+02  1.080649334E+02  1.907348633E-06  0.00000E+00  9.000E+00
      21     1     1     2   515   511 -4.265678786E+00 -7.900987517E+00  7.805263665E+02  7.805780104E+02  1.525878906E-05  0.00000E+00  9.000E+00
</event>
<event>
      5  10001  3.52971E+09  9.35863E+00 -1.00000E+00  1.99140E-01
      21    -1     0     0   516   511  0.000000000E+00  0.000000000E+00  2.215590381E+01  2.215590381E+01  0.000000000E+00  0.00000E+00  9.000E+00
      21    -1     0     0   512   517  0.000000000E+00  0.000000000E+00 -1.411127301E+01  1.411127301E+01  0.000000000E+00  0.00000E+00  9.000E+00
      21     1     1     2   516   517  3.503245916E+00  1.188132853E+01  1.406124930E+01  1.873919506E+01  2.920019320E-07  0.00000E+00  9.000E+00
      21     1     1     2   512   513  2.119411012E+00 -5.921582924E+00 -6.841406646E+00  9.293109935E+00  2.528810911E-07  0.00000E+00  9.000E+00
      21     1     1     2   513   511 -5.622656928E+00 -5.959745606E+00  8.247881455E-01  8.234871833E+00  1.429269172E-07  0.00000E+00  9.000E+00
</event>
<event>
      5  10001  3.52971E+09  4.92911E+00 -1.00000E+00  2.43772E-01
      21    -1     0     0   514   512  0.000000000E+00  0.000000000E+00  1.037632837E+01  1.037632837E+01  0.000000000E+00  0.00000E+00  9.000E+00
      21    -1     0     0   515   511  0.000000000E+00  0.000000000E+00 -7.585818293E+01  7.585818293E+01  0.000000000E+00  0.00000E+00  9.000E+00
      21     1     1     2   514   511 -1.007413491E+01 -3.156202447E+00 -7.223302383E+01  7.300040780E+01  9.536743164E-07  0.00000E+00  9.000E+00
      21     1     1     2   515   516  5.989636249E+00  2.299273496E+00  1.614654497E+00  6.615852942E+00  2.169641819E-07  0.00000E+00  9.000E+00
      21     1     1     2   516   512  4.084498665E+00  8.569289508E-01  5.136514767E+00  6.618250564E+00  1.976862425E-07  0.00000E+00  9.000E+00
</event>
<event>
      5  10001  3.52971E+09  9.58580E+00 -1.00000E+00  1.97900E-01
      21    -1     0     0   513   511  0.000000000E+00  0.000000000E+00  3.787811504E+01  3.787811504E+01  0.000000000E+00  0.00000E+00  9.000E+00
      21    -1     0     0   517   514  0.000000000E+00  0.000000000E+00 -7.610838310E+01  7.610838310E+01  0.000000000E+00  0.00000E+00  9.000E+00
      21     1     1     2   513   512  6.326510435E+00  1.304407114E+01 -1.374730900E+01  1.997901477E+01  4.129530925E-07  0.00000E+00  9.000E+00
      21     1     1     2   517   511  1.009263877E+00 -1.921448204E+01  3.166209116E+01  3.705000608E+01  5.840038640E-07  0.00000E+00  9.000E+00
      21     1     1     2   512   514 -7.335774311E+00  6.170410899E+00 -5.614505022E+01  5.695747730E+01  0.000000000E+00  0.00000E+00  9.000E+00
</event>
<event>
      5  10001  3.52971E+09  1.79966E+01 -1.00000E+00  1.70239E-01
      21    -1     0     0   515   514  0.000000000E+00  0.000000000E+00  7.627345374E+00  7.627345374E+00  0.000000000E+00  0.00000E+00  9.000E+00
      21    -1     0     0   512   516  0.000000000E+00  0.000000000E+00 -5.546918097E+01  5.546918097E+01  0.000000000E+00  0.00000E+00  9.000E+00
      21     1     1     2   515   516 -7.731104372E+00 -6.593954899E+00 -4.543206118E+01  4.655450997E+01  0.000000000E+00  0.00000E+00  9.000E+00
      21     1     1     2   511   514 -2.307039708E-01  7.034947913E+00 -4.429105264E+00  8.316290633E+00  1.032382731E-07  0.00000E+00  9.000E+00
      21     1     1     2   512   511  7.961808343E+00 -4.409930139E-01  2.019330841E+00  8.225725742E+00  3.024605383E-07  0.00000E+00  9.000E+00
</event>
<event>
      5  10001  3.52971E+09  3.00381E+00 -1.00000E+00  2.96690E-01
      21    -1     0     0   513   514  0.000000000E+00  0.000000000E+00  5.918335686E+01  5.918335686E+01  0.000000000E+00  0.00000E+00  9.000E+00
      21    -1     0     0   512   517  0.000000000E+00  0.000000000E+00 -5.549366646E+01  5.549366646E+01  0.000000000E+00  0.00000E+00  9.000E+00
      21     1     1     2   513   517  5.110816153E+00  1.278356451E+01 -5.334341689E+01  5.509137944E+01  6.743495762E-07  0.00000E+00  9.000E+00
      21     1     1     2   512   511 -2.190777932E+00 -1.207912964E+01  3.042186458E+01  3.280540695E+01  4.768371582E-07  0.00000E+00  9.000E+00
      21     1     1     2   511   514 -2.920038221E+00 -7.044348677E-01  2.661124271E+01  2.678023693E+01  3.371747881E-07  0.00000E+00  9.000E+00
</event>
<event>
      5  10001  3.52971E+09  4.77748E+00 -1.00000E+00  2.46519E-01
      21    -1     0     0   511   512  0.000000000E+00  0.000000000E+00  3.070881639E+02  3.070881639E+02  0.000000000E+00  0.00000E+00  9.000E+00
      21    -1     0     0   514   513  0.000000000E+00  0.000000000E+00 -1.677982989E+02  1.677982989E+02  0.000000000E+00  0.00000E+00  9.000E+00
      21     1     1     2   514   512  1.225582307E+01  2.134493553E+00  3.065715141E+02  3.068238168E+02  8.529922400E-06  0.00000E+00  9.000E+00
       1     1     1     2   511     0 -8.446322195E+00 -5.017541635E+00 -7.292007964E+01  7.357963711E+01  3.300000131E-01  0.00000E+00  9.000E+00
      -1     1     1     2     0   513 -3.809500871E+00  2.883048082E+00 -9.436156956E+01  9.448300891E+01  3.300000131E-01  0.00000E+00  9.000E+00
</event>
<event>
      5  10001  3.52971E+09  4.74289E+00 -1.00000E+00  2.47167E-01
      21    -1     0     0   513   511  0.000000000E+00  0.000000000E+00  1.034029159E+01  1.034029159E+01  0.000000000E+00  0.00000E+00  9.000E+00
      21    -1     0     0   515   513  0.000000000E+00  0.000000000E+00 -1.617070884E+02  1.617070884E+02  0.000000000E+00  0.00000E+00  9.000E+00
      -3     1     1     2     0   514  1.267221254E+01 -6.404678382E+00 -5.316562225E+00  1.516973005E+01  5.000000000E-01  0.00000E+00  9.000E+00
       3     1     1     2   515     0 -9.112619683E+00  9.538277342E+00 -1.500769017E+02  1.506563806E+02  5.000000000E-01  0.00000E+00  9.000E+00
      21     1     1     2   514   511 -3.559592856E+00 -3.133598960E+00  4.026667180E+00  6.221269349E+00  1.460009660E-07  0.00000E+00  9.000E+00
</event>
<event>
      5  10001  3.52971E+09  4.63028E+00 -1.00000E+00  2.49336E-01
       2    -1     0     0   515     0  0.000000000E+00  0.000000000E+00  2.241870119E+03  2.241870119E+03  0.000000000E+00  0.00000E+00  9.000E+00
      21    -1     0     0   514   513  0.000000000E+00  0.000000000E+00 -4.227149741E+00  4.227149741E+00  0.000000000E+00  0.00000E+00  9.000E+00
      21     1     1     2   514   512 -1.083272464E+01  9.199339645E+00  7.945623895E+00  1.628215932E+01  3.116587749E-06  0.00000E+00  9.000E+00
       2     1     1     2   512     0  1.542318290E+01 -9.805135348E+00  1.756065620E+03  1.756160752E+03  3.300000131E-01  0.00000E+00  9.000E+00
      21     1     1     2   515   513 -4.590458266E+00  6.057957030E-01  4.736317247E+02  4.736543570E+02  0.000000000E+00  0.00000E+00  9.000E+00
</event>
<event>
      5  10001  3.52971E+09  4.99075E+00 -1.00000E+00  2.42698E-01
      21    -1     0     0   511   514  0.000000000E+00  0.000000000E+00  4.546455696E+01  4.546455696E+01  0.000000000E+00  0.00000E+00  9.000E+00
      21    -1     0     0   516   512  0.000000000E+00  0.000000000E+00 -3.393690218E+01  3.393690218E+01  0.000000000E+00  0.00000E+00  9.000E+00
      21     1     1     2   513   514 -1.278298041E+01  1.340087965E+00  4.221170414E+01  4.412514465E+01  9.536743164E-07  0.00000E+00  9.000E+00
      21     1     1     2   516   513  1.171993607E+01  3.536130862E+00 -1.942400883E+01  2.295981799E+01  5.840038640E-07  0.00000E+00  9.000E+00
      21     1     1     2   511   512  1.063044338E+00 -4.876218827E+00 -1.126004053E+01  1.231649650E+01  1.685873940E-07  0.00000E+00  9.000E+00
</event>
<event>
      5  10001  3.52971E+09  1.56310E+01 -1.00000E+00  1.75710E-01
      -4    -1     0     0     0   515  0.000000000E+00  0.000000000E+00  2.210400244E+01  2.210400244E+01  0.000000000E+00  0.00000E+00  9.000E+00
      21    -1     0     0   513   511  0.000000000E+00  0.000000000E+00 -1.734065729E+02  1.734065729E+02  0.000000000E+00  0.00000E+00  9.000E+00
      -4     1     1     2     0   512  1.862515151E+01  6.737252716E+00  1.534910391E+01  2.510242685E+01  1.500000000E+00  0.00000E+00  9.000E+00
      21     1     1     2   512   511 -1.449816651E+01  8.336619436E+00 -1.211139776E+02  1.222632064E+02  1.348699152E-06  0.00000E+00  9.000E+00
      21     1     1     2   513   515 -4.126985003E+00 -1.507387215E+01 -4.553769675E+01  4.814494213E+01  0.000000000E+00  0.00000E+00  9.000E+00
</event>
<event>
      5  10001  3.52971E+09  6.33234E+00 -1.00000E+00  2.21890E-01
      21    -1     0     0   514   512  0.000000000E+00  0.000000000E+00  2.487202093E+02  2.487202093E+02  0.000000000E+00  0.00000E+00  9.000E+00
      21    -1     0     0   513   514  0.000000000E+00  0.000000000E+00 -5.163653180E-01  5.163653180E-01  0.000000000E+00  0.00000E+00  9.000E+00
      21     1     1     2   513   515  3.898506374E+00 -8.903030234E+00  9.586989017E+01  9.636128964E+01  1.348699152E-06  0.00000E+00  9.000E+00
      21     1     1     2   515   511 -4.570512291E+00  6.258547991E+00  5.966830362E+01  6.016947284E+01  1.168007728E-06  0.00000E+00  9.000E+00
      21     1     1     2   511   512  6.720059173E-01  2.644482244E+00  9.266565015E+01  9.270581209E+01  0.000000000E+00  0.00000E+00  9.000E+00
</event>
<event>
      5  10001  3.52971E+09  8.84168E+00 -1.00000E+00  2.02143E-01
      -2    -1     0     0     0   511  0.000000000E+00  0.000000000E+00  8.149295559E+01  8.149295559E+01  0.000000000E+00  0.00000E+00  9.000E+00
      21    -1     0     0   512   516  0.000000000E+00  0.000000000E+00 -6.699249088E+01  6.699249088E+01  0.000000000E+00  0.00000E+00  9.000E+00
      21     1     1     2   517   511  7.374375159E-01 -1.157343950E+01 -7.465765314E+00  1.379224303E+01  2.795705652E-07  0.00000E+00  9.000E+00
      21     1     1     2   512   517  7.242145294E+00  7.765458067E+00 -5.560967412E+01  5.661436976E+01  6.743495762E-07  0.00000E+00  9.000E+00
      -2     1     1     2     0   516 -7.979582810E+00  3.807981433E+00  7.757590415E+01  7.807883368E+01  3.300000131E-01  0.00000E+00  9.000E+00
</event>
<event>
      5  10001  3.52971E+09  1.28504E+01 -1.00000E+00  1.83951E-01
      21    -1     0     0   513   511  0.000000000E+00  0.000000000E+00  8.785899027E+01  8.785899027E+01  0.000000000E+00  0.00000E+00  9.000E+00
      21    -1     0     0   514   513  0.000000000E+00  0.000000000E+00 -1.329079786E+00  1.329079786E+00  0.000000000E+00  0.00000E+00  9.000E+00
      21     1     1     2   514   515 -3.095085402E+00 -5.186623985E+00  1.714089343E+01  1.817390573E+01  4.129530925E-07  0.00000E+00  9.000E+00
      21     1     1     2   515   512  6.529384183E+00  3.166314034E+00  1.713219146E+01  1.860565470E+01  4.768371582E-07  0.00000E+00  9.000E+00
      21     1     1     2   512   511 -3.434298781E+00  2.020309950E+00  5.225682559E+01  5.240850963E+01  6.743495762E-07  0.00000E+00  9.000E+00
</event>
<event>
      5  10001  3.52971E+09  9.48693E+00 -1.00000E+00  1.98434E-01
      21    -1     0     0   516   511  0.000000000E+00  0.000000000E+00  3.342081479E+01  3.342081479E+01  0.000000000E+00  0.00000E+00  9.000E+00
      21    -1     0     0   512   516  0.000000000E+00  0.000000000E+00 -1.013394502E+02  1.013394502E+02  0.000000000E+00  0.00000E+00  9.000E+00
      -4     1     1     2     0   511 -3.148937463E+01 -1.778220792E+00  2.011666649E+01  3.743892432E+01  1.500000000E+00  0.00000E+00  9.000E+00
      21     1     1     2   512   513  3.017225730E+01 -4.975490721E+00 -8.355352980E+01  8.897366442E+01  0.000000000E+00  0.00000E+00  9.000E+00
       4     1     1     2   513     0  1.317117335E+00  6.753711513E+00 -4.481772053E+00  8.347676204E+00  1.500000000E+00  0.00000E+00  9.000E+00
</event>
<event>
      5  10001  3.52971E+09  1.20452E+01 -1.00000E+00  1.86852E-01
      21    -1     0     0   514   512  0.000000000E+00  0.000000000E+00  1.060652696E+02  1.060652696E+02  0.000000000E+00  0.00000E+00  9.000E+00
      21    -1     0     0   511   515  0.000000000E+00  0.000000000E+00 -3.206392235E+00  3.206392235E+00  0.000000000E+00  0.00000E+00  9.000E+00
      21     1     1     2   514   515  1.067976119E+00  8.810010895E+00  7.862012977E+01  7.911941399E+01  9.536743164E-07  0.00000E+00  9.000E+00
      21     1     1     2   511   516 -3.853047584E+00 -1.192252201E+01  2.222935104E+01  2.551737750E+01  3.371747881E-07  0.00000E+00  9.000E+00
      21     1     1     2   516   512  2.785071465E+00  3.112511117E+00  2.009396538E+00  4.634870329E+00  1.576990671E-07  0.00000E+00  9.000E+00
</event>
<event>
      5  10001  3.52971E+09  1.03108E+01 -1.00000E+00  1.94228E-01
      21    -1     0     0   513   511  0.000000000E+00  0.000000000E+00  5.593254040E+01  5.593254040E+01  0.000000000E+00  0.00000E+00  9.000E+00
      21    -1     0     0   512   514  0.000000000E+00  0.000000000E+00 -3.504116309E+01  3.504116309E+01  0.000000000E+00  0.00000E+00  9.000E+00
      21     1     1     2   512   517  1.648941713E+01 -8.131794977E-01 -1.855753661E+01  2.483836354E+01  3.371747881E-07  0.00000E+00  9.000E+00
      21     1     1     2   517   511 -1.290351745E+01  1.048034576E+01  4.920702119E+01  5.193909264E+01  9.536743164E-07  0.00000E+00  9.000E+00
      21     1     1     2   513   514 -3.585899676E+00 -9.667166264E+00 -9.758107271E+00  1.419624731E+01  0.000000000E+00  0.00000E+00  9.000E+00
</event>
<event>
      5  10001  3.52971E+09  3.96017E+00 -1.00000E+00  2.64490E-01
      21    -1     0     0   515   511  0.000000000E+00  0.000000000E+00  1.950908363E+02  1.950908363E+02  0.000000000E+00  0.00000E+00  9.000E+00
      21    -1     0     0   512   516  0.000000000E+00  0.000000000E+00 -2.361588755E+01  2.361588755E+01  0.000000000E+00  0.00000E+00  9.000E+00
      21     1     1     2   515   516  7.813324077E+00 -1.495332480E+01 -1.992406719E+01  2.610782276E+01  5.331201500E-07  0.00000E+00  9.000E+00
      21     1     1     2   512   514 -6.635015709E+00  1.117250965E+01  7.393767931E+01  7.507082541E+01  9.536743164E-07  0.00000E+00  9.000E+00
      21     1     1     2   514   511 -1.178308369E+00  3.780815157E+00  1.174613366E+02  1.175280757E+02  2.336015456E-06  0.00000E+00  9.000E+00
</event>
<event>
      5  10001  3.52971E+09  2.39723E+01 -1.00000E+00  1.60126E-01
      21    -1     0     0   513   512  0.000000000E+00  0.000000000E+00  4.077701494E+00  4.077701494E+00  0.000000000E+00  0.00000E+00  9.000E+00
      21    -1     0     0   517   511  0.000000000E+00  0.000000000E+00 -2.442425749E+02  2.442425749E+02  0.000000000E+00  0.00000E+00  9.000E+00
      21     1     1     2   513   511 -1.242921693E+01  8.580316787E+00 -2.152568217E+02  2.157860203E+02  3.814697266E-06  0.00000E+00  9.000E+00
      21     1     1     2   515   512  7.670143524E+00 -3.784100358E+00 -2.428717999E+01  2.574912870E+01  3.371747881E-07  0.00000E+00  9.000E+00
      21     1     1     2   517   515  4.759073409E+00 -4.796216429E+00 -6.208716997E-01  6.785127369E+00  5.178555509E-07  0.00000E+00  9.000E+00
</event>
<event>
      5  10001  3.52971E+09  3.68451E+00 -1.00000E+00  2.72162E-01
      21    -1     0     0   514   511  0.000000000E+00  0.000000000E+00  1.587999592E+01  1.587999592E+01  0.000000000E+00  0.00000E+00  9.000E+00
      21    -1     0     0   517   516  0.000000000E+00  0.000000000E+00 -4.312100950E+01  4.312100950E+01  0.000000000E+00  0.00000E+00  9.000E+00
      21     1     1     2   514   516  7.885203784E+00  6.303929222E+00  1.355043208E+01  1.689763806E+01  3.371747881E-07  0.00000E+00  9.000E+00
      21     1     1     2   517   512 -3.798365472E+00 -2.114608538E+00 -1.317936971E+01  1.387785774E+01  0.000000000E+00  0.00000E+00  9.000E+00
      21     1     1     2   512   511 -4.086838313E+00 -4.189320684E+00 -2.761207595E+01  2.822550962E+01  4.768371582E-07  0.00000E+00  9.000E+00
</event>
<event>
      5  10001  3.52971E+09  5.33858E+00 -1.00000E+00  2.33643E-01
      21    -1     0     0   513   516  0.000000000E+00  0.000000000E+00  7.357396646E+02  7.357396646E+02  0.000000000E+00  0.00000E+00  9.000E+00
      21    -1     0     0   514   513  0.000000000E+00  0.000000000E+00 -1.399599778E+00  1.399599778E+00  0.000000000E+00  0.00000E+00  9.000E+00
      21     1     1     2   511   515 -1.106604641E+01 -6.902990688E+00  6.257128385E+01  6.391614996E+01  2.611744678E-06  0.00000E+00  9.000E+00
      21     1     1     2   515   516  5.804535799E+00  5.999138059E+00  6.623034749E+02  6.623560788E+02  7.629394531E-06  0.00000E+00  9.000E+00
      21     1     1     2   514   511  5.261510610E+00  9.038526290E-01  9.465306079E+00  1.086703560E+01  5.057621821E-07  0.00000E+00  9.000E+00
</event>
<event>
      5  10001  3.52971E+09  3.47371E+00 -1.00000E+00  2.78785E-01
       5    -1     0     0   512     0  0.000000000E+00  0.000000000E+00  1.931845873E-01  1.931845873E-01  0.000000000E+00  0.00000E+00  9.000E+00
       2    -1     0     0   511     0  0.000000000E+00  0.000000000E+00 -5.317362939E+02  5.317362939E+02  0.000000000E+00  0.00000E+00  9.000E+00
       2     1     1     2   512     0  7.633544247E+00 -4.696981409E+00 -2.716575963E+02  2.718056128E+02  3.300000131E-01  0.00000E+00  9.000E+00
      21     1     1     2   511   513 -3.163255522E+00  2.047060043E+00 -1.205666325E+02  1.206254928E+02  2.697398305E-06  0.00000E+00  9.000E+00
       5     1     1     2   513     0 -4.470288725E+00  2.649921366E+00 -1.393188805E+02  1.394983728E+02  4.800000191E+00  0.00000E+00  9.000E+00
</event>
<event>
      5  10001  3.52971E+09  1.05024E+01 -1.00000E+00  1.93324E-01
      21    -1     0     0   514   513  0.000000000E+00  0.000000000E+00  3.733797079E+02  3.733797079E+02  0.000000000E+00  0.00000E+00  9.000E+00
      21    -1     0     0   515   514  0.000000000E+00  0.000000000E+00 -4.471158117E-01  4.471158117E-01  0.000000000E+00  0.00000E+00  9.000E+00
      21     1     1     2   511   513 -8.085136197E+00  8.495471353E+00  2.097265421E+02  2.100541952E+02  2.697398305E-06  0.00000E+00  9.000E+00
      21     1     1     2   515   512  2.178391351E+00 -2.644046539E+00  9.498991878E+01  9.505167563E+01  1.348699152E-06  0.00000E+00  9.000E+00
      21     1     1     2   512   511  5.906744846E+00 -5.851424814E+00  6.821613114E+01  6.872095281E+01  1.348699152E-06  0.00000E+00  9.000E+00
</event>
<event>
      5  10001  3.52971E+09  7.69245E+00 -1.00000E+00  2.09916E-01
       2    -1     0     0   515     0  0.000000000E+00  0.000000000E+00  6.170284612E+02  6.170284612E+02  0.000000000E+00  0.00000E+00  9.000E+00
      21    -1     0     0   512   513  0.000000000E+00  0.000000000E+00 -2.254383873E+00  2.254383873E+00  0.000000000E+00  0.00000E+00  9.000E+00
      21     1     1     2   515   514  2.959975646E+00 -1.055227246E+01  1.450920879E+01  1.818320790E+01  1.155776944E-06  0.00000E+00  9.000E+00
       2     1     1     2   512     0 -4.216318256E+00  1.814127150E+01  5.431215511E+02  5.434408995E+02  3.300000131E-01  0.00000E+00  9.000E+00
      21     1     1     2   514   513  1.256342610E+00 -7.588999034E+00  5.714331745E+01  5.765873769E+01  0.000000000E+00  0.00000E+00  9.000E+00
</event>
<event>
      5  10001  3.52971E+09  7.40834E+00 -1.00000E+00  2.12126E-01
      21    -1     0     0   515   514  0.000000000E+00  0.000000000E+00  6.317375232E-01  6.317375232E-01  0.000000000E+00  0.00000E+00  9.000E+00
       1    -1     0     0   514     0  0.000000000E+00  0.000000000E+00 -4.921459626E+02  4.921459626E+02  0.000000000E+00  0.00000E+00  9.000E+00
      21     1     1     2   512   511  9.953579401E-01 -8.703360833E+00 -5.321990532E+01  5.393605056E+01  2.336015456E-06  0.00000E+00  9.000E+00
       1     1     1     2   511     0 -8.260772271E+00  1.014785011E+01 -3.471994972E+02  3.474461382E+02  3.300000131E-01  0.00000E+00  9.000E+00
      21     1     1     2   515   512  7.265414331E+00 -1.444489277E+00 -9.109482258E+01  9.139551135E+01  0.000000000E+00  0.00000E+00  9.000E+00
</event>
<event>
      5  10001  3.52971E+09  7.07659E+00 -1.00000E+00  2.14882E-01
       1    -1     0     0   511     0  0.000000000E+00  0.000000000E+00  4.725105241E+01  4.725105241E+01  0.000000000E+00  0.00000E+00  9.000E+00
      21    -1     0     0   513   515  0.000000000E+00  0.000000000E+00 -8.041927815E+00  8.041927815E+00  0.000000000E+00  0.00000E+00  9.000E+00
      21     1     1     2   511   515  9.218982145E+00 -3.272619855E+00 -3.845488934E+00  1.051130143E+01  2.230201594E-07  0.00000E+00  9.000E+00
      21     1     1     2   513   514 -4.162962314E+00  5.378957576E+00  2.232656537E+01  2.333964355E+01  2.384185791E-07  0.00000E+00  9.000E+00
       1     1     1     2   514     0 -5.056019832E+00 -2.106337721E+00  2.072804816E+01  2.144203525E+01  3.300000131E-01  0.00000E+00  9.000E+00
</event>
<event>
      5  10001  3.52971E+09  2.59042E+00 -1.00000E+00  3.17645E-01
      -2    -1     0     0     0   512  0.000000000E+00  0.000000000E+00  5.121061995E+01  5.121061995E+01  0.000000000E+00  0.00000E+00  9.000E+00
       2    -1     0     0   513     0  0.000000000E+00  0.000000000E+00 -2.284297111E+01  2.284297111E+01  0.000000000E+00  0.00000E+00  9.000E+00
      -2     1     1     2     0   511  1.131545982E+01  1.198149027E+00  4.236439975E+01  4.386714554E+01  3.300000131E-01  0.00000E+00  9.000E+00
       2     1     1     2   511     0 -9.855674336E+00  9.414448717E-01  4.942719871E+00  1.107068267E+01  3.300000131E-01  0.00000E+00  9.000E+00
      21     1     1     2   513   512 -1.459785484E+00 -2.139593898E+00 -1.893947078E+01  1.911576284E+01  3.371747881E-07  0.00000E+00  9.000E+00
</event>
<event>
      5  10001  3.52971E+09  1.01366E+01 -1.00000E+00  1.95074E-01
      21    -1     0     0   514   511  0.000000000E+00  0.000000000E+00  1.891721320E+02  1.891721320E+02  0.000000000E+00  0.00000E+00  9.000E+00
      21    -1     0     0   513   512  0.000000000E+00  0.000000000E+00 -2.404610973E+00  2.404610973E+00  0.000000000E+00  0.00000E+00  9.000E+00
      21     1     1     2   514   512  9.998283699E+00 -1.225107987E+01  1.467538646E+02  1.476033584E+02  0.000000000E+00  0.00000E+00  9.000E+00
      21     1     1     2   513   515 -6.552343259E+00  7.160290837E+00  3.405862383E+01  3.541458491E+01  9.536743164E-07  0.00000E+00  9.000E+00
      21     1     1     2   515   511 -3.445940440E+00  5.090789032E+00  5.955032591E+00  8.558799661E+00  3.674277069E-07  0.00000E+00  9.000E+00
</event>
<event>
      5  10001  3.52971E+09  4.46056E+00 -1.00000E+00  2.52787E-01
       3    -1     0     0   512     0  0.000000000E+00  0.000000000E+00  6.495048162E+01  6.495048162E+01  0.000000000E+00  0.00000E+00  9.000E+00
      21    -1     0     0   515   516  0.000000000E+00  0.000000000E+00 -3.530796541E+00  3.530796541E+00  0.000000000E+00  0.00000E+00  9.000E+00
      21     1     1     2   512   516  7.013985999E+00 -7.114219028E+00  5.528883118E+00  1.141825996E+01  1.032382731E-07  0.00000E+00  9.000E+00
       3     1     1     2   513     0 -6.078562697E+00  2.343161413E+00  3.588120086E+01  3.647122023E+01  5.000000000E-01  0.00000E+00  9.000E+00
      21     1     1     2   515   513 -9.354233021E-01  4.771057614E+00  2.000960110E+01  2.059179797E+01  3.371747881E-07  0.00000E+00  9.000E+00
</event>
<event>
      5  10001  3.52971E+09  2.93520E+00 -1.00000E+00  2.99765E-01
       3    -1     0     0   514     0  0.000000000E+00  0.000000000E+00  1.107252510E+01  1.107252510E+01  0.000000000E+00  0.00000E+00  9.000E+00
      21    -1     0     0   511   513  0.000000000E+00  0.000000000E+00 -1.531182484E+02  1.531182484E+02  0.000000000E+00  0.00000E+00  9.000E+00
      21     1     1     2   512   513 -3.013437404E+00 -5.827345319E+00 -1.207691903E+02  1.209472450E+02  1.348699152E-06  0.00000E+00  9.000E+00
       3     1     1     2   511     0  2.882557140E+00  9.981111049E+00  8.343110038E+00  1.333376161E+01  5.000000000E-01  0.00000E+00  9.000E+00
      21     1     1     2   514   512  1.308802636E-01 -4.153765730E+00 -2.961964307E+01  2.990976689E+01  0.000000000E+00  0.00000E+00  9.000E+00
</event>
<event>
      5  10001  3.52971E+09  6.97525E+00 -1.00000E+00  2.15766E-01
      21    -1     0     0   515   511  0.000000000E+00  0.000000000E+00  2.937547617E+01  2.937547617E+01  0.000000000E+00  0.00000E+00  9.000E+00
      21    -1     0     0   516   512  0.000000000E+00  0.000000000E+00 -2.653192232E+02  2.653192232E+02  0.000000000E+00  0.00000E+00  9.000E+00
      21     1     1     2   515   512 -7.908763565E+00  8.928318223E+00 -2.637506646E+02  2.640202199E+02  0.000000000E+00  0.00000E+00  9.000E+00
      -3     1     1     2     0   511  3.579345670E+00 -5.070153354E+00  8.685075798E+00  1.068637975E+01  5.000000000E-01  0.00000E+00  9.000E+00
       3     1     1     2   516     0  4.329417895E+00 -3.858164869E+00  1.912184184E+01  1.998809973E+01  5.000000000E-01  0.00000E+00  9.000E+00
</event>
<event>
      5  10001  3.52971E+09  7.64224E+00 -1.00000E+00  2.10297E-01
       2    -1     0     0   512     0  0.000000000E+00  0.000000000E+00  4.028455661E+01  4.028455661E+01  0.000000000E+00  0.00000E+00  9.000E+00
      21    -1     0     0   513   514  0.000000000E+00  0.000000000E+00 -1.409016894E+01  1.409016894E+01  0.000000000E+00  0.00000E+00  9.000E+00
      21     1     1     2   512   514  1.116383903E+01 -7.139952085E+00 -7.891162371E+00  1.542338034E+01  2.064765462E-07  0.00000E+00  9.000E+00
       2     1     1     2   511     0 -1.087537786E+01  1.008168411E+00  2.896470893E+01  3.095728526E+01  3.300000131E-01  0.00000E+00  9.000E+00
      21     1     1     2   513   511 -2.884611693E-01  6.131783674E+00  5.120841103E+00  7.994059949E+00  1.032382731E-07  0.00000E+00  9.000E+00
</event>
<event>
      5  10001  3.52971E+09  4.05483E+00 -1.00000E+00  2.62076E-01
      21    -1     0     0   515   511  0.000000000E+00  0.000000000E+00  1.058984629E+02  1.058984629E+02  0.000000000E+00  0.00000E+00  9.000E+00
      21    -1     0     0   512   516  0.000000000E+00  0.000000000E+00 -9.908071798E+01  9.908071798E+01  0.000000000E+00  0.00000E+00  9.000E+00
      21     1     1     2   515   516  1.013306162E+01  2.949420092E+00 -1.380552584E+01  1.737730015E+01  7.152557373E-07  0.00000E+00  9.000E+00
      21     1     1     2   513   511 -7.730561452E+00 -6.215861680E+00  1.038268119E+02  1.042995944E+02  1.348699152E-06  0.00000E+00  9.000E+00
      21     1     1     2   512   513 -2.402500169E+00  3.266441588E+00 -8.320354116E+01  8.330228634E+01  0.000000000E+00  0.00000E+00  9.000E+00
</event>
<event>
      5  10001  3.52971E+09  1.76395E+01 -1.00000E+00  1.70995E-01
      21    -1     0     0   514   513  0.000000000E+00  0.000000000E+00  2.280465848E+00  2.280465848E+00  0.000000000E+00  0.00000E+00  9.000E+00
      21    -1     0     0   512   517  0.000000000E+00  0.000000000E+00 -8.481568481E+01  8.481568481E+01  0.000000000E+00  0.00000E+00  9.000E+00
      21     1     1     2   514   517 -6.440641398E+00 -6.568014986E-01 -2.472650418E+01  2.555999332E+01  0.000000000E+00  0.00000E+00  9.000E+00
      21     1     1     2   512   511  5.037246110E+00  3.790744739E+00 -3.682209832E+00  7.300839903E+00  1.332800375E-07  0.00000E+00  9.000E+00
      21     1     1     2   511   513  1.403395288E+00 -3.133943240E+00 -5.412650496E+01  5.423531744E+01  0.000000000E+00  0.00000E+00  9.000E+00
</event>
<event>
      5  10001  3.52971E+09  7.16378E+00 -1.00000E+00  2.14138E-01
      21    -1     0     0   515   512  0.000000000E+00  0.000000000E+00  6.138992846E+00  6.138992846E+00  0.000000000E+00  0.00000E+00  9.000E+00
      21    -1     0     0   516   513  0.000000000E+00  0.000000000E+00 -2.974838451E+01  2.974838451E+01  0.000000000E+00  0.00000E+00  9.000E+00
      21     1     1     2   515   513 -6.065094413E+00  9.070546325E+00 -2.378693098E+00  1.116773754E+01  2.308477966E-07  0.00000E+00  9.000E+00
       3     1     1     2   516     0  4.879137932E+00 -3.879494653E+00 -6.373108635E+00  8.928772558E+00  5.000000000E-01  0.00000E+00  9.000E+00
      -3     1     1     2     0   512  1.185956481E+00 -5.191051672E+00 -1.485758993E+01  1.579086726E+01  5.000000000E-01  0.00000E+00  9.000E+00
</event>
<event>
      5  10001  3.52971E+09  2.15881E+00 -1.00000E+00  3.48249E-01
      21    -1     0     0   515   513  0.000000000E+00  0.000000000E+00  5.102490208E+01  5.102490208E+01  0.000000000E+00  0.00000E+00  9.000E+00
      21    -1     0     0   512   511  0.000000000E+00  0.000000000E+00 -5.217391676E+01  5.217391676E+01  0.000000000E+00  0.00000E+00  9.000E+00
      21     1     1     2   512   514 -1.208647509E-01 -2.250345578E+01 -2.597930019E+01  3.437068763E+01  3.371747881E-07  0.00000E+00  9.000E+00
      21     1     1     2   514   513 -1.653144517E+00  2.373364091E+01 -1.552928464E+01  2.841086551E+01  5.591411304E-07  0.00000E+00  9.000E+00
      21     1     1     2   515   511  1.774009268E+00 -1.230185136E+00  4.035957014E+01  4.041726570E+01  8.259061849E-07  0.00000E+00  9.000E+00
</event>
<event>
      5  10001  3.52971E+09  3.39619E+00 -1.00000E+00  2.81414E-01
       4    -1     0     0   511     0  0.000000000E+00  0.000000000E+00  3.927385748E+01  3.927385748E+01  0.000000000E+00  0.00000E+00  9.000E+00
      -1    -1     0     0     0   511  0.000000000E+00  0.000000000E+00 -3.693677053E+00  3.693677053E+00  0.000000000E+00  0.00000E+00  9.000E+00
      -1     1     1     2     0   512  3.041280949E+00 -9.191604086E+00  6.374523920E+00  1.159648355E+01  3.300000131E-01  0.00000E+00  9.000E+00
       4     1     1     2   513     0 -3.341552603E+00  6.132245504E+00  2.585658108E+01  2.682504788E+01  1.500000000E+00  0.00000E+00  9.000E+00
      21     1     1     2   512   513  3.002716540E-01  3.059358582E+00  3.349075431E+00  4.546003107E+00  7.300048300E-08  0.00000E+00  9.000E+00
</event>
<event>
      5  10001  3.52971E+09  1.04105E+01 -1.00000E+00  1.93754E-01
      21    -1     0     0   514   513  0.000000000E+00  0.000000000E+00  5.865848579E-01  5.865848579E-01  0.000000000E+00  0.00000E+00  9.000E+00
       1    -1     0     0   512     0  0.000000000E+00  0.000000000E+00 -3.018378833E+02  3.018378833E+02  0.000000000E+00  0.00000E+00  9.000E+00
      21     1     1     2   512   511 -3.406199394E+00  8.169839328E+00 -6.126088076E+01  6.189704339E+01  6.743495762E-07  0.00000E+00  9.000E+00
       1     1     1     2   514     0 -1.415446202E+00 -1.007153832E+01 -1.221700205E+02  1.225930756E+02  3.300000131E-01  0.00000E+00  9.000E+00
      21     1     1     2   511   513  4.821645596E+00  1.901698991E+00 -1.178203971E+02  1.179343491E+02  1.907348633E-06  0.00000E+00  9.000E+00
</event>
<event>
      5  10001  3.52971E+09  8.12141E+00 -1.00000E+00  2.06814E-01
      21    -1     0     0   515   512  0.000000000E+00  0.000000000E+00  1.496657397E+02  1.496657397E+02  0.000000000E+00  0.00000E+00  9.000E+00
      21    -1     0     0   511   513  0.000000000E+00  0.000000000E+00 -2.304558930E+01  2.304558930E+01  0.000000000E+00  0.00000E+00  9.000E+00
      21     1     1     2   515   513 -1.403045362E+01  4.602604421E+00 -1.991474148E+01  2.479182374E+01  8.596304120E-07  0.00000E+00  9.000E+00
      21     1     1     2   514   512  5.721083440E+00 -6.787708049E+00  1.112500966E+02  1.116037086E+02  0.000000000E+00  0.00000E+00  9.000E+00
      21     1     1     2   511   514  8.309370176E+00  2.185103628E+00  3.528479535E+01  3.631579674E+01  8.259061849E-07  0.00000E+00  9.000E+00
</event>
<event>
      5  10001  3.52971E+09  5.03891E+00 -1.00000E+00  2.37923E-01
      21    -1     0     0   511   512  0.000000000E+00  0.000000000E+00  5.073848709E+00  5.073848709E+00  0.000000000E+00  0.00000E+00  9.000E+00
      21    -1     0     0   513   516  0.000000000E+00  0.000000000E+00 -5.718243794E+01  5.718243794E+01  0.000000000E+00  0.00000E+00  9.000E+00
      -5     1     1     2     0   512 -8.731796155E+00  1.535294742E+00 -8.360680650E+00  1.309741871E+01  4.800000191E+00  0.00000E+00  9.000E+00
      21     1     1     2   511   516  1.264508689E+01  1.060495567E+00 -1.504936657E+01  1.968517989E+01  2.384185791E-07  0.00000E+00  9.000E+00
       5     1     1     2   513     0 -3.913290734E+00 -2.595790309E+00 -2.869854201E+01  2.947368805E+01  4.800000191E+00  0.00000E+00  9.000E+00
</event>
<event>
      5  10001  3.52971E+09  2.16799E+01 -1.00000E+00  1.63527E-01
      21    -1     0     0   514   513  0.000000000E+00  0.000000000E+00  2.599758748E+02  2.599758748E+02  0.000000000E+00  0.00000E+00  9.000E+00
      21    -1     0     0   512   515  0.000000000E+00  0.000000000E+00 -8.057023666E-01  8.057023666E-01  0.000000000E+00  0.00000E+00  9.000E+00
      21     1     1     2   514   515 -7.678580952E+00 -6.652049317E+00  9.230022573E+01  9.285764392E+01  0.000000000E+00  0.00000E+00  9.000E+00
      21     1     1     2   512   511  3.405476428E+00 -4.213064859E+00  9.098200989E+01  9.114314735E+01  1.907348633E-06  0.00000E+00  9.000E+00
      21     1     1     2   511   513  4.273104523E+00  1.086511418E+01  7.588793683E+01  7.678078591E+01  9.536743164E-07  0.00000E+00  9.000E+00
</event>
<event>
      5  10001  3.52971E+09  5.19685E+01 -1.00000E+00  1.38123E-01
      21    -1     0     0   516   511  0.000000000E+00  0.000000000E+00  6.262806463E+00  6.262806463E+00  0.000000000E+00  0.00000E+00  9.000E+00
      21    -1     0     0   513   516  0.000000000E+00  0.000000000E+00 -1.594404265E+02  1.594404265E+02  0.000000000E+00  0.00000E+00  9.000E+00
      21     1     1     2   512   511 -5.356195259E+00  4.959880041E+00 -2.960381068E-01  7.305948004E+00  2.091809383E-07  0.00000E+00  9.000E+00
      21     1     1     2   514   512  3.084920836E+00 -1.408506422E+01 -1.743592618E+01  2.262558932E+01  4.129530925E-07  0.00000E+00  9.000E+00
      21     1     1     2   513   514  2.271274424E+00  9.125184176E+00 -1.354456558E+02  1.357716957E+02  1.907348633E-06  0.00000E+00  9.000E+00
</event>
<event>
      5  10001  3.52971E+09  9.12198E+00 -1.00000E+00  2.00482E-01
      21    -1     0     0   515   512  0.000000000E+00  0.000000000E+00  6.264628321E+01  6.264628321E+01  0.000000000E+00  0.00000E+00  9.000E+00
      21    -1     0     0   513   515  0.000000000E+00  0.000000000E+00 -2.533823919E+02  2.533823919E+02  0.000000000E+00  0.00000E+00  9.000E+00
      21     1     1     2   513   517 -7.524808447E+00 -1.479455594E+01 -2.516285330E+02  2.521753759E+02  6.031565972E-06  0.00000E+00  9.000E+00
      21     1     1     2   517   511  8.266274536E+00  5.702758515E+00  3.429203939E+01  3.573229233E+01  6.743495762E-07  0.00000E+00  9.000E+00
      21     1     1     2   511   512 -7.414660891E-01  9.091797426E+00  2.660038486E+01  2.812100686E+01  3.371747881E-07  0.00000E+00  9.000E+00
</event>
<event>
      5  10001  3.52971E+09  9.04032E+00 -1.00000E+00  2.00958E-01
      -3    -1     0     0     0   512  0.000000000E+00  0.000000000E+00  7.592738895E+02  7.592738895E+02  0.000000000E+00  0.00000E+00  9.000E+00
      21    -1     0     0   511   514  0.000000000E+00  0.000000000E+00 -1.151674018E+00  1.151674018E+00  0.000000000E+00  0.00000E+00  9.000E+00
      -3     1     1     2     0   514 -9.521096209E+00  4.083050625E+00  7.226592992E+02  7.227337237E+02  5.000000000E-01  0.00000E+00  9.000E+00
      21     1     1     2   513   512  6.629374044E+00  6.005279859E-01  2.497987483E+01  2.585156437E+01  1.118282261E-06  0.00000E+00  9.000E+00
      21     1     1     2   511   513  2.891722165E+00 -4.683578610E+00  1.048304142E+01  1.184027546E+01  5.057621821E-07  0.00000E+00  9.000E+00
</event>
<event>
      5  10001  3.52971E+09  6.01104E+00 -1.00000E+00  2.25342E-01
      21    -1     0     0   514   515  0.000000000E+00  0.000000000E+00  1.322136915E+02  1.322136915E+02  0.000000000E+00  0.00000E+00  9.000E+00
      21    -1     0     0   512   513  0.000000000E+00  0.000000000E+00 -3.053443102E+00  3.053443102E+00  0.000000000E+00  0.00000E+00  9.000E+00
      -5     1     1     2     0   513 -1.034550969E+01  3.056786646E+00  1.502140055E+01  1.910643849E+01  4.800000191E+00  0.00000E+00  9.000E+00
      21     1     1     2   512   515  9.660118023E+00  2.677192073E+00  2.884975344E+01  3.054166844E+01  6.743495762E-07  0.00000E+00  9.000E+00
       5     1     1     2   514     0  6.853916629E-01 -5.733978719E+00  8.528909438E+01  8.561902765E+01  4.800000191E+00  0.00000E+00  9.000E+00
</event>
<event>
      5  10001  3.52971E+09  6.96462E+00 -1.00000E+00  2.15859E-01
      21    -1     0     0   511   516  0.000000000E+00  0.000000000E+00  5.523725021E+01  5.523725021E+01  0.000000000E+00  0.00000E+00  9.000E+00
      -5    -1     0     0     0   511  0.000000000E+00  0.000000000E+00 -3.736760311E+01  3.736760311E+01  0.000000000E+00  0.00000E+00  9.000E+00
      -5     1     1     2     0   512  6.081789267E+00 -9.396971351E+00 -2.618671535E+01  2.888036173E+01  4.800000191E+00  0.00000E+00  9.000E+00
      21     1     1     2   514   516 -4.663808155E+00  1.780795821E+01  5.003119659E+01  5.331036592E+01  0.000000000E+00  0.00000E+00  9.000E+00
      21     1     1     2   512   514 -1.417981112E+00 -8.410986863E+00 -5.974834139E+00  1.041412567E+01  1.685873940E-07  0.00000E+00  9.000E+00
</event>
<event>
      5  10001  3.52971E+09  3.33218E+00 -1.00000E+00  2.83672E-01
      21    -1     0     0   513   514  0.000000000E+00  0.000000000E+00  2.938496118E+02  2.938496118E+02  0.000000000E+00  0.00000E+00  9.000E+00
      -2    -1     0     0     0   515  0.000000000E+00  0.000000000E+00 -2.830544430E+01  2.830544430E+01  0.000000000E+00  0.00000E+00  9.000E+00
      21     1     1     2   513   515  7.272935428E+00 -4.462196616E+00  2.665206280E+02  2.666571806E+02  6.607249480E-06  0.00000E+00  9.000E+00
      21     1     1     2   512   514 -9.305916757E+00  7.102333805E+00  2.589520405E+01  2.841838885E+01  1.545128989E-06  0.00000E+00  9.000E+00
      -2     1     1     2     0   512  2.032981329E+00 -2.640137189E+00 -2.687166461E+01  2.707948664E+01  3.300000131E-01  0.00000E+00  9.000E+00
</event>
<event>
      5  10001  3.52971E+09  1.52317E+01 -1.00000E+00  1.76755E-01
      21    -1     0     0   511   516  0.000000000E+00  0.000000000E+00  4.835267867E+01  4.835267867E+01  0.000000000E+00  0.00000E+00  9.000E+00
      -1    -1     0     0     0   511  0.000000000E+00  0.000000000E+00 -1.112016089E+02  1.112016089E+02  0.000000000E+00  0.00000E+00  9.000E+00
      -1     1     1     2     0   513 -1.626443219E+01 -4.190897779E-01 -1.086636884E+02  1.098754453E+02  3.300000131E-01  0.00000E+00  9.000E+00
      21     1     1     2   514   516  9.342666375E+00  1.619468842E+00  1.282601878E+01  1.595038721E+01  1.685873940E-07  0.00000E+00  9.000E+00
      21     1     1     2   513   514  6.921765813E+00 -1.200379065E+00  3.298873943E+01  3.372845507E+01  4.768371582E-07  0.00000E+00  9.000E+00
</event>
<event>
      5  10001  3.52971E+09  2.13240E+01 -1.00000E+00  1.64101E-01
      21    -1     0     0   515   514  0.000000000E+00  0.000000000E+00  1.670845680E+01  1.670845680E+01  0.000000000E+00  0.00000E+00  9.000E+00
      -4    -1     0     0     0   512  0.000000000E+00  0.000000000E+00 -1.918104112E+01  1.918104112E+01  0.000000000E+00  0.00000E+00  9.000E+00
      21     1     1     2   511   514  4.968384510E+00 -9.798977916E-01  1.419782572E+01  1.507392780E+01  3.769728732E-07  0.00000E+00  9.000E+00
      21     1     1     2   515   512 -5.673097428E+00 -3.674414305E+00 -5.923416787E+00  8.987336722E+00  0.000000000E+00  0.00000E+00  9.000E+00
      -4     1     1     2     0   511  7.047129183E-01  4.654312096E+00 -1.074699325E+01  1.182823339E+01  1.500000000E+00  0.00000E+00  9.000E+00
</event>
<event>
      5  10001  3.52971E+09  1.21114E+01 -1.00000E+00  1.86603E-01
      21    -1     0     0   513   516  0.000000000E+00  0.000000000E+00  1.482672822E+02  1.482672822E+02  0.000000000E+00  0.00000E+00  9.000E+00
      21    -1     0     0   512   511  0.000000000E+00  0.000000000E+00 -1.187509221E+02  1.187509221E+02  0.000000000E+00  0.00000E+00  9.000E+00
      21     1     1     2   513   511 -3.851672255E+00  6.846921396E+00  9.794371279E+01  9.825826472E+01  1.907348633E-06  0.00000E+00  9.000E+00
      21     1     1     2   514   516  1.575436126E+01 -9.085584066E+00  4.819406314E+01  5.151131388E+01  0.000000000E+00  0.00000E+00  9.000E+00
      21     1     1     2   512   514 -1.190268900E+01  2.238662670E+00 -1.166214158E+02  1.172486258E+02  2.336015456E-06  0.00000E+00  9.000E+00
</event>
<event>
      5  10001  3.52971E+09  7.34054E+00 -1.00000E+00  2.12673E-01
       1    -1     0     0   511     0  0.000000000E+00  0.000000000E+00  3.191740147E+01  3.191740147E+01  0.000000000E+00  0.00000E+00  9.000E+00
      21    -1     0     0   513   511  0.000000000E+00  0.000000000E+00 -2.364891222E+02  2.364891222E+02  0.000000000E+00  0.00000E+00  9.000E+00
      21     1     1     2   514   515  1.111752608E+01  5.829816811E+00 -6.840659514E+01  6.954889222E+01  9.536743164E-07  0.00000E+00  9.000E+00
       1     1     1     2   515     0 -1.746186147E+01 -2.137584869E+00  2.878903020E+01  3.374022874E+01  3.300000131E-01  0.00000E+00  9.000E+00
      21     1     1     2   513   514  6.344335387E+00 -3.692231942E+00 -1.649541558E+02  1.651174028E+02  0.000000000E+00  0.00000E+00  9.000E+00
</event>
<event>
      5  10001  3.52971E+09  7.34880E+00 -1.00000E+00  2.12606E-01
      21    -1     0     0   512   513  0.000000000E+00  0.000000000E+00  2.660513770E+02  2.660513770E+02  0.000000000E+00  0.00000E+00  9.000E+00
       1    -1     0     0   515     0  0.000000000E+00  0.000000000E+00 -1.514287826E+02  1.514287826E+02  0.000000000E+00  0.00000E+00  9.000E+00
      21     1     1     2   515   513  9.201487842E+00 -7.679004070E+00  2.655577082E+02  2.658280099E+02  0.000000000E+00  0.00000E+00  9.000E+00
       1     1     1     2   511     0 -5.797136120E+00  8.611787086E+00 -8.666370653E+01  8.728388507E+01  3.300000131E-01  0.00000E+00  9.000E+00
      21     1     1     2   512   511 -3.404351721E+00 -9.327830167E-01 -6.427140731E+01  6.436826464E+01  1.348699152E-06  0.00000E+00  9.000E+00
</event>
<event>
      5  10001  3.52971E+09  9.43988E+00 -1.00000E+00  1.98691E-01
      21    -1     0     0   514   511  0.000000000E+00  0.000000000E+00  9.047642714E+00  9.047642714E+00  0.000000000E+00  0.00000E+00  9.000E+00
      21    -1     0     0   513   515  0.000000000E+00  0.000000000E+00 -9.478036301E+01  9.478036301E+01  0.000000000E+00  0.00000E+00  9.000E+00
      21     1     1     2   514   516 -1.183824924E+01  1.094777182E+00 -1.626749952E-01  1.188987574E+01  4.127556088E-07  0.00000E+00  9.000E+00
      21     1     1     2   513   511  2.103986783E+01  1.012732147E+00 -3.806783431E+01  4.350703016E+01  4.768371582E-07  0.00000E+00  9.000E+00
      21     1     1     2   516   515 -9.201618590E+00 -2.107509329E+00 -4.750221100E+01  4.843109982E+01  9.536743164E-07  0.00000E+00  9.000E+00
</event>
<event>
      5  10001  3.52971E+09  3.60699E+00 -1.00000E+00  2.74514E-01
       2    -1     0     0   511     0  0.000000000E+00  0.000000000E+00  3.039687579E+02  3.039687579E+02  0.000000000E+00  0.00000E+00  9.000E+00
       2    -1     0     0   512     0  0.000000000E+00  0.000000000E+00 -2.332338962E+00  2.332338962E+00  0.000000000E+00  0.00000E+00  9.000E+00
       2     1     1     2   512     0 -1.108121554E+01 -1.327588941E+00  2.594575514E+02  2.596976814E+02  3.300000131E-01  0.00000E+00  9.000E+00
       2     1     1     2   514     0  1.145129951E+01  4.915238862E+00  1.653758842E+01  2.070972149E+01  3.300000131E-01  0.00000E+00  9.000E+00
      21     1     1     2   511   514 -3.700839707E-01 -3.587649921E+00  2.564127908E+01  2.589369396E+01  4.768371582E-07  0.00000E+00  9.000E+00
</event>
<event>
      5  10001  3.52971E+09  6.76811E+00 -1.00000E+00  2.17637E-01
      21    -1     0     0   513   516  0.000000000E+00  0.000000000E+00  1.506582116E+01  1.506582116E+01  0.000000000E+00  0.00000E+00  9.000E+00
      21    -1     0     0   512   515  0.000000000E+00  0.000000000E+00 -7.944913844E+01  7.944913844E+01  0.000000000E+00  0.00000E+00  9.000E+00
      21     1     1     2   513   515 -1.138809909E+01  3.397786015E+00  9.581891799E+00  1.526585736E+01  1.685873940E-07  0.00000E+00  9.000E+00
      21     1     1     2   512   514  8.180371210E+00 -9.357461716E+00 -7.060894579E+01  7.169451715E+01  9.536743164E-07  0.00000E+00  9.000E+00
      21     1     1     2   514   516  3.207727877E+00  5.959675701E+00 -3.356263294E+00  7.554585091E+00  0.000000000E+00  0.00000E+00  9.000E+00
</event>
<event>
      5  10001  3.52971E+09  5.96596E+00 -1.00000E+00  2.25850E-01
      21    -1     0     0   513   514  0.000000000E+00  0.000000000E+00  1.237731760E+01  1.237731760E+01  0.000000000E+00  0.00000E+00  9.000E+00
       2    -1     0     0   514     0  0.000000000E+00  0.000000000E+00 -4.875188617E+02  4.875188617E+02  0.000000000E+00  0.00000E+00  9.000E+00
      21     1     1     2   512   511  1.658575808E+00 -1.453408898E+01 -1.566210425E+01  2.143110183E+01  1.554298974E-06  0.00000E+00  9.000E+00
       2     1     1     2   511     0 -4.869634895E+00  9.506020119E+00 -4.679678536E+02  4.680898404E+02  3.300000131E-01  0.00000E+00  9.000E+00
      21     1     1     2   513   512  3.211059087E+00  5.028068861E+00  8.488413745E+00  1.037523710E+01  4.768371582E-07  0.00000E+00  9.000E+00
</event>
<event>
      5  10001  3.52971E+09  1.67560E+01 -1.00000E+00  1.72967E-01
      21    -1     0     0   511   512  0.000000000E+00  0.000000000E+00  2.030070781E+02  2.030070781E+02  0.000000000E+00  0.00000E+00  9.000E+00
       4    -1     0     0   512     0  0.000000000E+00  0.000000000E+00 -1.462383573E+00  1.462383573E+00  0.000000000E+00  0.00000E+00  9.000E+00
      21     1     1     2   511   515 -1.192665596E+01 -4.798403489E+00  1.513194322E+02  1.518645461E+02  1.907348633E-06  0.00000E+00  9.000E+00
      21     1     1     2   515   514  3.362565585E+00  1.493393172E+00  3.132003236E+01  3.153540070E+01  3.371747881E-07  0.00000E+00  9.000E+00
       4     1     1     2   514     0  8.564090376E+00  3.305010318E+00  1.890522998E+01  2.106951489E+01  1.500000000E+00  0.00000E+00  9.000E+00
</event>
<event>
      5  10001  3.52971E+09  1.10175E+01 -1.00000E+00  1.91010E-01
      21    -1     0     0   513   514  0.000000000E+00  0.000000000E+00  3.908521650E-01  3.908521650E-01  0.000000000E+00  0.00000E+00  9.000E+00
      21    -1     0     0   512   513  0.000000000E+00  0.000000000E+00 -4.903984541E+02  4.903984541E+02  0.000000000E+00  0.00000E+00  9.000E+00
      21     1     1     2   516   514  4.428347074E+00 -7.123541701E+00 -9.459002066E+01  9.496118740E+01  1.907348633E-06  0.00000E+00  9.000E+00
      21     1     1     2   512   511 -5.011245260E+00  6.021259377E+00 -3.932459241E+02  3.933239440E+02  0.000000000E+00  0.00000E+00  9.000E+00
      21     1     1     2   511   516  5.828981860E-01  1.102282324E+00 -2.171657197E+00  2.504174834E+00  8.429369702E-08  0.00000E+00  9.000E+00
</event>
<event>
      5  10001  3.52971E+09  1.13176E+01 -1.00000E+00  1.89737E-01
      21    -1     0     0   513   511  0.000000000E+00  0.000000000E+00  5.993558057E+01  5.993558057E+01  0.000000000E+00  0.00000E+00  9.000E+00
      21    -1     0     0   517   515  0.000000000E+00  0.000000000E+00 -3.414560530E+02  3.414560530E+02  0.000000000E+00  0.00000E+00  9.000E+00
      21     1     1     2   512   511 -1.161387763E+01  8.889590297E+00  1.504315585E+01  2.098102731E+01  1.877309769E-06  0.00000E+00  9.000E+00
      21     1     1     2   517   512  6.907435756E+00 -1.918220073E+01 -3.374099422E+02  3.380253520E+02  3.814697266E-06  0.00000E+00  9.000E+00
      21     1     1     2   513   515  4.706441870E+00  1.029261043E+01  4.084631388E+01  4.238525430E+01  1.168007728E-06  0.00000E+00  9.000E+00
</event>
<event>
      5  10001  3.52971E+09  1.71777E+01 -1.00000E+00  1.72008E-01
      21    -1     0     0   514   515  0.000000000E+00  0.000000000E+00  2.352909311E+02  2.352909311E+02  0.000000000E+00  0.00000E+00  9.000E+00
      21    -1     0     0   511   512  0.000000000E+00  0.000000000E+00 -2.681244406E+01  2.681244406E+01  0.000000000E+00  0.00000E+00  9.000E+00
      21     1     1     2   514   516  7.329875761E+00  8.787674012E+00  1.134311335E+02  1.140068961E+02  2.336015456E-06  0.00000E+00  9.000E+00
      21     1     1     2   511   515 -1.859970825E+01  4.176271296E+00  1.179428577E+02  1.194734618E+02  2.336015456E-06  0.00000E+00  9.000E+00
      21     1     1     2   516   512  1.126983249E+01 -1.296394531E+01 -2.289550425E+01  2.862301726E+01  8.259061849E-07  0.00000E+00  9.000E+00
</event>
<event>
      5  10001  3.52971E+09  1.30360E+01 -1.00000E+00  1.83321E-01
      21    -1     0     0   512   511  0.000000000E+00  0.000000000E+00  2.185574953E+02  2.185574953E+02  0.000000000E+00  0.00000E+00  9.000E+00
      21    -1     0     0   513   512  0.000000000E+00  0.000000000E+00 -1.268182972E+00  1.268182972E+00  0.000000000E+00  0.00000E+00  9.000E+00
      21     1     1     2   514   511 -8.985094029E+00 -8.948832480E+00  1.672697526E+02  1.677497650E+02  2.697398305E-06  0.00000E+00  9.000E+00
       4     1     1     2   513     0  3.799758936E+00  8.011206848E+00  3.232801836E+01  3.355545223E+01  1.500000000E+00  0.00000E+00  9.000E+00
      -4     1     1     2     0   514  5.185335093E+00  9.376256320E-01  1.769154135E+01  1.852046104E+01  1.500000000E+00  0.00000E+00  9.000E+00
</event>
<event>
      5  10001  3.52971E+09  1.05517E+01 -1.00000E+00  1.93095E-01
      21    -1     0     0   515   513  0.000000000E+00  0.000000000E+00  3.300697363E+00  3.300697363E+00  0.000000000E+00  0.00000E+00  9.000E+00
      21    -1     0     0   511   514  0.000000000E+00  0.000000000E+00 -7.756369528E+01  7.756369528E+01  0.000000000E+00  0.00000E+00  9.000E+00
      21     1     1     2   515   514  1.400884063E+01  6.086718427E-01 -1.879169032E+01  2.344665696E+01  2.384185791E-07  0.00000E+00  9.000E+00
      21     1     1     2   512   513 -1.214500447E+00 -5.894585399E-01 -1.276200890E+01  1.283321254E+01  1.685873940E-07  0.00000E+00  9.000E+00
      21     1     1     2   511   512 -1.279434019E+01 -1.921330274E-02 -4.270929868E+01  4.458452314E+01  1.168007728E-06  0.00000E+00  9.000E+00
</event>
<event>
      5  10001  3.52971E+09  4.06583E+00 -1.00000E+00  2.61803E-01
      21    -1     0     0   516   512  0.000000000E+00  0.000000000E+00  3.081240867E+01  3.081240867E+01  0.000000000E+00  0.00000E+00  9.000E+00
      21    -1     0     0   513   517  0.000000000E+00  0.000000000E+00 -3.850375958E+01  3.850375958E+01  0.000000000E+00  0.00000E+00  9.000E+00
      21     1     1     2   516   517 -1.533021196E+00  1.046421453E+01  2.829343446E+01  3.020543616E+01  3.371747881E-07  0.00000E+00  9.000E+00
      21     1     1     2   511   512 -2.501731286E+00 -1.096596642E+01 -2.586977490E+01  2.820915334E+01  0.000000000E+00  0.00000E+00  9.000E+00
      21     1     1     2   513   511  4.034752482E+00  5.017518902E-01 -1.011501047E+01  1.090157875E+01  2.064765462E-07  0.00000E+00  9.000E+00
</event>
<event>
      5  10001  3.52971E+09  4.50810E+00 -1.00000E+00  2.51797E-01
      21    -1     0     0   514   511  0.000000000E+00  0.000000000E+00  3.731383955E+01  3.731383955E+01  0.000000000E+00  0.00000E+00  9.000E+00
      21    -1     0     0   513   512  0.000000000E+00  0.000000000E+00 -1.460287971E+01  1.460287971E+01  0.000000000E+00  0.00000E+00  9.000E+00
      21     1     1     2   513   515 -6.505152082E+00 -8.293054769E+00  1.232172570E+01  1.621470584E+01  1.685873940E-07  0.00000E+00  9.000E+00
      21     1     1     2   515   511  2.412478755E+00  1.018328609E+01  2.139029025E+01  2.381310325E+01  0.000000000E+00  0.00000E+00  9.000E+00
      21     1     1     2   514   512  4.092673327E+00 -1.890231326E+00 -1.100105611E+01  1.188891017E+01  1.685873940E-07  0.00000E+00  9.000E+00
</event>
<event>
      5  10001  3.52971E+09  6.83750E+00 -1.00000E+00  2.17000E-01
      21    -1     0     0   516   512  0.000000000E+00  0.000000000E+00  2.128201289E+02  2.128201289E+02  0.000000000E+00  0.00000E+00  9.000E+00
      21    -1     0     0   511   517  0.000000000E+00  0.000000000E+00 -2.104934270E+00  2.104934270E+00  0.000000000E+00  0.00000E+00  9.000E+00
      21     1     1     2   516   517 -1.600880598E+00  7.720309874E+00  1.545176591E+02  1.547186898E+02  1.907348633E-06  0.00000E+00  9.000E+00
      21     1     1     2   513   512  3.061691399E+00 -1.439993812E+01  3.657426134E+01  3.942599098E+01  0.000000000E+00  0.00000E+00  9.000E+00
      21     1     1     2   511   513 -1.460810801E+00  6.679628250E+00  1.962327415E+01  2.078038234E+01  4.129530925E-07  0.00000E+00  9.000E+00
</event>
<event>
      5  10001  3.52971E+09  1.34146E+01 -1.00000E+00  1.82075E-01
      21    -1     0     0   514   512  0.000000000E+00  0.000000000E+00  2.383556280E+01  2.383556280E+01  0.000000000E+00  0.00000E+00  9.000E+00
      21    -1     0     0   511   514  0.000000000E+00  0.000000000E+00 -5.640200183E+01  5.640200183E+01  0.000000000E+00  0.00000E+00  9.000E+00
      21     1     1     2   513   512  1.046104837E+01  7.967790088E+00  2.081095721E+01  2.461737500E+01  2.384185791E-07  0.00000E+00  9.000E+00
      21     1     1     2   511   515 -5.911454191E+00 -3.947111362E+00 -1.325147050E+01  1.503750143E+01  2.920019320E-07  0.00000E+00  9.000E+00
      21     1     1     2   515   513 -4.549594177E+00 -4.020678726E+00 -4.012592575E+01  4.058268820E+01  0.000000000E+00  0.00000E+00  9.000E+00
</event>
<event>
      5  10001  3.52971E+09  6.17498E+00 -1.00000E+00  2.23544E-01
      21    -1     0     0   512   513  0.000000000E+00  0.000000000E+00  6.634911519E+00  6.634911519E+00  0.000000000E+00  0.00000E+00  9.000E+00
      21    -1     0     0   517   516  0.000000000E+00  0.000000000E+00 -1.234153605E+02  1.234153605E+02  0.000000000E+00  0.00000E+00  9.000E+00
      21     1     1     2   511   513  5.894332488E+00 -1.527382928E+01 -2.649201552E+01  3.114257380E+01  0.000000000E+00  0.00000E+00  9.000E+00
      21     1     1     2   517   511 -1.516480918E+00  1.091896526E+01 -9.187351852E+01  9.253251819E+01  1.907348633E-06  0.00000E+00  9.000E+00
      21     1     1     2   512   516 -4.377851570E+00  4.354864015E+00  1.585085115E+00  6.375179981E+00  1.281846354E-07  0.00000E+00  9.000E+00
</event>
<event>
      5  10001  3.52971E+09  1.33504E+01 -1.00000E+00  1.82283E-01
      21    -1     0     0   514   513  0.000000000E+00  0.000000000E+00  6.953440775E+00  6.953440775E+00  0.000000000E+00  0.00000E+00  9.000E+00
      21    -1     0     0   515   514  0.000000000E+00  0.000000000E+00 -4.542867781E+01  4.542867781E+01  0.000000000E+00  0.00000E+00  9.000E+00
      21     1     1     2   515   516  8.325622278E+00  7.796300081E+00 -3.696042460E+01  3.868037316E+01  6.743495762E-07  0.00000E+00  9.000E+00
      -4     1     1     2     0   513 -1.556758120E+00 -3.066975134E+00 -3.440823420E+00  5.091080251E+00  1.500000000E+00  0.00000E+00  9.000E+00
       4     1     1     2   516     0 -6.768864157E+00 -4.729324947E+00  1.926010983E+00  8.610665174E+00  1.500000000E+00  0.00000E+00  9.000E+00
</event>
<event>
      5  10001  3.52971E+09  4.31281E+00 -1.00000E+00  2.55988E-01
      21    -1     0     0   511   516  0.000000000E+00  0.000000000E+00  2.809678766E+00  2.809678766E+00  0.000000000E+00  0.00000E+00  9.000E+00
      21    -1     0     0   515   512  0.000000000E+00  0.000000000E+00 -5.888222638E+01  5.888222638E+01  0.000000000E+00  0.00000E+00  9.000E+00
      21     1     1     2   511   512  1.027275880E+01  6.894473733E+00 -2.511436735E+01  2.799633527E+01  3.371747881E-07  0.00000E+00  9.000E+00
      21     1     1     2   515   513 -5.327601903E+00 -5.010073488E+00 -1.238384587E+01  1.438206581E+01  1.685873940E-07  0.00000E+00  9.000E+00
      21     1     1     2   513   516 -4.945156898E+00 -1.884400245E+00 -1.857433439E+01  1.931350406E+01  0.000000000E+00  0.00000E+00  9.000E+00
</event>
<event>
      5  10001  3.52971E+09  1.27855E+01 -1.00000E+00  1.84175E-01
       1    -1     0     0   512     0  0.000000000E+00  0.000000000E+00  1.686771601E+02  1.686771601E+02  0.000000000E+00  0.00000E+00  9.000E+00
      21    -1     0     0   513   514  0.000000000E+00  0.000000000E+00 -2.935863829E+00  2.935863829E+00  0.000000000E+00  0.00000E+00  9.000E+00
      21     1     1     2   512   514 -1.435725899E+00  1.532391282E+01  2.874981546E+01  3.261035881E+01  5.840038640E-07  0.00000E+00  9.000E+00
      21     1     1     2   513   511  2.916260436E+00 -7.820962742E+00  1.208520048E+02  1.211399154E+02  1.348699152E-06  0.00000E+00  9.000E+00
       1     1     1     2   511     0 -1.480534537E+00 -7.502950075E+00  1.613947601E+01  1.786274974E+01  3.300000131E-01  0.00000E+00  9.000E+00
</event>
<event>
      5  10001  3.52971E+09  1.66223E+01 -1.00000E+00  1.73279E-01
      21    -1     0     0   515   513  0.000000000E+00  0.000000000E+00  1.445117988E+02  1.445117988E+02  0.000000000E+00  0.00000E+00  9.000E+00
      21    -1     0     0   516   515  0.000000000E+00  0.000000000E+00 -2.961606309E+00  2.961606309E+00  0.000000000E+00  0.00000E+00  9.000E+00
      21     1     1     2   516   517 -1.361100011E+00 -7.451673911E+00  5.878453304E+00  9.588339302E+00  3.371747881E-07  0.00000E+00  9.000E+00
      21     1     1     2   517   512  8.882041252E+00  3.639745430E+00  1.170547223E+02  1.174476327E+02  1.348699152E-06  0.00000E+00  9.000E+00
      21     1     1     2   512   513 -7.520941241E+00  3.811928481E+00  1.861701685E+01  2.043743311E+01  3.371747881E-07  0.00000E+00  9.000E+00
</event>
<event>
      5  10001  3.52971E+09  1.96931E+01 -1.00000E+00  1.66922E-01
      21    -1     0     0   511   515  0.000000000E+00  0.000000000E+00  1.671437457E+01  1.671437457E+01  0.000000000E+00  0.00000E+00  9.000E+00
      21    -1     0     0   513   511  0.000000000E+00  0.000000000E+00 -9.250341593E+01  9.250341593E+01  0.000000000E+00  0.00000E+00  9.000E+00
      21     1     1     2   513   514 -8.958214667E+00 -3.791241891E+00 -5.110831361E+01  5.202579019E+01  0.000000000E+00  0.00000E+00  9.000E+00
      21     1     1     2   514   516  1.130621446E+01  2.334384873E+01 -2.690739304E+01  3.737343387E+01  4.768371582E-07  0.00000E+00  9.000E+00
      21     1     1     2   516   515 -2.347999791E+00 -1.955260684E+01  2.226665284E+00  1.981856644E+01  2.632069846E-07  0.00000E+00  9.000E+00
</event>
<event>
      5  10001  3.52971E+09  2.55947E+00 -1.00000E+00  3.19485E-01
      21    -1     0     0   512   514  0.000000000E+00  0.000000000E+00  3.815351096E+01  3.815351096E+01  0.000000000E+00  0.00000E+00  9.000E+00
      21    -1     0     0   513   515  0.000000000E+00  0.000000000E+00 -4.002127086E+00  4.002127086E+00  0.000000000E+00  0.00000E+00  9.000E+00
      21     1     1     2   512   515 -1.138900760E+01  2.386779741E+00  2.392260707E+01  2.660258147E+01  3.371747881E-07  0.00000E+00  9.000E+00
      21     1     1     2   513   511  2.414428216E+00 -1.440315465E-01  1.579207542E+00  2.888616478E+00  5.960464478E-08  0.00000E+00  9.000E+00
      21     1     1     2   511   514  8.974579388E+00 -2.242748194E+00  8.649569268E+00  1.266444010E+01  2.384185791E-07  0.00000E+00  9.000E+00
</event>
<event>
      5  10001  3.52971E+09  1.68517E+01 -1.00000E+00  1.72746E-01
      21    -1     0     0   516   513  0.000000000E+00  0.000000000E+00  1.974719330E+00  1.974719330E+00  0.000000000E+00  0.00000E+00  9.000E+00
      21    -1     0     0   517   514  0.000000000E+00  0.000000000E+00 -2.696701149E+02  2.696701149E+02  0.000000000E+00  0.00000E+00  9.000E+00
      21     1     1     2   516   514  1.008568232E+01 -4.216100793E-01 -1.481451732E+01  1.792675839E+01  1.685873940E-07  0.00000E+00  9.000E+00
      21     1     1     2   517   512 -3.563050827E+00  8.875452938E+00 -1.430620276E+02  1.433813542E+02  3.814697266E-06  0.00000E+00  9.000E+00
      21     1     1     2   512   513 -6.522631494E+00 -8.453842859E+00 -1.098188507E+02  1.103367217E+02  1.348699152E-06  0.00000E+00  9.000E+00
</event>
<event>
      5  10001  3.52971E+09  1.79512E+01 -1.00000E+00  1.70334E-01
      21    -1     0     0   511   514  0.000000000E+00  0.000000000E+00  1.370010691E+00  1.370010691E+00  0.000000000E+00  0.00000E+00  9.000E+00
      21    -1     0     0   516   513  0.000000000E+00  0.000000000E+00 -8.620965349E+02  8.620965349E+02  0.000000000E+00  0.00000E+00  9.000E+00
      21     1     1     2   511   513 -1.919972441E+01 -2.997831934E-03 -1.737885752E+02  1.748459273E+02  3.303624740E-06  0.00000E+00  9.000E+00
      21     1     1     2   515   514  1.889445968E+01  1.795158516E+01 -2.594070381E+02  2.607130059E+02  7.629394531E-06  0.00000E+00  9.000E+00
      21     1     1     2   516   515  3.052647374E-01 -1.794858732E+01 -4.275309109E+02  4.279076124E+02  7.629394531E-06  0.00000E+00  9.000E+00
</event>
<event>
      5  10001  3.52971E+09  1.30079E+01 -1.00000E+00  1.83415E-01
      21    -1     0     0   516   514  0.000000000E+00  0.000000000E+00  2.278458925E+00  2.278458925E+00  0.000000000E+00  0.00000E+00  9.000E+00
      -1    -1     0     0     0   512  0.000000000E+00  0.000000000E+00 -2.795291060E+02  2.795291060E+02  0.000000000E+00  0.00000E+00  9.000E+00
      21     1     1     2   511   514  3.154074279E+00 -2.221989174E+00 -4.172754209E+01  4.190552696E+01  6.743495762E-07  0.00000E+00  9.000E+00
      21     1     1     2   516   512 -5.431064190E+00  1.211584490E+01 -1.921795509E+01  2.335850923E+01  6.307962682E-07  0.00000E+00  9.000E+00
      -1     1     1     2     0   511  2.276989911E+00 -9.893855730E+00 -2.163051499E+02  2.165435288E+02  3.300000131E-01  0.00000E+00  9.000E+00
</event>
<event>
      5  10001  3.52971E+09  2.69653E+00 -1.00000E+00  3.11657E-01
      21    -1     0     0   511   513  0.000000000E+00  0.000000000E+00  1.535720678E+02  1.535720678E+02  0.000000000E+00  0.00000E+00  9.000E+00
      -4    -1     0     0     0   511  0.000000000E+00  0.000000000E+00 -9.266067288E-01  9.266067288E-01  0.000000000E+00  0.00000E+00  9.000E+00
      -4     1     1     2     0   514  1.953881066E+00 -9.339801316E+00  4.588520978E+01  4.689085216E+01  1.500000000E+00  0.00000E+00  9.000E+00
      21     1     1     2   512   513 -3.593323473E+00  1.058606613E+01  8.139834308E+01  8.216244292E+01  1.348699152E-06  0.00000E+00  9.000E+00
      21     1     1     2   514   512  1.639442406E+00 -1.246264810E+00  2.536190822E+01  2.544537946E+01  4.768371582E-07  0.00000E+00  9.000E+00
</event>
<event>
      5  10001  3.52971E+09  3.88094E+00 -1.00000E+00  2.66592E-01
      21    -1     0     0   515   512  0.000000000E+00  0.000000000E+00  2.666530886E+02  2.666530886E+02  0.000000000E+00  0.00000E+00  9.000E+00
      21    -1     0     0   514   516  0.000000000E+00  0.000000000E+00 -3.338608480E+00  3.338608480E+00  0.000000000E+00  0.00000E+00  9.000E+00
      21     1     1     2   515   516  1.607358904E+00  2.220917094E+01  2.205999482E+02  2.217209238E+02  3.814697266E-06  0.00000E+00  9.000E+00
      21     1     1     2   511   512 -1.880134444E+00 -8.054991375E+00  1.414039039E+01  1.638195446E+01  2.384185791E-07  0.00000E+00  9.000E+00
      21     1     1     2   514   511  2.727755402E-01 -1.415417957E+01  2.857414154E+01  3.188881890E+01  6.743495762E-07  0.00000E+00  9.000E+00
</event>
<event>
      5  10001  3.52971E+09  4.12958E+00 -1.00000E+00  2.60242E-01
      21    -1     0     0   513   512  0.000000000E+00  0.000000000E+00  2.197864713E+01  2.197864713E+01  0.000000000E+00  0.00000E+00  9.000E+00
      21    -1     0     0   514   513  0.000000000E+00  0.000000000E+00 -9.436743921E+00  9.436743921E+00  0.000000000E+00  0.00000E+00  9.000E+00
      21     1     1     2   511   512  1.086665851E+01  3.360755863E+00  1.563917257E+01  1.933811433E+01  0.000000000E+00  0.00000E+00  9.000E+00
      21     1     1     2   515   511 -2.690069103E+00 -1.197293682E-01 -1.665010061E+00  3.165922520E+00  4.214684851E-08  0.00000E+00  9.000E+00
      21     1     1     2   514   515 -8.176589405E+00 -3.241026494E+00 -1.432259300E+00  8.911354203E+00  3.650024150E-08  0.00000E+00  9.000E+00
</event>
<event>
      5  10001  3.52971E+09  1.53897E+01 -1.00000E+00  1.76337E-01
      21    -1     0     0   514   515  0.000000000E+00  0.000000000E+00  3.421187638E+01  3.421187638E+01  0.000000000E+00  0.00000E+00  9.000E+00
       2    -1     0     0   512     0  0.000000000E+00  0.000000000E+00 -1.492597768E+01  1.492597768E+01  0.000000000E+00  0.00000E+00  9.000E+00
      21     1     1     2   511   515  6.062840673E+00  8.564407216E+00  7.446447679E+00  1.286688350E+01  1.884864366E-07  0.00000E+00  9.000E+00
       2     1     1     2   514     0 -2.224092310E+00 -1.428895641E+01 -7.102170243E+00  1.611429750E+01  3.300000131E-01  0.00000E+00  9.000E+00
      21     1     1     2   512   511 -3.838748363E+00  5.724549193E+00  1.894162126E+01  2.015667305E+01  0.000000000E+00  0.00000E+00  9.000E+00
</event>
<event>
      5  10001  3.52971E+09  2.83114E+01 -1.00000E+00  1.54805E-01
      -1    -1     0     0     0   511  0.000000000E+00  0.000000000E+00  3.610137682E+02  3.610137682E+02  0.000000000E+00  0.00000E+00  9.000E+00
      21    -1     0     0   511   513  0.000000000E+00  0.000000000E+00 -5.435279726E+01  5.435279726E+01  0.000000000E+00  0.00000E+00  9.000E+00
      -1     1     1     2     0   514 -2.359705079E+01 -4.505369823E+01  3.170875187E+02  3.211405611E+02  3.300000131E-01  0.00000E+00  9.000E+00
      21     1     1     2   512   513  2.586741264E+01  2.627437915E+01 -4.294770261E+01  5.660363235E+01  2.236564522E-06  0.00000E+00  9.000E+00
      21     1     1     2   514   512 -2.270361849E+00  1.877931907E+01  3.252115486E+01  3.762237209E+01  0.000000000E+00  0.00000E+00  9.000E+00
</event>
<event>
      5  10001  3.52971E+09  4.89199E+00 -1.00000E+00  2.44431E-01
      21    -1     0     0   515   512  0.000000000E+00  0.000000000E+00  3.592791697E+01  3.592791697E+01  0.000000000E+00  0.00000E+00  9.000E+00
      21    -1     0     0   511   515  0.000000000E+00  0.000000000E+00 -4.974030006E+00  4.974030006E+00  0.000000000E+00  0.00000E+00  9.000E+00
      21     1     1     2   511   516  6.913475529E+00 -9.569488451E+00  6.085528809E+00  1.328175116E+01  1.884864366E-07  0.00000E+00  9.000E+00
      21     1     1     2   516   513 -1.807994030E+00  1.063093284E+00  4.356226011E+00  4.834843825E+00  5.960464478E-08  0.00000E+00  9.000E+00
      21     1     1     2   513   512 -5.105481499E+00  8.506395166E+00  2.051213214E+01  2.278535198E+01  2.384185791E-07  0.00000E+00  9.000E+00
</event>
<event>
      5  10001  3.52971E+09  2.71538E+01 -1.00000E+00  1.56106E-01
      21    -1     0     0   514   516  0.000000000E+00  0.000000000E+00  2.580781197E+01  2.580781197E+01  0.000000000E+00  0.00000E+00  9.000E+00
      21    -1     0     0   511   512  0.000000000E+00  0.000000000E+00 -1.653248501E+01  1.653248501E+01  0.000000000E+00  0.00000E+00  9.000E+00
      21     1     1     2   514   512 -1.098515901E+01 -1.077677175E+01  1.695088225E+01  2.289421186E+01  4.129530925E-07  0.00000E+00  9.000E+00
      21     1     1     2   511   515 -1.490411744E+00  3.008486550E-01 -1.108276580E+00  1.881519082E+00  2.580956828E-08  0.00000E+00  9.000E+00
      21     1     1     2   515   516  1.247557076E+01  1.047592309E+01 -6.567278712E+00  1.756456604E+01  8.429369702E-08  0.00000E+00  9.000E+00
</event>
<event>
      5  10001  3.52971E+09  8.19443E+00 -1.00000E+00  2.06311E-01
      21    -1     0     0   513   512  0.000000000E+00  0.000000000E+00  1.856233978E+01  1.856233978E+01  0.000000000E+00  0.00000E+00  9.000E+00
      21    -1     0     0   517   516  0.000000000E+00  0.000000000E+00 -1.328460024E+02  1.328460024E+02  0.000000000E+00  0.00000E+00  9.000E+00
      21     1     1     2   513   516 -1.112874283E+01 -1.443458580E+01 -2.413383521E+01  3.024315106E+01  8.920806376E-07  0.00000E+00  9.000E+00
      21     1     1     2   517   511  1.918686812E+01  1.294619792E+01 -1.031955014E+02  1.057594036E+02  0.000000000E+00  0.00000E+00  9.000E+00
      21     1     1     2   511   512 -8.058125295E+00  1.488387878E+00  1.304567393E+01  1.540578755E+01  2.920019320E-07  0.00000E+00  9.000E+00
</event>
<event>
      5  10001  3.52971E+09  1.05856E+01 -1.00000E+00  1.92938E-01
      21    -1     0     0   513   512  0.000000000E+00  0.000000000E+00  9.550559383E+01  9.550559383E+01  0.000000000E+00  0.00000E+00  9.000E+00
       1    -1     0     0   512     0  0.000000000E+00  0.000000000E+00 -1.712969865E+01  1.712969865E+01  0.000000000E+00  0.00000E+00  9.000E+00
      21     1     1     2   514   511  1.050955470E+01  1.252475225E+01  6.896520089E+01  7.087678811E+01  9.536743164E-07  0.00000E+00  9.000E+00
       1     1     1     2   511     0 -1.640207119E+01 -3.731100347E+00 -1.005556588E+01  1.960031516E+01  3.300000131E-01  0.00000E+00  9.000E+00
      21     1     1     2   513   514  5.892516492E+00 -8.793651905E+00  1.946626017E+01  2.215818922E+01  3.371747881E-07  0.00000E+00  9.000E+00
</event>
<event>
      5  10001  3.52971E+09  1.95287E+01 -1.00000E+00  1.67225E-01
      21    -1     0     0   515   514  0.000000000E+00  0.000000000E+00  3.326950698E-01  3.326950698E-01  0.000000000E+00  0.00000E+00  9.000E+00
      21    -1     0     0   512   515  0.000000000E+00  0.000000000E+00 -6.653540852E+02  6.653540852E+02  0.000000000E+00  0.00000E+00  9.000E+00
      21     1     1     2   516   514  2.117638082E+00 -4.803467719E+00 -5.042258626E+01  5.069511711E+01  6.743495762E-07  0.00000E+00  9.000E+00
      21     1     1     2   511   516  2.771500359E+00 -9.679852427E-01 -5.404662749E+02  5.404742478E+02  7.629394531E-06  0.00000E+00  9.000E+00
      21     1     1     2   512   511 -4.889138441E+00  5.771452961E+00 -7.413252896E+01  7.451741538E+01  0.000000000E+00  0.00000E+00  9.000E+00
</event>
<event>
      5  10001  3.52971E+09  1.98995E+01 -1.00000E+00  1.66547E-01
      21    -1     0     0   513   511  0.000000000E+00  0.000000000E+00  1.305240792E+02  1.305240792E+02  0.000000000E+00  0.00000E+00  9.000E+00
      21    -1     0     0   512   517  0.000000000E+00  0.000000000E+00 -1.005462191E+01  1.005462191E+01  0.000000000E+00  0.00000E+00  9.000E+00
      21     1     1     2   513   517  6.655342059E+00  9.098160826E+00  1.069554302E+02  1.075478227E+02  1.348699152E-06  0.00000E+00  9.000E+00
      21     1     1     2   514   511 -3.512644187E+00 -1.920426490E+01  8.015487972E+00  2.110427698E+01  3.371747881E-07  0.00000E+00  9.000E+00
      21     1     1     2   512   514 -3.142697872E+00  1.010610407E+01  5.498539062E+00  1.192660141E+01  2.384185791E-07  0.00000E+00  9.000E+00
</event>
<event>
      5  10001  3.52971E+09  2.29186E+00 -1.00000E+00  3.37532E-01
      21    -1     0     0   512   511  0.000000000E+00  0.000000000E+00  2.161644803E+00  2.161644803E+00  0.000000000E+00  0.00000E+00  9.000E+00
      -3    -1     0     0     0   515  0.000000000E+00  0.000000000E+00 -6.137215836E+01  6.137215836E+01  0.000000000E+00  0.00000E+00  9.000E+00
      -3     1     1     2     0   511  2.224191689E+00 -1.082622525E+01 -3.266149381E+01  3.448445098E+01  5.000000000E-01  0.00000E+00  9.000E+00
      21     1     1     2   512   513 -1.727340600E+00  8.427245252E+00 -1.545284342E+01  1.768594181E+01  3.769728732E-07  0.00000E+00  9.000E+00
      21     1     1     2   513   515 -4.968510887E-01  2.398979996E+00 -1.109617633E+01  1.136341037E+01  0.000000000E+00  0.00000E+00  9.000E+00
</event>
<event>
      5  10001  3.52971E+09  4.07384E+00 -1.00000E+00  2.61604E-01
       1    -1     0     0   514     0  0.000000000E+00  0.000000000E+00  5.743486471E+01  5.743486471E+01  0.000000000E+00  0.00000E+00  9.000E+00
      21    -1     0     0   512   514  0.000000000E+00  0.000000000E+00 -1.602141088E+01  1.602141088E+01  0.000000000E+00  0.00000E+00  9.000E+00
      21     1     1     2   512   511  8.031429836E+00 -4.690753890E+00 -1.323520719E+01  1.617645655E+01  3.769728732E-07  0.00000E+00  9.000E+00
       1     1     1     2   513     0 -1.081066828E+01  5.610603661E+00  5.173143518E+01  5.314696330E+01  3.300000131E-01  0.00000E+00  9.000E+00
      21     1     1     2   511   513  2.779238445E+00 -9.198497710E-01  2.917225841E+00  4.132855737E+00  0.000000000E+00  0.00000E+00  9.000E+00
</event>
<event>
      5  10001  3.52971E+09  2.61680E+01 -1.00000E+00  1.57277E-01
      21    -1     0     0   511   512  0.000000000E+00  0.000000000E+00  1.233288193E+00  1.233288193E+00  0.000000000E+00  0.00000E+00  9.000E+00
       1    -1     0     0   512     0  0.000000000E+00  0.000000000E+00 -3.061151135E+02  3.061151135E+02  0.000000000E+00  0.00000E+00  9.000E+00
      21     1     1     2   511   515 -5.092762480E+00  6.840033918E+00 -3.677859853E+01  3.775430576E+01  4.768371582E-07  0.00000E+00  9.000E+00
      21     1     1     2   515   514  1.220573215E+01 -5.311385363E+00 -6.442966642E+01  6.579036880E+01  0.000000000E+00  0.00000E+00  9.000E+00
       1     1     1     2   514     0 -7.112969672E+00 -1.528648555E+00 -2.036735603E+02  2.038037271E+02  3.300000131E-01  0.00000E+00  9.000E+00
</event>
<event>
      5  10001  3.52971E+09  9.46976E+00 -1.00000E+00  1.98528E-01
      21    -1     0     0   511   512  0.000000000E+00  0.000000000E+00  1.297580855E+01  1.297580855E+01  0.000000000E+00  0.00000E+00  9.000E+00
       2    -1     0     0   514     0  0.000000000E+00  0.000000000E+00 -7.099951961E+02  7.099951961E+02  0.000000000E+00  0.00000E+00  9.000E+00
      21     1     1     2   514   512 -1.306167347E+01 -3.723147610E+00 -3.937750686E+01  4.165401768E+01  8.259061849E-07  0.00000E+00  9.000E+00
       2     1     1     2   513     0  4.845697473E+00  8.432022585E+00 -6.675444008E+02  6.676153202E+02  3.300000131E-01  0.00000E+00  9.000E+00
      21     1     1     2   511   513  8.215975995E+00 -4.708874976E+00  9.902520189E+00  1.370166673E+01  9.610960183E-07  0.00000E+00  9.000E+00
</event>
<event>
      5  10001  3.52971E+09  3.43189E+00 -1.00000E+00  2.80190E-01
      21    -1     0     0   512   513  0.000000000E+00  0.000000000E+00  7.338577563E+00  7.338577563E+00  0.000000000E+00  0.00000E+00  9.000E+00
       2    -1     0     0   511     0  0.000000000E+00  0.000000000E+00 -1.111685204E+02  1.111685204E+02  0.000000000E+00  0.00000E+00  9.000E+00
      21     1     1     2   511   513  1.785996695E+01  8.602518643E+00 -2.207779471E+01  2.967171660E+01  3.371747881E-07  0.00000E+00  9.000E+00
       2     1     1     2   515     0 -1.468746166E+01 -7.294010105E+00 -8.342180679E+01  8.501900295E+01  3.300000131E-01  0.00000E+00  9.000E+00
      21     1     1     2   512   515 -3.172505295E+00 -1.308508539E+00  1.669658643E+00  3.816378444E+00  6.664001875E-08  0.00000E+00  9.000E+00
</event>
<event>
      5  10001  3.52971E+09  1.19620E+01 -1.00000E+00  1.87169E-01
      21    -1     0     0   514   513  0.000000000E+00  0.000000000E+00  6.402329133E+00  6.402329133E+00  0.000000000E+00  0.00000E+00  9.000E+00
      21    -1     0     0   516   514  0.000000000E+00  0.000000000E+00 -1.193988264E+02  1.193988264E+02  0.000000000E+00  0.00000E+00  9.000E+00
      21     1     1     2   516   511 -1.432403854E+01 -2.775291724E+00 -1.026703493E+02  1.037018850E+02  1.348699152E-06  0.00000E+00  9.000E+00
      21     1     1     2   517   513  3.283367694E+00 -1.429914980E+00  2.721173653E+00  4.497771261E+00  2.475566823E-07  0.00000E+00  9.000E+00
      21     1     1     2   511   517  1.104067084E+01  4.205206704E+00 -1.304732167E+01  1.760149933E+01  2.384185791E-07  0.00000E+00  9.000E+00
</event>
<event>
      5  10001  3.52971E+09  7.02815E+00 -1.00000E+00  2.15302E-01
       1    -1     0     0   511     0  0.000000000E+00  0.000000000E+00  9.257679713E+02  9.257679713E+02  0.000000000E+00  0.00000E+00  9.000E+00
      21    -1     0     0   512   514  0.000000000E+00  0.000000000E+00 -3.205212091E+00  3.205212091E+00  0.000000000E+00  0.00000E+00  9.000E+00
      21     1     1     2   511   514 -5.821456360E+00 -1.185845342E+01  1.108191796E+01  1.724300372E+01  9.233911863E-07  0.00000E+00  9.000E+00
       1     1     1     2   513     0  6.575751163E+00  5.096802323E+00  7.992145755E+02  7.992579462E+02  3.300000131E-01  0.00000E+00  9.000E+00
      21     1     1     2   512   513 -7.542948033E-01  6.761651101E+00  1.122662658E+02  1.124722335E+02  0.000000000E+00  0.00000E+00  9.000E+00
</event>
<event>
      5  10001  3.52971E+09  6.20740E+00 -1.00000E+00  2.23198E-01
       1    -1     0     0   512     0  0.000000000E+00  0.000000000E+00  1.631323447E+02  1.631323447E+02  0.000000000E+00  0.00000E+00  9.000E+00
      21    -1     0     0   515   511  0.000000000E+00  0.000000000E+00 -2.055978813E+02  2.055978813E+02  0.000000000E+00  0.00000E+00  9.000E+00
      21     1     1     2   512   513  3.681718085E+00 -1.094690828E+01  9.873464636E+00  1.519457643E+01  6.951036328E-07  0.00000E+00  9.000E+00
       1     1     1     2   515     0  2.285677987E+00  9.237542395E+00  1.504002652E+02  1.507013775E+02  3.300000131E-01  0.00000E+00  9.000E+00
      21     1     1     2   513   511 -5.967396071E+00  1.709365883E+00 -2.027392664E+02  2.028342720E+02  0.000000000E+00  0.00000E+00  9.000E+00
</event>
<event>
      5  10001  3.52971E+09  9.93563E+00 -1.00000E+00  1.96077E-01
      21    -1     0     0   514   511  0.000000000E+00  0.000000000E+00  7.861948077E+01  7.861948077E+01  0.000000000E+00  0.00000E+00  9.000E+00
      21    -1     0     0   513   516  0.000000000E+00  0.000000000E+00 -1.853857471E+01  1.853857471E+01  0.000000000E+00  0.00000E+00  9.000E+00
      21     1     1     2   514   516 -1.017502856E+01 -9.262773911E-01 -1.549744118E+01  1.856232418E+01  9.233911863E-07  0.00000E+00  9.000E+00
      21     1     1     2   512   511  2.650747996E+00  4.225748766E+00  6.505033831E+01  6.524132074E+01  9.536743164E-07  0.00000E+00  9.000E+00
      21     1     1     2   513   512  7.524280562E+00 -3.299471375E+00  1.052800894E+01  1.335441056E+01  1.685873940E-07  0.00000E+00  9.000E+00
</event>
<event>
      5  10001  3.52971E+09  6.42950E+00 -1.00000E+00  2.20902E-01
      21    -1     0     0   515   511  0.000000000E+00  0.000000000E+00  5.709675305E+01  5.709675305E+01  0.000000000E+00  0.00000E+00  9.000E+00
      21    -1     0     0   513   515  0.000000000E+00  0.000000000E+00 -1.115994030E+02  1.115994030E+02  0.000000000E+00  0.00000E+00  9.000E+00
      21     1     1     2   513   517  8.912372680E+00  5.623741054E+00 -1.000212320E+02  1.005748662E+02  3.303624740E-06  0.00000E+00  9.000E+00
      21     1     1     2   517   512 -1.410003221E+01 -1.825499271E+00 -6.552344135E+00  1.565492157E+01  3.371747881E-07  0.00000E+00  9.000E+00
      21     1     1     2   512   511  5.187659527E+00 -3.798241783E+00  5.207092618E+01  5.246636833E+01  9.536743164E-07  0.00000E+00  9.000E+00
</event>
<event>
      5  10001  3.52971E+09  5.58040E+00 -1.00000E+00  2.30469E-01
      21    -1     0     0   514   515  0.000000000E+00  0.000000000E+00  7.373777636E+00  7.373777636E+00  0.000000000E+00  0.00000E+00  9.000E+00
      21    -1     0     0   513   511  0.000000000E+00  0.000000000E+00 -2.756389821E+02  2.756389821E+02  0.000000000E+00  0.00000E+00  9.000E+00
      21     1     1     2   514   511 -9.132689840E+00  8.868715220E+00 -1.088353345E+02  1.095773251E+02  1.348699152E-06  0.00000E+00  9.000E+00
      21     1     1     2   513   516  4.804344128E+00 -1.239097177E+01 -1.650096711E+02  1.655439804E+02  3.303624740E-06  0.00000E+00  9.000E+00
      21     1     1     2   516   515  4.328345712E+00  3.522256549E+00  5.579801184E+00  7.891454179E+00  6.743495762E-07  0.00000E+00  9.000E+00
</event>
<event>
      5  10001  3.52971E+09  1.41563E+01 -1.00000E+00  1.79781E-01
      21    -1     0     0   512   515  0.000000000E+00  0.000000000E+00  1.943307838E+00  1.943307838E+00  0.000000000E+00  0.00000E+00  9.000E+00
      21    -1     0     0   515   514  0.000000000E+00  0.000000000E+00 -1.178200463E+02  1.178200463E+02  0.000000000E+00  0.00000E+00  9.000E+00
      -1     1     1     2     0   514 -4.234170410E-02  1.195681732E+01 -4.937031392E+01  5.079866209E+01  3.300000131E-01  0.00000E+00  9.000E+00
       1     1     1     2   511     0  2.802810580E+00 -5.140151294E+00 -7.591587908E+00  9.592601808E+00  3.300000131E-01  0.00000E+00  9.000E+00
      21     1     1     2   512   511 -2.760468876E+00 -6.816666028E+00 -5.891483662E+01  5.937209023E+01  9.536743164E-07  0.00000E+00  9.000E+00
</event>
<event>
      5  10001  3.52971E+09  1.51636E+01 -1.00000E+00  1.76937E-01
       1    -1     0     0   513     0  0.000000000E+00  0.000000000E+00  9.331821698E+02  9.331821698E+02  0.000000000E+00  0.00000E+00  9.000E+00
      21    -1     0     0   512   514  0.000000000E+00  0.000000000E+00 -3.490017182E+00  3.490017182E+00  0.000000000E+00  0.00000E+00  9.000E+00
      21     1     1     2   513   511  2.117393242E+01 -1.159223805E+01  4.805507720E+01  5.377737296E+01  1.651812370E-06  0.00000E+00  9.000E+00
       1     1     1     2   512     0 -6.010639820E+00  1.166374433E+01  7.820317919E+02  7.821419328E+02  3.300000131E-01  0.00000E+00  9.000E+00
      21     1     1     2   511   514 -1.516329260E+01 -7.150628413E-02  9.960528353E+01  1.007528812E+02  0.000000000E+00  0.00000E+00  9.000E+00
</event>
<event>
      5  10001  3.52971E+09  1.33657E+01 -1.00000E+00  1.82233E-01
      21    -1     0     0   515   512  0.000000000E+00  0.000000000E+00  9.000249653E+01  9.000249653E+01  0.000000000E+00  0.00000E+00  9.000E+00
      21    -1     0     0   513   516  0.000000000E+00  0.000000000E+00 -8.945616026E+00  8.945616026E+00  0.000000000E+00  0.00000E+00  9.000E+00
      21     1     1     2   515   516  4.573110623E+00 -2.355929778E+01  3.551431052E+01  4.286280561E+01  9.536743164E-07  0.00000E+00  9.000E+00
      21     1     1     2   511   512 -1.307527119E+01  1.324644624E+01  3.224596830E+01  3.723215715E+01  6.743495762E-07  0.00000E+00  9.000E+00
      21     1     1     2   513   511  8.502160563E+00  1.031285154E+01  1.329660168E+01  1.885314980E+01  2.920019320E-07  0.00000E+00  9.000E+00
</event>
<event>
      5  10001  3.52971E+09  6.83694E+00 -1.00000E+00  2.17005E-01
      21    -1     0     0   513   514  0.000000000E+00  0.000000000E+00  2.813371195E+00  2.813371195E+00  0.000000000E+00  0.00000E+00  9.000E+00
       2    -1     0     0   512     0  0.000000000E+00  0.000000000E+00 -1.559079012E+03  1.559079012E+03  0.000000000E+00  0.00000E+00  9.000E+00
      21     1     1     2   512   511  4.456185859E+00  1.420941818E+01 -7.740531754E+02  7.741964115E+02  1.525878906E-05  0.00000E+00  9.000E+00
       2     1     1     2   513     0 -2.084637464E+00 -7.797058315E+00 -7.806384824E+02  7.806802732E+02  3.300000131E-01  0.00000E+00  9.000E+00
      21     1     1     2   511   514 -2.371548395E+00 -6.412359868E+00 -1.573982734E+00  7.015698291E+00  1.012840597E-06  0.00000E+00  9.000E+00
</event>
<event>
      5  10001  3.52971E+09  2.26296E+00 -1.00000E+00  3.39747E-01
      21    -1     0     0   515   514  0.000000000E+00  0.000000000E+00  1.394184626E-01  1.394184626E-01  0.000000000E+00  0.00000E+00  9.000E+00
       1    -1     0     0   511     0  0.000000000E+00  0.000000000E+00 -1.433353015E+03  1.433353015E+03  0.000000000E+00  0.00000E+00  9.000E+00
      21     1     1     2   512   514 -6.845663633E+00 -4.802845388E+00 -1.811994174E+02  1.813922801E+02  3.814697266E-06  0.00000E+00  9.000E+00
       1     1     1     2   515     0  9.666910459E+00  5.575770489E+00 -1.108138380E+03  1.108194620E+03  3.300000131E-01  0.00000E+00  9.000E+00
      21     1     1     2   511   512 -2.821246826E+00 -7.729251008E-01 -1.438758000E+02  1.439055339E+02  1.907348633E-06  0.00000E+00  9.000E+00
</event>
<event>
      5  10001  3.52971E+09  5.25113E+00 -1.00000E+00  2.34850E-01
      21    -1     0     0   513   512  0.000000000E+00  0.000000000E+00  3.533034817E+00  3.533034817E+00  0.000000000E+00  0.00000E+00  9.000E+00
      21    -1     0     0   511   513  0.000000000E+00  0.000000000E+00 -1.517995692E+02  1.517995692E+02  0.000000000E+00  0.00000E+00  9.000E+00
      21     1     1     2   516   512 -1.248482746E+01 -1.081047984E+01 -2.013869665E+01  2.604427948E+01  8.920806376E-07  0.00000E+00  9.000E+00
      21     1     1     2   514   516  6.637069228E+00  2.998745695E+00 -6.570140623E+01  6.610384213E+01  9.536743164E-07  0.00000E+00  9.000E+00
      21     1     1     2   511   514  5.847758228E+00  7.811734147E+00 -6.242643148E+01  6.318448239E+01  9.536743164E-07  0.00000E+00  9.000E+00
</event>
<event>
      5  10001  3.52971E+09  1.88724E+01 -1.00000E+00  1.68472E-01
      21    -1     0     0   515   512  0.000000000E+00  0.000000000E+00  1.567644177E+01  1.567644177E+01  0.000000000E+00  0.00000E+00  9.000E+00
      21    -1     0     0   511   513  0.000000000E+00  0.000000000E+00 -3.907870172E+02  3.907870172E+02  0.000000000E+00  0.00000E+00  9.000E+00
      21     1     1     2   511   517 -9.008470614E+00 -7.865316291E+00 -3.287743672E+02  3.289917936E+02  6.607249480E-06  0.00000E+00  9.000E+00
      21     1     1     2   517   512 -9.248063487E+00  1.264706893E+01  9.642636576E+00  1.839715932E+01  6.848052319E-07  0.00000E+00  9.000E+00
      21     1     1     2   515   513  1.825653410E+01 -4.781752642E+00 -5.597884480E+01  5.907450602E+01  6.743495762E-07  0.00000E+00  9.000E+00
</event>
<event>
      5  10001  3.52971E+09  5.98637E+00 -1.00000E+00  2.25619E-01
      -2    -1     0     0     0   511  0.000000000E+00  0.000000000E+00  1.538159583E+02  1.538159583E+02  0.000000000E+00  0.00000E+00  9.000E+00
       1    -1     0     0   511     0  0.000000000E+00  0.000000000E+00 -3.054782735E+02  3.054782735E+02  0.000000000E+00  0.00000E+00  9.000E+00
      -2     1     1     2     0   514 -2.053122114E+00 -7.338910043E+00  1.524504126E+02  1.526411219E+02  3.300000131E-01  0.00000E+00  9.000E+00
       1     1     1     2   512     0  1.600487187E+00  1.121746917E+01 -3.020012320E+02  3.022139080E+02  3.300000131E-01  0.00000E+00  9.000E+00
      21     1     1     2   514   512  4.526349273E-01 -3.878559128E+00 -2.111495730E+00  4.439201900E+00  0.000000000E+00  0.00000E+00  9.000E+00
</event>
<event>
      5  10001  3.52971E+09  3.59945E+00 -1.00000E+00  2.74747E-01
       1    -1     0     0   514     0  0.000000000E+00  0.000000000E+00  6.625216465E+01  6.625216465E+01  0.000000000E+00  0.00000E+00  9.000E+00
      21    -1     0     0   512   511  0.000000000E+00  0.000000000E+00 -6.255208912E+01  6.255208912E+01  0.000000000E+00  0.00000E+00  9.000E+00
      21     1     1     2   512   513 -7.418509217E+00 -2.969853997E+01 -1.694900816E+01  3.499009050E+01  5.331201500E-07  0.00000E+00  9.000E+00
       1     1     1     2   513     0  4.057280982E+00  3.098617711E+01  5.285739146E+01  6.140535346E+01  3.300000131E-01  0.00000E+00  9.000E+00
      21     1     1     2   514   511  3.361228236E+00 -1.287637143E+00 -3.220830777E+01  3.240880982E+01  0.000000000E+00  0.00000E+00  9.000E+00
</event>
<event>
      5  10001  3.52971E+09  4.11195E+00 -1.00000E+00  2.60669E-01
      21    -1     0     0   515   511  0.000000000E+00  0.000000000E+00  1.116854196E+01  1.116854196E+01  0.000000000E+00  0.00000E+00  9.000E+00
      21    -1     0     0   512   516  0.000000000E+00  0.000000000E+00 -2.223083407E+01  2.223083407E+01  0.000000000E+00  0.00000E+00  9.000E+00
      21     1     1     2   515   516  9.394108826E+00 -5.444516925E+00 -1.499528540E+01  1.851352558E+01  2.384185791E-07  0.00000E+00  9.000E+00
      21     1     1     2   513   511 -9.425343542E+00  2.911478046E+00  6.060528398E+00  1.157772904E+01  4.298152060E-07  0.00000E+00  9.000E+00
      21     1     1     2   512   513  3.123471545E-02  2.533038878E+00 -2.127535107E+00  3.308121400E+00  2.980232239E-08  0.00000E+00  9.000E+00
</event>
<event>
      5  10001  3.52971E+09  1.74470E+01 -1.00000E+00  1.71413E-01
      21    -1     0     0   513   511  0.000000000E+00  0.000000000E+00  2.598486442E+01  2.598486442E+01  0.000000000E+00  0.00000E+00  9.000E+00
      21    -1     0     0   515   513  0.000000000E+00  0.000000000E+00 -1.179707974E+02  1.179707974E+02  0.000000000E+00  0.00000E+00  9.000E+00
      -5     1     1     2     0   511  1.594101291E+01  1.175556788E+01  1.591837042E+01  2.586008096E+01  4.800000191E+00  0.00000E+00  9.000E+00
       5     1     1     2   514     0 -1.942721513E+01  5.209902800E+00 -2.096223065E+01  2.944511659E+01  4.800000191E+00  0.00000E+00  9.000E+00
      21     1     1     2   515   514  3.486202223E+00 -1.696547068E+01 -8.694207274E+01  8.865046426E+01  2.132480600E-06  0.00000E+00  9.000E+00
</event>
<event>
      5  10001  3.52971E+09  1.09515E+01 -1.00000E+00  1.91297E-01
      -2    -1     0     0     0   512  0.000000000E+00  0.000000000E+00  9.556144271E+01  9.556144271E+01  0.000000000E+00  0.00000E+00  9.000E+00
      21    -1     0     0   516   513  0.000000000E+00  0.000000000E+00 -4.235923939E+00  4.235923939E+00  0.000000000E+00  0.00000E+00  9.000E+00
      -2     1     1     2     0   513 -1.834604666E+01 -9.976734649E-01  3.833723628E+01  4.251382559E+01  3.300000131E-01  0.00000E+00  9.000E+00
      21     1     1     2   511   512  9.470363957E+00  2.120101016E+00  4.203618616E+01  4.314190038E+01  6.743495762E-07  0.00000E+00  9.000E+00
      21     1     1     2   516   511  8.875682703E+00 -1.122427551E+00  1.095209633E+01  1.414164068E+01  0.000000000E+00  0.00000E+00  9.000E+00
</event>
<event>
      5  10001  3.52971E+09  8.27330E+00 -1.00000E+00  2.05776E-01
      21    -1     0     0   514   511  0.000000000E+00  0.000000000E+00  2.918753661E+01  2.918753661E+01  0.000000000E+00  0.00000E+00  9.000E+00
      21    -1     0     0   512   514  0.000000000E+00  0.000000000E+00 -1.576750322E+01  1.576750322E+01  0.000000000E+00  0.00000E+00  9.000E+00
      21     1     1     2   515   516  2.540403441E+00 -1.351246221E+01 -3.238572174E+00  1.412546050E+01  9.424321831E-08  0.00000E+00  9.000E+00
      21     1     1     2   516   511  3.192059661E+00  7.547029383E+00  2.022376985E+01  2.182081035E+01  4.129530925E-07  0.00000E+00  9.000E+00
      21     1     1     2   512   515 -5.732463102E+00  5.965432831E+00 -3.565164283E+00  9.008768975E+00  1.837138534E-07  0.00000E+00  9.000E+00
</event>
<event>
      5  10001  3.52971E+09  1.73378E+01 -1.00000E+00  1.71652E-01
       2    -1     0     0   512     0  0.000000000E+00  0.000000000E+00  3.135075608E+02  3.135075608E+02  0.000000000E+00  0.00000E+00  9.000E+00
       2    -1     0     0   513     0  0.000000000E+00  0.000000000E+00 -1.165573143E+03  1.165573143E+03  0.000000000E+00  0.00000E+00  9.000E+00
      21     1     1     2   513   511  4.575700053E+01 -3.271583557E+01 -2.306593170E+01  6.079528106E+01  1.168007728E-06  0.00000E+00  9.000E+00
       2     1     1     2   512     0 -3.325026949E+01  2.070831833E+01 -1.123045600E+03  1.123728590E+03  3.300000131E-01  0.00000E+00  9.000E+00
       2     1     1     2   511     0 -1.250673103E+01  1.200751724E+01  2.940459493E+02  2.945568332E+02  3.300000131E-01  0.00000E+00  9.000E+00
</event>
<event>
      5  10001  3.52971E+09  2.16598E+00 -1.00000E+00  3.47637E-01
      21    -1     0     0   512   515  0.000000000E+00  0.000000000E+00  4.150977332E+01  4.150977332E+01  0.000000000E+00  0.00000E+00  9.000E+00
      -4    -1     0     0     0   514  0.000000000E+00  0.000000000E+00 -5.224844839E+00  5.224844839E+00  0.000000000E+00  0.00000E+00  9.000E+00
      -4     1     1     2     0   515 -1.098480695E+01 -4.759313436E+00  1.230875254E+01  1.723578943E+01  1.500000000E+00  0.00000E+00  9.000E+00
      21     1     1     2   513   514  1.287948647E+01  3.723860979E+00  1.437055079E+01  1.965352494E+01  2.384185791E-07  0.00000E+00  9.000E+00
      21     1     1     2   512   513 -1.894679518E+00  1.035452457E+00  9.605625155E+00  9.845303799E+00  1.192092896E-07  0.00000E+00  9.000E+00
</event>
<event>
      5  10001  3.52971E+09  6.42123E+00 -1.00000E+00  2.20985E-01
      21    -1     0     0   511   513  0.000000000E+00  0.000000000E+00  6.619485310E+00  6.619485310E+00  0.000000000E+00  0.00000E+00  9.000E+00
      21    -1     0     0   515   516  0.000000000E+00  0.000000000E+00 -2.871323288E+01  2.871323288E+01  0.000000000E+00  0.00000E+00  9.000E+00
      21     1     1     2   511   516  1.135930074E+01  4.599493808E+00 -1.667648214E+01  2.069526789E+01  2.384185791E-07  0.00000E+00  9.000E+00
      21     1     1     2   514   513 -3.647954947E+00 -4.222501580E+00 -7.880970624E-01  5.635440699E+00  0.000000000E+00  0.00000E+00  9.000E+00
      21     1     1     2   515   514 -7.711345790E+00 -3.769922283E-01 -4.629168363E+00  9.002009596E+00  1.576990671E-07  0.00000E+00  9.000E+00
</event>
<event>
      5  10001  3.52971E+09  9.73801E+00 -1.00000E+00  1.97095E-01
      21    -1     0     0   512   514  0.000000000E+00  0.000000000E+00  2.744206796E+01  2.744206796E+01  0.000000000E+00  0.00000E+00  9.000E+00
      21    -1     0     0   515   512  0.000000000E+00  0.000000000E+00 -8.252202985E+00  8.252202985E+00  0.000000000E+00  0.00000E+00  9.000E+00
      21     1     1     2   515   517 -5.229353445E+00 -6.382223849E+00 -1.214157576E+00  8.339849958E+00  9.884312124E-08  0.00000E+00  9.000E+00
      21     1     1     2   511   514  5.752740824E+00  5.630942147E+00  2.312365693E+01  2.448479215E+01  4.768371582E-07  0.00000E+00  9.000E+00
      21     1     1     2   517   511 -5.233873794E-01  7.512817025E-01 -2.719634379E+00  2.869628844E+00  7.300048300E-08  0.00000E+00  9.000E+00
</event>
<event>
      5  10001  3.52971E+09  6.59221E+00 -1.00000E+00  2.19299E-01
      21    -1     0     0   513   511  0.000000000E+00  0.000000000E+00  1.127235341E+02  1.127235341E+02  0.000000000E+00  0.00000E+00  9.000E+00
      21    -1     0     0   515   516  0.000000000E+00  0.000000000E+00 -2.115697415E+00  2.115697415E+00  0.000000000E+00  0.00000E+00  9.000E+00
      21     1     1     2   513   516 -4.426568718E+00 -7.889320705E+00  8.717199985E+01  8.764013606E+01  1.651812370E-06  0.00000E+00  9.000E+00
      21     1     1     2   515   512 -4.397498092E-01  7.398433781E+00  7.560162330E+00  1.058707971E+01  2.528810911E-07  0.00000E+00  9.000E+00
      21     1     1     2   512   511  4.866318527E+00  4.908869245E-01  1.587567453E+01  1.661201576E+01  2.384185791E-07  0.00000E+00  9.000E+00
</event>
<event>
      5  10001  3.52971E+09  9.85799E+00 -1.00000E+00  1.96473E-01
      21    -1     0     0   514   515  0.000000000E+00  0.000000000E+00  1.835046295E+00  1.835046295E+00  0.000000000E+00  0.00000E+00  9.000E+00
      21    -1     0     0   517   511  0.000000000E+00  0.000000000E+00 -1.200340330E+02  1.200340330E+02  0.000000000E+00  0.00000E+00  9.000E+00
      21     1     1     2   514   511 -3.723281542E+00  1.167183194E+01 -4.340358132E+01  4.509950507E+01  6.743495762E-07  0.00000E+00  9.000E+00
      21     1     1     2   513   515  1.127399713E+00 -8.087494481E+00 -6.898032286E+01  6.946195749E+01  9.536743164E-07  0.00000E+00  9.000E+00
      21     1     1     2   517   513  2.595881828E+00 -3.584337464E+00 -5.815082546E+00  7.307616749E+00  1.884864366E-07  0.00000E+00  9.000E+00
</event>
<event>
      5  10001  3.52971E+09  7.42068E+00 -1.00000E+00  2.12027E-01
      -1    -1     0     0     0   516  0.000000000E+00  0.000000000E+00  5.669641358E+02  5.669641358E+02  0.000000000E+00  0.00000E+00  9.000E+00
      -5    -1     0     0     0   512  0.000000000E+00  0.000000000E+00 -1.198294681E+00  1.198294681E+00  0.000000000E+00  0.00000E+00  9.000E+00
      -5     1     1     2     0   514  1.485664262E+01 -7.280330615E+00  1.623734096E+02  1.632846815E+02  4.800000191E+00  0.00000E+00  9.000E+00
      21     1     1     2   514   516 -2.203543920E+01  8.730550817E+00  2.076958531E+02  2.090438961E+02  2.697398305E-06  0.00000E+00  9.000E+00
      -1     1     1     2     0   512  7.178796573E+00 -1.450220203E+00  1.956965783E+02  1.958338528E+02  3.300000131E-01  0.00000E+00  9.000E+00
</event>
<event>
      5  10001  3.52971E+09  6.09529E+00 -1.00000E+00  2.24408E-01
      21    -1     0     0   514   511  0.000000000E+00  0.000000000E+00  1.607952985E+01  1.607952985E+01  0.000000000E+00  0.00000E+00  9.000E+00
      21    -1     0     0   513   512  0.000000000E+00  0.000000000E+00 -3.010916817E+01  3.010916817E+01  0.000000000E+00  0.00000E+00  9.000E+00
      -4     1     1     2     0   512 -1.141567652E+01 -7.681355618E+00 -2.363525667E+01  2.738971070E+01  1.500000000E+00  0.00000E+00  9.000E+00
      21     1     1     2   513   511  5.780029079E+00  5.443469355E+00  9.721023324E+00  1.255142977E+01  1.685873940E-07  0.00000E+00  9.000E+00
       4     1     1     2   514     0  5.635647442E+00  2.237886263E+00 -1.154049732E-01  6.247557549E+00  1.500000000E+00  0.00000E+00  9.000E+00
</event>
<event>
      5  10001  3.52971E+09  1.64317E+01 -1.00000E+00  1.73730E-01
       2    -1     0     0   514     0  0.000000000E+00  0.000000000E+00  2.052417927E+02  2.052417927E+02  0.000000000E+00  0.00000E+00  9.000E+00
       2    -1     0     0   511     0  0.000000000E+00  0.000000000E+00 -8.546983946E+01  8.546983946E+01  0.000000000E+00  0.00000E+00  9.000E+00
       2     1     1     2   514     0  3.987304527E+01 -9.257359183E+01 -3.219889786E+01  1.058140235E+02  3.300000131E-01  0.00000E+00  9.000E+00
       2     1     1     2   512     0 -3.714198903E+01  6.440198321E+01  1.269629648E+02  1.471286720E+02  3.300000131E-01  0.00000E+00  9.000E+00
      21     1     1     2   511   512 -2.731056239E+00  2.817160862E+01  2.500788632E+01  3.776893669E+01  3.371747881E-07  0.00000E+00  9.000E+00
</event>
<event>
      5  10001  3.52971E+09  5.88415E+00 -1.00000E+00  2.26789E-01
      21    -1     0     0   513   515  0.000000000E+00  0.000000000E+00  3.494271701E+01  3.494271701E+01  0.000000000E+00  0.00000E+00  9.000E+00
      21    -1     0     0   511   514  0.000000000E+00  0.000000000E+00 -9.653736849E+01  9.653736849E+01  0.000000000E+00  0.00000E+00  9.000E+00
      21     1     1     2   512   515  8.710528809E+00  3.300775267E+00  2.668685305E+01  2.826581956E+01  4.768371582E-07  0.00000E+00  9.000E+00
      21     1     1     2   511   512 -1.142340944E+01 -8.522220320E+00  4.778219241E-01  1.426011347E+01  2.062075213E-07  0.00000E+00  9.000E+00
      21     1     1     2   513   514  2.712880634E+00  5.221445053E+00 -8.875932645E+01  8.895415247E+01  1.651812370E-06  0.00000E+00  9.000E+00
</event>
<event>
      5  10001  3.52971E+09  5.24299E+00 -1.00000E+00  2.34964E-01
      21    -1     0     0   514   511  0.000000000E+00  0.000000000E+00  8.481929246E+02  8.481929246E+02  0.000000000E+00  0.00000E+00  9.000E+00
      21    -1     0     0   512   514  0.000000000E+00  0.000000000E+00 -6.021328667E-01  6.021328667E-01  0.000000000E+00  0.00000E+00  9.000E+00
      -5     1     1     2     0   515 -1.219929058E+01  1.038849732E+01  5.732634945E+02  5.735074696E+02  4.800000191E+00  0.00000E+00  9.000E+00
       5     1     1     2   512     0  1.240711417E+01 -8.300148285E+00  1.296065892E+02  1.305516638E+02  4.800000191E+00  0.00000E+00  9.000E+00
      21     1     1     2   515   511 -2.078235870E-01 -2.088349036E+00  1.447207080E+02  1.447359241E+02  1.907348633E-06  0.00000E+00  9.000E+00
</event>
<event>
      5  10001  3.52971E+09  5.65301E+00 -1.00000E+00  2.29560E-01
      21    -1     0     0   513   512  0.000000000E+00  0.000000000E+00  3.344498294E+01  3.344498294E+01  0.000000000E+00  0.00000E+00  9.000E+00
      21    -1     0     0   514   511  0.000000000E+00  0.000000000E+00 -9.147178612E+00  9.147178612E+00  0.000000000E+00  0.00000E+00  9.000E+00
      21     1     1     2   513   511  8.086362203E+00 -3.475017431E+00  2.101994215E+01  2.278821994E+01  2.384185791E-07  0.00000E+00  9.000E+00
      21     1     1     2   515   512 -1.073734165E+01  8.467892388E+00  3.603826277E+00  1.414154416E+01  2.457562462E-07  0.00000E+00  9.000E+00
      21     1     1     2   514   515  2.650979451E+00 -4.992874957E+00 -3.259640998E-01  5.662397459E+00  9.863229316E-08  0.00000E+00  9.000E+00
</event>
<event>
      5  10001  3.52971E+09  3.02530E+00 -1.00000E+00  2.95755E-01
      21    -1     0     0   516   511  0.000000000E+00  0.000000000E+00  1.816233824E+02  1.816233824E+02  0.000000000E+00  0.00000E+00  9.000E+00
      21    -1     0     0   514   516  0.000000000E+00  0.000000000E+00 -1.612483446E+01  1.612483446E+01  0.000000000E+00  0.00000E+00  9.000E+00
      21     1     1     2   514   517  1.078306964E+01 -2.398074026E+00 -1.394665187E+01  1.779141502E+01  5.840038640E-07  0.00000E+00  9.000E+00
      21     1     1     2   512   511 -6.954860277E+00  1.773169050E+00  1.580464580E+02  1.582093458E+02  1.907348633E-06  0.00000E+00  9.000E+00
      21     1     1     2   517   512 -3.828209368E+00  6.249049763E-01  2.139874181E+01  2.174745604E+01  4.129530925E-07  0.00000E+00  9.000E+00
</event>
<event>
      5  10001  3.52971E+09  8.04713E+00 -1.00000E+00  2.07332E-01
      21    -1     0     0   513   511  0.000000000E+00  0.000000000E+00  3.809790224E+02  3.809790224E+02  0.000000000E+00  0.00000E+00  9.000E+00
      21    -1     0     0   515   513  0.000000000E+00  0.000000000E+00 -6.348139392E-01  6.348139392E-01  0.000000000E+00  0.00000E+00  9.000E+00
      21     1     1     2   512   511 -2.581108001E+00  8.852271604E+00  4.146408256E+01  4.247699347E+01  8.259061849E-07  0.00000E+00  9.000E+00
      21     1     1     2   514   512 -2.794809311E+00 -6.932924551E+00  1.985888066E+02  1.987294405E+02  0.000000000E+00  0.00000E+00  9.000E+00
      21     1     1     2   515   514  5.375917312E+00 -1.919347052E+00  1.402913193E+02  1.404074024E+02  0.000000000E+00  0.00000E+00  9.000E+00
</event>
<event>
      5  10001  3.52971E+09  1.64769E+01 -1.00000E+00  1.73622E-01
      21    -1     0     0   516   514  0.000000000E+00  0.000000000E+00  2.085888431E+01  2.085888431E+01  0.000000000E+00  0.00000E+00  9.000E+00
      21    -1     0     0   511   517  0.000000000E+00  0.000000000E+00 -7.299676910E+00  7.299676910E+00  0.000000000E+00  0.00000E+00  9.000E+00
      21     1     1     2   516   517  3.967558819E+00 -3.845658463E+00 -2.297992674E-01  5.530227816E+00  2.158419182E-07  0.00000E+00  9.000E+00
      21     1     1     2   512   514  3.692441958E+00  8.164024125E+00  8.591849185E+00  1.241391517E+01  2.920019320E-07  0.00000E+00  9.000E+00
      21     1     1     2   511   512 -7.660000777E+00 -4.318365662E+00  5.197157483E+00  1.021441823E+01  2.920019320E-07  0.00000E+00  9.000E+00
</event>
<event>
      5  10001  3.52971E+09  3.67999E+00 -1.00000E+00  2.72296E-01
      21    -1     0     0   511   514  0.000000000E+00  0.000000000E+00  4.524157156E+01  4.524157156E+01  0.000000000E+00  0.00000E+00  9.000E+00
      21    -1     0     0   513   512  0.000000000E+00  0.000000000E+00 -6.530758200E+01  6.530758200E+01  0.000000000E+00  0.00000E+00  9.000E+00
      21     1     1     2   511   512  1.786766098E+01 -1.438177636E+00 -5.670391233E+01  5.946978507E+01  9.536743164E-07  0.00000E+00  9.000E+00
       3     1     1     2   513     0 -1.460410363E+01 -2.614486573E-01  3.677580236E-01  1.461962531E+01  5.000000000E-01  0.00000E+00  9.000E+00
      -3     1     1     2     0   514 -3.263557350E+00  1.699626293E+00  3.627014387E+01  3.645974317E+01  5.000000000E-01  0.00000E+00  9.000E+00
</event>
<event>
      5  10001  3.52971E+09  7.41521E+00 -1.00000E+00  2.12071E-01
      21    -1     0     0   515   512  0.000000000E+00  0.000000000E+00  2.110502031E+00  2.110502031E+00  0.000000000E+00  0.00000E+00  9.000E+00
      21    -1     0     0   514   515  0.000000000E+00  0.000000000E+00 -1.186915169E+02  1.186915169E+02  0.000000000E+00  0.00000E+00  9.000E+00
      21     1     1     2   514   516  6.754305268E+00 -6.951624530E+00 -8.285675263E+01  8.342174285E+01  9.536743164E-07  0.00000E+00  9.000E+00
      21     1     1     2   511   512 -1.040445738E+01  6.743823523E+00 -2.741098791E+01  3.008478265E+01  3.371747881E-07  0.00000E+00  9.000E+00
      21     1     1     2   516   511  3.650152107E+00  2.078010065E-01 -6.313274332E+00  7.295493435E+00  1.884864366E-07  0.00000E+00  9.000E+00
</event>
<event>
      5  10001  3.52971E+09  1.12507E+01 -1.00000E+00  1.90017E-01
       2    -1     0     0   515     0  0.000000000E+00  0.000000000E+00  1.110570390E+01  1.110570390E+01  0.000000000E+00  0.00000E+00  9.000E+00
      21    -1     0     0   513   511  0.000000000E+00  0.000000000E+00 -1.792997720E+01  1.792997720E+01  0.000000000E+00  0.00000E+00  9.000E+00
      21     1     1     2   515   511  8.946943719E+00  7.349837565E+00 -8.504411495E-01  1.160995970E+01  2.308477966E-07  0.00000E+00  9.000E+00
      21     1     1     2   513   512 -6.921382602E+00 -1.768053247E-01 -7.057472166E+00  9.886592467E+00  1.460009660E-07  0.00000E+00  9.000E+00
       2     1     1     2   512     0 -2.025561117E+00 -7.173032241E+00  1.083640009E+00  7.539128931E+00  3.300000131E-01  0.00000E+00  9.000E+00
</event>
<event>
      5  10001  3.52971E+09  3.00663E+01 -1.00000E+00  1.52971E-01
       2    -1     0     0   511     0  0.000000000E+00  0.000000000E+00  3.459516225E+01  3.459516225E+01  0.000000000E+00  0.00000E+00  9.000E+00
      21    -1     0     0   512   514  0.000000000E+00  0.000000000E+00 -8.689706963E+00  8.689706963E+00  0.000000000E+00  0.00000E+00  9.000E+00
      21     1     1     2   511   514 -1.880817834E+00 -1.926852516E+00  4.310484035E+00  5.082372375E+00  3.998401125E-07  0.00000E+00  9.000E+00
      21     1     1     2   512   513  2.537995347E+00 -2.021578438E+00 -7.845151446E+00  8.489676141E+00  2.384185791E-07  0.00000E+00  9.000E+00
       2     1     1     2   513     0 -6.571775135E-01  3.948430954E+00  2.944012270E+01  2.971282069E+01  3.300000131E-01  0.00000E+00  9.000E+00
</event>
<event>
      5  10001  3.52971E+09  7.05184E+00 -1.00000E+00  2.15096E-01
      21    -1     0     0   515   512  0.000000000E+00  0.000000000E+00  2.008496502E+02  2.008496502E+02  0.000000000E+00  0.00000E+00  9.000E+00
      21    -1     0     0   517   516  0.000000000E+00  0.000000000E+00 -1.410408557E+02  1.410408557E+02  0.000000000E+00  0.00000E+00  9.000E+00
      21     1     1     2   515   516 -9.007124635E+00  5.075453487E+00 -1.406280417E+02  1.410075694E+02  0.000000000E+00  0.00000E+00  9.000E+00
      21     1     1     2   517   511  1.195254215E+00 -3.508087823E+00  1.188989364E+02  1.189566829E+02  0.000000000E+00  0.00000E+00  9.000E+00
      21     1     1     2   511   512  7.811870420E+00 -1.567365665E+00  8.153789973E+01  8.192625371E+01  2.132480600E-06  0.00000E+00  9.000E+00
</event>
<event>
      5  10001  3.52971E+09  8.83141E+00 -1.00000E+00  2.02205E-01
      21    -1     0     0   513   516  0.000000000E+00  0.000000000E+00  2.874574297E+01  2.874574297E+01  0.000000000E+00  0.00000E+00  9.000E+00
      21    -1     0     0   512   513  0.000000000E+00  0.000000000E+00 -2.101032109E+01  2.101032109E+01  0.000000000E+00  0.00000E+00  9.000E+00
      21     1     1     2   512   514  1.704234673E+01  2.736444109E+00 -1.300443351E+01  2.161122392E+01  1.685873940E-07  0.00000E+00  9.000E+00
      21     1     1     2   514   515 -6.461034029E+00 -4.997141059E+00  9.806662280E+00  1.276271932E+01  4.129530925E-07  0.00000E+00  9.000E+00
      21     1     1     2   515   516 -1.058131270E+01  2.260696950E+00  1.093319311E+01  1.538212081E+01  3.576278687E-07  0.00000E+00  9.000E+00
</event>
<event>
      5  10001  3.52971E+09  6.88536E+00 -1.00000E+00  2.16567E-01
      21    -1     0     0   511   514  0.000000000E+00  0.000000000E+00  4.509630234E+01  4.509630234E+01  0.000000000E+00  0.00000E+00  9.000E+00
      21    -1     0     0   516   513  0.000000000E+00  0.000000000E+00 -1.009995924E+02  1.009995924E+02  0.000000000E+00  0.00000E+00  9.000E+00
      21     1     1     2   516   512 -1.386542221E+01 -3.559061721E-02 -9.334645532E+01  9.437060941E+01  0.000000000E+00  0.00000E+00  9.000E+00
      21     1     1     2   512   514  1.321135546E+01 -6.818631427E+00  4.125715893E+01  4.385415385E+01  4.768371582E-07  0.00000E+00  9.000E+00
      21     1     1     2   511   513  6.540667527E-01  6.854222045E+00 -3.813993671E+00  7.871131487E+00  5.960464478E-08  0.00000E+00  9.000E+00
</event>
<event>
      5  10001  3.52971E+09  3.39348E+00 -1.00000E+00  2.81508E-01
      21    -1     0     0   515   512  0.000000000E+00  0.000000000E+00  8.362474788E+02  8.362474788E+02  0.000000000E+00  0.00000E+00  9.000E+00
      21    -1     0     0   517   515  0.000000000E+00  0.000000000E+00 -6.101434335E-01  6.101434335E-01  0.000000000E+00  0.00000E+00  9.000E+00
      21     1     1     2   517   513 -1.053920822E+01  8.675286556E+00  8.583835821E+01  8.691696754E+01  3.015782986E-06  0.00000E+00  9.000E+00
      21     1     1     2   514   512  5.884319924E+00 -5.072626347E+00  5.503712071E+02  5.504260371E+02  1.078959322E-05  0.00000E+00  9.000E+00
      21     1     1     2   513   514  4.654888298E+00 -3.602660209E+00  1.994277700E+02  1.995146175E+02  3.814697266E-06  0.00000E+00  9.000E+00
</event>
<event>
      5  10001 -3.52971E+09  8.34392E+00 -1.00000E+00  2.05304E-01
      21    -1     0     0   511   512  0.000000000E+00  0.000000000E+00  9.279642046E+00  9.279642046E+00  0.000000000E+00  0.00000E+00  9.000E+00
      21    -1     0     0   516   511  0.000000000E+00  0.000000000E+00 -1.112467083E+03  1.112467083E+03  0.000000000E+00  0.00000E+00  9.000E+00
      21     1     1     2   514   512  5.168449143E+00 -9.274569834E+00  6.130614209E+00  1.226029946E+01  1.385086779E-06  0.00000E+00  9.000E+00
      21     1     1     2   516   515  2.409972934E+00  7.723954832E+00 -8.814041915E+02  8.814413289E+02  1.078959322E-05  0.00000E+00  9.000E+00
      21     1     1     2   515   514 -7.578422077E+00  1.550615003E+00 -2.279138634E+02  2.280450964E+02  4.672030912E-06  0.00000E+00  9.000E+00
</event>
<event>
      5  10001  3.52971E+09  6.08934E+00 -1.00000E+00  2.24473E-01
      21    -1     0     0   513   514  0.000000000E+00  0.000000000E+00  2.048797083E+00  2.048797083E+00  0.000000000E+00  0.00000E+00  9.000E+00
      21    -1     0     0   514   511  0.000000000E+00  0.000000000E+00 -2.833097273E+02  2.833097273E+02  0.000000000E+00  0.00000E+00  9.000E+00
      21     1     1     2   512   511 -1.172727082E+01  6.947497679E+00 -2.335849659E+02  2.339823346E+02  3.814697266E-06  0.00000E+00  9.000E+00
       3     1     1     2   513     0  8.071048734E+00 -7.999962008E+00 -1.695959512E+01  2.042104518E+01  5.000000000E-01  0.00000E+00  9.000E+00
      -3     1     1     2     0   512  3.656222089E+00  1.052464329E+00 -3.071636922E+01  3.095514463E+01  5.000000000E-01  0.00000E+00  9.000E+00
</event>
<event>
      5  10001  3.52971E+09  1.22457E+01 -1.00000E+00  1.86103E-01
      21    -1     0     0   515   511  0.000000000E+00  0.000000000E+00  1.975317159E+01  1.975317159E+01  0.000000000E+00  0.00000E+00  9.000E+00
      21    -1     0     0   514   512  0.000000000E+00  0.000000000E+00 -7.181252794E+00  7.181252794E+00  0.000000000E+00  0.00000E+00  9.000E+00
      21     1     1     2   515   512  7.653709152E-01  9.541611999E+00  4.918611559E-01  9.584888084E+00  7.937578765E-08  0.00000E+00  9.000E+00
      21     1     1     2   513   511  1.359212415E-01 -3.218295404E+00 -4.818931610E-01  3.257011039E+00  8.144680824E-08  0.00000E+00  9.000E+00
      21     1     1     2   514   513 -9.012921567E-01 -6.323316596E+00  1.256195080E+01  1.409252526E+01  1.685873940E-07  0.00000E+00  9.000E+00
</event>
<event>
      5  10001  3.52971E+09  7.00894E+00 -1.00000E+00  2.15470E-01
      21    -1     0     0   516   512  0.000000000E+00  0.000000000E+00  3.136667927E+02  3.136667927E+02  0.000000000E+00  0.00000E+00  9.000E+00
      21    -1     0     0   514   517  0.000000000E+00  0.000000000E+00 -3.461897100E+01  3.461897100E+01  0.000000000E+00  0.00000E+00  9.000E+00
      21     1     1     2   516   517 -1.019292549E+01 -1.511318077E+00  3.086596212E+02  3.088315748E+02  3.814697266E-06  0.00000E+00  9.000E+00
      21     1     1     2   511   512  5.243342031E+00  5.531681642E+00 -3.180916189E+01  3.270955391E+01  1.215700987E-06  0.00000E+00  9.000E+00
      21     1     1     2   514   511  4.949583464E+00 -4.020363565E+00  2.197362349E+00  6.744634975E+00  7.300048300E-08  0.00000E+00  9.000E+00
</event>
<event>
      5  10001  3.52971E+09  4.32167E+00 -1.00000E+00  2.55790E-01
      21    -1     0     0   513   511  0.000000000E+00  0.000000000E+00  1.251013897E+02  1.251013897E+02  0.000000000E+00  0.00000E+00  9.000E+00
      21    -1     0     0   514   515  0.000000000E+00  0.000000000E+00 -2.443128288E+00  2.443128288E+00  0.000000000E+00  0.00000E+00  9.000E+00
      21     1     1     2   513   515 -9.547125573E+00 -1.812215541E+00  1.063091667E+02  1.067523801E+02  1.907348633E-06  0.00000E+00  9.000E+00
      21     1     1     2   514   512  6.323290018E+00 -3.236362196E-01  3.215983002E+00  7.101498696E+00  2.763753681E-07  0.00000E+00  9.000E+00
      21     1     1     2   512   511  3.223835555E+00  2.135851760E+00  1.313311171E+01  1.369063920E+01  1.685873940E-07  0.00000E+00  9.000E+00
</event>
<event>
      5  10001  3.52971E+09  7.40917E+00 -1.00000E+00  2.12119E-01
      21    -1     0     0   516   514  0.000000000E+00  0.000000000E+00  4.277213179E+02  4.277213179E+02  0.000000000E+00  0.00000E+00  9.000E+00
      21    -1     0     0   517   511  0.000000000E+00  0.000000000E+00 -1.708203684E+02  1.708203684E+02  0.000000000E+00  0.00000E+00  9.000E+00
      21     1     1     2   516   511 -1.062102553E+01  2.794976640E+00  4.274224205E+02  4.275634966E+02  0.000000000E+00  0.00000E+00  9.000E+00
      21     1     1     2   513   514  6.841039323E+00 -2.199576627E+00 -6.665095794E+01  6.703721467E+01  1.907348633E-06  0.00000E+00  9.000E+00
      21     1     1     2   517   513  3.779986203E+00 -5.954000137E-01 -1.038705131E+02  1.039409750E+02  3.568322551E-06  0.00000E+00  9.000E+00
</event>
<event>
      5  10001  3.52971E+09  4.24717E+00 -1.00000E+00  2.57474E-01
       1    -1     0     0   511     0  0.000000000E+00  0.000000000E+00  9.584373661E+02  9.584373661E+02  0.000000000E+00  0.00000E+00  9.000E+00
      21    -1     0     0   512   514  0.000000000E+00  0.000000000E+00 -1.058464176E+02  1.058464176E+02  0.000000000E+00  0.00000E+00  9.000E+00
      21     1     1     2   511   513 -3.606672479E+00 -2.918099068E+01  1.085245401E+02  1.124371563E+02  2.697398305E-06  0.00000E+00  9.000E+00
       1     1     1     2   512     0  4.425450771E-01  2.634784070E+01  8.477082532E+02  8.481177961E+02  3.300000131E-01  0.00000E+00  9.000E+00
      21     1     1     2   513   514  3.164127402E+00  2.833149988E+00 -1.036418449E+02  1.037288313E+02  5.560829062E-06  0.00000E+00  9.000E+00
</event>
<event>
      5  10001  3.52971E+09  1.22110E+01 -1.00000E+00  1.86231E-01
      21    -1     0     0   515   512  0.000000000E+00  0.000000000E+00  7.530368499E+00  7.530368499E+00  0.000000000E+00  0.00000E+00  9.000E+00
      21    -1     0     0   513   516  0.000000000E+00  0.000000000E+00 -8.575465308E+01  8.575465308E+01  0.000000000E+00  0.00000E+00  9.000E+00
      21     1     1     2   515   516  3.934016413E+00 -1.438129870E+01 -7.416955803E+01  7.565329852E+01  0.000000000E+00  0.00000E+00  9.000E+00
      21     1     1     2   511   512 -4.833283543E+00  5.207854992E+00 -4.488498747E+00  8.404106402E+00  1.460009660E-07  0.00000E+00  9.000E+00
      21     1     1     2   513   511  8.992671301E-01  9.173443713E+00  4.337721988E-01  9.227616661E+00  1.565508648E-07  0.00000E+00  9.000E+00
</event>
<event>
      5  10001  3.52971E+09  3.24109E+00 -1.00000E+00  2.87030E-01
      21    -1     0     0   514   513  0.000000000E+00  0.000000000E+00  5.372648062E+01  5.372648062E+01  0.000000000E+00  0.00000E+00  9.000E+00
      -4    -1     0     0     0   514  0.000000000E+00  0.000000000E+00 -7.018496530E+00  7.018496530E+00  0.000000000E+00  0.00000E+00  9.000E+00
      -4     1     1     2     0   512 -8.962017134E+00 -5.330173719E+00 -1.779333216E+00  1.068384433E+01  1.500000000E+00  0.00000E+00  9.000E+00
      21     1     1     2   515   513  5.568622150E+00  5.658796029E+00  4.188227236E+01  4.262811588E+01  8.259061849E-07  0.00000E+00  9.000E+00
      21     1     1     2   512   515  3.393394985E+00 -3.286223095E-01  6.605044945E+00  7.433016943E+00  1.460009660E-07  0.00000E+00  9.000E+00
</event>
<event>
      5  10001  3.52971E+09  3.35743E+00 -1.00000E+00  2.82771E-01
      21    -1     0     0   511   512  0.000000000E+00  0.000000000E+00  4.814221315E+01  4.814221315E+01  0.000000000E+00  0.00000E+00  9.000E+00
      21    -1     0     0   516   511  0.000000000E+00  0.000000000E+00 -4.400712324E+00  4.400712324E+00  0.000000000E+00  0.00000E+00  9.000E+00
      21     1     1     2   516   517 -8.032592692E+00  5.582951447E+00  3.191721116E+00  1.028975101E+01  2.889442359E-07  0.00000E+00  9.000E+00
      21     1     1     2   513   512  5.152204022E+00 -4.666095266E+00  3.673041332E+01  3.738236100E+01  6.743495762E-07  0.00000E+00  9.000E+00
      21     1     1     2   517   513  2.880388671E+00 -9.168561814E-01  3.819366388E+00  4.870813459E+00  7.300048300E-08  0.00000E+00  9.000E+00
</event>
<event>
      5  10001  3.52971E+09  5.61613E+00 -1.00000E+00  2.30019E-01
      21    -1     0     0   514   513  0.000000000E+00  0.000000000E+00  8.342409049E+00  8.342409049E+00  0.000000000E+00  0.00000E+00  9.000E+00
      21    -1     0     0   511   514  0.000000000E+00  0.000000000E+00 -6.302830322E+01  6.302830322E+01  0.000000000E+00  0.00000E+00  9.000E+00
      21     1     1     2   515   516 -9.050938939E+00  8.333275228E+00 -3.961464777E+01  4.148111968E+01  6.743495762E-07  0.00000E+00  9.000E+00
      21     1     1     2   516   513  1.127127721E+01 -1.349186184E+01 -4.866592911E+00  1.824159402E+01  6.279738994E-07  0.00000E+00  9.000E+00
      21     1     1     2   511   515 -2.220338271E+00  5.158586611E+00 -1.020465348E+01  1.164799857E+01  0.000000000E+00  0.00000E+00  9.000E+00
</event>
<event>
      5  10001  3.52971E+09  1.37388E+01 -1.00000E+00  1.81050E-01
      21    -1     0     0   512   516  0.000000000E+00  0.000000000E+00  2.186297993E+01  2.186297993E+01  0.000000000E+00  0.00000E+00  9.000E+00
      21    -1     0     0   511   515  0.000000000E+00  0.000000000E+00 -3.630240710E+01  3.630240710E+01  0.000000000E+00  0.00000E+00  9.000E+00
      21     1     1     2   512   515  1.961986994E+01  4.827262337E+00  1.099158681E+01  2.300123342E+01  3.576278687E-07  0.00000E+00  9.000E+00
      21     1     1     2   513   516 -1.410112967E+01 -1.412348045E+00 -7.372070311E+00  1.597447982E+01  3.769728732E-07  0.00000E+00  9.000E+00
      21     1     1     2   511   513 -5.518740268E+00 -3.414914293E+00 -1.805894367E+01  1.918967379E+01  2.384185791E-07  0.00000E+00  9.000E+00
</event>
<event>
      5  10001  3.52971E+09  5.57268E+00 -1.00000E+00  2.30567E-01
      -3    -1     0     0     0   514  0.000000000E+00  0.000000000E+00  5.858703650E+00  5.858703650E+00  0.000000000E+00  0.00000E+00  9.000E+00
      21    -1     0     0   514   512  0.000000000E+00  0.000000000E+00 -2.974615647E+01  2.974615647E+01  0.000000000E+00  0.00000E+00  9.000E+00
      -3     1     1     2     0   511 -9.396778894E+00  4.287777530E+00 -2.404809672E+00  1.061685449E+01  5.000000000E-01  0.00000E+00  9.000E+00
      21     1     1     2   511   515  5.635949613E+00 -6.294019952E+00 -1.318549362E+01  1.566000821E+01  1.685873940E-07  0.00000E+00  9.000E+00
      21     1     1     2   515   512  3.760829281E+00  2.006242421E+00 -8.297149536E+00  9.327997425E+00  0.000000000E+00  0.00000E+00  9.000E+00
</event>
<event>
      5  10001  3.52971E+09  6.74146E+00 -1.00000E+00  2.17884E-01
      21    -1     0     0   516   514  0.000000000E+00  0.000000000E+00  1.292329071E+01  1.292329071E+01  0.000000000E+00  0.00000E+00  9.000E+00
       2    -1     0     0   511     0  0.000000000E+00  0.000000000E+00 -4.673016886E+02  4.673016886E+02  0.000000000E+00  0.00000E+00  9.000E+00
      21     1     1     2   511   514 -2.238622854E+01 -1.424249442E+01 -1.561507038E+02  1.583888701E+02  1.907348633E-06  0.00000E+00  9.000E+00
       2     1     1     2   513     0  2.900833432E+01  1.297979555E+01 -3.081805872E+02  3.098150122E+02  3.300000131E-01  0.00000E+00  9.000E+00
      21     1     1     2   516   513 -6.622105783E+00  1.262698865E+00  9.952893085E+00  1.202109705E+01  7.539457465E-07  0.00000E+00  9.000E+00
</event>
<event>
      5  10001  3.52971E+09  5.55195E+00 -1.00000E+00  2.30831E-01
      21    -1     0     0   512   513  0.000000000E+00  0.000000000E+00  5.822304026E+00  5.822304026E+00  0.000000000E+00  0.00000E+00  9.000E+00
      21    -1     0     0   513   515  0.000000000E+00  0.000000000E+00 -2.808934504E+01  2.808934504E+01  0.000000000E+00  0.00000E+00  9.000E+00
      -5     1     1     2     0   511 -4.089883422E+00 -2.130838673E+00 -4.900873615E+00  8.265965393E+00  4.800000191E+00  0.00000E+00  9.000E+00
       5     1     1     2   512     0  8.952351976E+00  2.648231564E+00 -1.787482861E+01  2.072938099E+01  4.800000191E+00  0.00000E+00  9.000E+00
      21     1     1     2   511   515 -4.862468554E+00 -5.173928904E-01  5.086612159E-01  4.916302684E+00  1.491977602E-07  0.00000E+00  9.000E+00
</event>
<event>
      5  10001  3.52971E+09  8.10300E+00 -1.00000E+00  2.06942E-01
      21    -1     0     0   514   511  0.000000000E+00  0.000000000E+00  5.237842783E+00  5.237842783E+00  0.000000000E+00  0.00000E+00  9.000E+00
      21    -1     0     0   513   512  0.000000000E+00  0.000000000E+00 -2.967092053E+02  2.967092053E+02  0.000000000E+00  0.00000E+00  9.000E+00
      21     1     1     2   513   515  1.302960959E+01 -5.934164639E+00 -2.187745118E+02  2.192424960E+02  3.814697266E-06  0.00000E+00  9.000E+00
      21     1     1     2   515   511 -7.350826979E+00  1.171430566E+01 -5.281294264E+00  1.480377261E+01  4.878850443E-07  0.00000E+00  9.000E+00
      21     1     1     2   514   512 -5.678782616E+00 -5.780141021E+00 -6.741555649E+01  6.790077952E+01  0.000000000E+00  0.00000E+00  9.000E+00
</event>
<event>
      5  10001  3.52971E+09  7.57356E+00 -1.00000E+00  2.10825E-01
      21    -1     0     0   516   512  0.000000000E+00  0.000000000E+00  3.851979585E+00  3.851979585E+00  0.000000000E+00  0.00000E+00  9.000E+00
      21    -1     0     0   513   517  0.000000000E+00  0.000000000E+00 -4.871491337E+02  4.871491337E+02  0.000000000E+00  0.00000E+00  9.000E+00
      21     1     1     2   516   517 -1.033958558E+01 -5.380114134E+00 -4.652457763E+02  4.653917544E+02  5.394796609E-06  0.00000E+00  9.000E+00
      21     1     1     2   513   511  4.423602539E+00  3.866992265E-01  1.414668046E+00  4.660373525E+00  7.399743210E-07  0.00000E+00  9.000E+00
      21     1     1     2   511   512  5.915983042E+00  4.993414908E+00 -1.946604580E+01  2.094898534E+01  4.129530925E-07  0.00000E+00  9.000E+00
</event>
<event>
      5  10001  3.52971E+09  5.63554E+00 -1.00000E+00  2.29777E-01
       1    -1     0     0   513     0  0.000000000E+00  0.000000000E+00  2.050001854E+01  2.050001854E+01  0.000000000E+00  0.00000E+00  9.000E+00
      21    -1     0     0   511   514  0.000000000E+00  0.000000000E+00 -1.207367010E+01  1.207367010E+01  0.000000000E+00  0.00000E+00  9.000E+00
      21     1     1     2   515   514  6.379297286E+00  5.591976950E+00  5.354518725E-01  8.500138162E+00  2.218972536E-07  0.00000E+00  9.000E+00
       1     1     1     2   511     0 -1.389094308E+01 -5.220045636E+00  7.268019233E+00  1.652695313E+01  3.300000131E-01  0.00000E+00  9.000E+00
      21     1     1     2   513   515  7.511645792E+00 -3.719313133E-01  6.228773319E-01  7.546597351E+00  1.336958889E-07  0.00000E+00  9.000E+00
</event>
<event>
      5  10001  3.52971E+09  5.90184E+00 -1.00000E+00  2.26584E-01
      21    -1     0     0   512   511  0.000000000E+00  0.000000000E+00  2.218691526E+01  2.218691526E+01  0.000000000E+00  0.00000E+00  9.000E+00
      21    -1     0     0   516   512  0.000000000E+00  0.000000000E+00 -1.604976126E+02  1.604976126E+02  0.000000000E+00  0.00000E+00  9.000E+00
      21     1     1     2   516   515 -2.133139675E+01  5.421205038E+00 -1.537654602E+02  1.553326582E+02  2.697398305E-06  0.00000E+00  9.000E+00
      21     1     1     2   514   511  8.477341991E+00 -4.678776297E+00  6.255160679E+00  1.152750233E+01  3.039252468E-07  0.00000E+00  9.000E+00
      21     1     1     2   515   514  1.285405475E+01 -7.424287419E-01  9.199602125E+00  1.582436739E+01  4.460403188E-07  0.00000E+00  9.000E+00
</event>
<event>
      5  10001  3.52971E+09  7.96181E+00 -1.00000E+00  2.07937E-01
      21    -1     0     0   513   514  0.000000000E+00  0.000000000E+00  6.185086239E+01  6.185086239E+01  0.000000000E+00  0.00000E+00  9.000E+00
      21    -1     0     0   515   517  0.000000000E+00  0.000000000E+00 -7.610989075E+01  7.610989075E+01  0.000000000E+00  0.00000E+00  9.000E+00
      21     1     1     2   513   517 -6.224329873E+00  8.344056450E+00  5.907992774E+01  5.999002769E+01  0.000000000E+00  0.00000E+00  9.000E+00
      21     1     1     2   511   514  1.215912592E+01 -8.063183152E+00 -6.922078250E+01  7.074161431E+01  1.348699152E-06  0.00000E+00  9.000E+00
      21     1     1     2   515   511 -5.934796044E+00 -2.808732974E-01 -4.118173610E+00  7.229111133E+00  0.000000000E+00  0.00000E+00  9.000E+00
</event>
<event>
      5  10001  3.52971E+09  9.47740E+00 -1.00000E+00  1.98486E-01
      21    -1     0     0   512   513  0.000000000E+00  0.000000000E+00  8.250925395E+01  8.250925395E+01  0.000000000E+00  0.00000E+00  9.000E+00
      21    -1     0     0   515   516  0.000000000E+00  0.000000000E+00 -2.992881786E+02  2.992881786E+02  0.000000000E+00  0.00000E+00  9.000E+00
      21     1     1     2   512   516 -5.520284729E+00 -1.825546559E+01 -2.890526077E+02  2.896811102E+02  3.814697266E-06  0.00000E+00  9.000E+00
      21     1     1     2   515   511  1.320741833E+01  1.271208437E+01 -8.790002187E-01  1.835226497E+01  1.157312860E-06  0.00000E+00  9.000E+00
      21     1     1     2   511   513 -7.687133603E+00  5.543381217E+00  7.315268326E+01  7.376405742E+01  0.000000000E+00  0.00000E+00  9.000E+00
</event>
<event>
      5  10001  3.52971E+09  1.59732E+01 -1.00000E+00  1.74846E-01
       2    -1     0     0   512     0  0.000000000E+00  0.000000000E+00  3.511634100E+01  3.511634100E+01  0.000000000E+00  0.00000E+00  9.000E+00
      21    -1     0     0   514   512  0.000000000E+00  0.000000000E+00 -3.816342269E+00  3.816342269E+00  0.000000000E+00  0.00000E+00  9.000E+00
      21     1     1     2   514   511 -5.013999348E+00 -6.673746617E+00  4.901345704E+00  9.679993444E+00  1.685873940E-07  0.00000E+00  9.000E+00
      21     1     1     2   511   515  3.283839295E-01  2.136642235E+00  1.094763761E-01  2.164500202E+00  9.170572180E-08  0.00000E+00  9.000E+00
       2     1     1     2   515     0  4.685615419E+00  4.537104382E+00  2.628917665E+01  2.708818962E+01  3.300000131E-01  0.00000E+00  9.000E+00
</event>
<event>
      5  10001  3.52971E+09  1.40149E+01 -1.00000E+00  1.80205E-01
      21    -1     0     0   513   515  0.000000000E+00  0.000000000E+00  3.199225227E+01  3.199225227E+01  0.000000000E+00  0.00000E+00  9.000E+00
      21    -1     0     0   515   512  0.000000000E+00  0.000000000E+00 -4.748540656E+00  4.748540656E+00  0.000000000E+00  0.00000E+00  9.000E+00
      -2     1     1     2     0   512  6.549736481E+00  3.438832674E+00  4.524912173E+00  8.678038275E+00  3.300000131E-01  0.00000E+00  9.000E+00
       2     1     1     2   511     0 -4.656504843E-01 -8.495910996E+00  1.283282678E+01  1.540089859E+01  3.300000131E-01  0.00000E+00  9.000E+00
      21     1     1     2   513   511 -6.084085996E+00  5.057078322E+00  9.885972655E+00  1.266185606E+01  2.064765462E-07  0.00000E+00  9.000E+00
</event>
<event>
      5  10001  3.52971E+09  9.61370E+00 -1.00000E+00  1.97751E-01
       2    -1     0     0   512     0  0.000000000E+00  0.000000000E+00  1.181242766E+02  1.181242766E+02  0.000000000E+00  0.00000E+00  9.000E+00
      21    -1     0     0   513   511  0.000000000E+00  0.000000000E+00 -1.501282345E+00  1.501282345E+00  0.000000000E+00  0.00000E+00  9.000E+00
      21     1     1     2   512   511 -1.183043475E+01 -4.899460244E-01  4.406485046E+01  4.562795502E+01  4.768371582E-07  0.00000E+00  9.000E+00
      21     1     1     2   513   514  4.064438809E+00  1.177475752E+00  4.896441913E+01  4.914692720E+01  1.168007728E-06  0.00000E+00  9.000E+00
       2     1     1     2   514     0  7.765995942E+00 -6.875297276E-01  2.359372462E+01  2.485067668E+01  3.300000131E-01  0.00000E+00  9.000E+00
</event>
<event>
      5  10001  3.52971E+09  9.75469E+00 -1.00000E+00  1.97008E-01
      21    -1     0     0   515   511  0.000000000E+00  0.000000000E+00  3.761915362E+01  3.761915362E+01  0.000000000E+00  0.00000E+00  9.000E+00
      21    -1     0     0   517   516  0.000000000E+00  0.000000000E+00 -3.054008755E+02  3.054008755E+02  0.000000000E+00  0.00000E+00  9.000E+00
      21     1     1     2   515   516 -1.019688969E+01 -1.040375331E+01 -2.980458856E+02  2.984016833E+02  3.814697266E-06  0.00000E+00  9.000E+00
      21     1     1     2   512   511  4.415942981E+00  3.430152270E+00  3.426335884E+01  3.471662794E+01  3.090257978E-06  0.00000E+00  9.000E+00
      21     1     1     2   517   512  5.780946707E+00  6.973601040E+00 -3.999195113E+00  9.901717924E+00  1.931411236E-07  0.00000E+00  9.000E+00
</event>
<event>
      5  10001  3.52971E+09  8.34168E+00 -1.00000E+00  2.05319E-01
      21    -1     0     0   513   512  0.000000000E+00  0.000000000E+00  5.315469656E+02  5.315469656E+02  0.000000000E+00  0.00000E+00  9.000E+00
      21    -1     0     0   514   513  0.000000000E+00  0.000000000E+00 -7.774374634E-01  7.774374634E-01  0.000000000E+00  0.00000E+00  9.000E+00
      21     1     1     2   514   517  6.201984597E+00  1.030157812E+01  5.531804113E+01  5.660982953E+01  6.743495762E-07  0.00000E+00  9.000E+00
      21     1     1     2   517   511 -2.749992685E-01 -4.640987257E+00  3.297404082E+02  3.297731814E+02  0.000000000E+00  0.00000E+00  9.000E+00
      21     1     1     2   511   512 -5.926985329E+00 -5.660590865E+00  1.457110787E+02  1.459413920E+02  0.000000000E+00  0.00000E+00  9.000E+00
</event>
<event>
      5  10001  3.52971E+09  2.97382E+00 -1.00000E+00  2.98017E-01
      21    -1     0     0   515   516  0.000000000E+00  0.000000000E+00  2.905885760E+01  2.905885760E+01  0.000000000E+00  0.00000E+00  9.000E+00
      21    -1     0     0   514   512  0.000000000E+00  0.000000000E+00 -4.255383936E+00  4.255383936E+00  0.000000000E+00  0.00000E+00  9.000E+00
      21     1     1     2   515   512 -7.296201703E+00 -8.313126738E+00  1.194096207E+01  1.627664618E+01  2.920019320E-07  0.00000E+00  9.000E+00
      21     1     1     2   513   516  1.711796116E+00  1.669760840E+00  1.891696222E+00  3.049075566E+00  3.650024150E-08  0.00000E+00  9.000E+00
      21     1     1     2   514   513  5.584405587E+00  6.643365898E+00  1.097081537E+01  1.398851979E+01  0.000000000E+00  0.00000E+00  9.000E+00
</event>
<event>
      5  10001  3.52971E+09  2.26122E+01 -1.00000E+00  1.62084E-01
      21    -1     0     0   513   514  0.000000000E+00  0.000000000E+00  3.931210113E+00  3.931210113E+00  0.000000000E+00  0.00000E+00  9.000E+00
      21    -1     0     0   511   513  0.000000000E+00  0.000000000E+00 -3.525711594E+02  3.525711594E+02  0.000000000E+00  0.00000E+00  9.000E+00
      -1     1     1     2     0   514 -1.666254378E+00  1.400403383E+01 -1.257071604E+01  1.889500381E+01  3.300000131E-01  0.00000E+00  9.000E+00
       1     1     1     2   512     0 -1.153597999E+01 -6.013462511E+00 -2.356729379E+02  2.360319536E+02  3.300000131E-01  0.00000E+00  9.000E+00
      21     1     1     2   511   512  1.320223437E+01 -7.990571323E+00 -1.003962953E+02  1.015754121E+02  1.348699152E-06  0.00000E+00  9.000E+00
</event>
<event>
      5  10001  3.52971E+09  6.92896E+00 -1.00000E+00  2.16176E-01
      21    -1     0     0   512   514  0.000000000E+00  0.000000000E+00  9.745456312E-01  9.745456312E-01  0.000000000E+00  0.00000E+00  9.000E+00
       2    -1     0     0   514     0  0.000000000E+00  0.000000000E+00 -2.772444452E+02  2.772444452E+02  0.000000000E+00  0.00000E+00  9.000E+00
      21     1     1     2   512   511 -9.165414117E+00  9.388600159E+00 -6.308677318E+01  6.443672539E+01  1.784161275E-06  0.00000E+00  9.000E+00
       2     1     1     2   513     0  2.956756895E+00 -9.149011792E+00 -1.438184717E+02  1.441398923E+02  3.300000131E-01  0.00000E+00  9.000E+00
      21     1     1     2   511   513  6.208657222E+00 -2.395883664E-01 -6.936465463E+01  6.964237316E+01  9.536743164E-07  0.00000E+00  9.000E+00
</event>
<event>
      5  10001  3.52971E+09  7.62147E+00 -1.00000E+00  2.10456E-01
      21    -1     0     0   512   514  0.000000000E+00  0.000000000E+00  2.243383228E+01  2.243383228E+01  0.000000000E+00  0.00000E+00  9.000E+00
      21    -1     0     0   515   513  0.000000000E+00  0.000000000E+00 -2.227546280E+01  2.227546280E+01  0.000000000E+00  0.00000E+00  9.000E+00
      -1     1     1     2     0   514  8.261908902E+00  5.995889095E+00  5.889428282E+00  1.178999959E+01  3.300000131E-01  0.00000E+00  9.000E+00
       1     1     1     2   515     0 -1.311615238E+01 -1.186995964E+01 -1.333406751E+01  2.215481102E+01  3.300000131E-01  0.00000E+00  9.000E+00
      21     1     1     2   512   513  4.854243481E+00  5.874070546E+00  7.603008711E+00  1.076448447E+01  1.460009660E-07  0.00000E+00  9.000E+00
</event>
<event>
      5  10001  3.52971E+09  1.38050E+01 -1.00000E+00  1.80845E-01
      -1    -1     0     0     0   511  0.000000000E+00  0.000000000E+00  1.298347171E+02  1.298347171E+02  0.000000000E+00  0.00000E+00  9.000E+00
      21    -1     0     0   512   513  0.000000000E+00  0.000000000E+00 -1.280216482E+00  1.280216482E+00  0.000000000E+00  0.00000E+00  9.000E+00
      -1     1     1     2     0   514 -3.874318276E+00 -5.443537783E+00  9.062041124E+01  9.086699224E+01  3.300000131E-01  0.00000E+00  9.000E+00
      21     1     1     2   512   511  7.422392708E+00  1.433078126E+00  2.749978199E+01  2.851988141E+01  5.840038640E-07  0.00000E+00  9.000E+00
      21     1     1     2   514   513 -3.548074432E+00  4.010459658E+00  1.043430735E+01  1.172805989E+01  2.920019320E-07  0.00000E+00  9.000E+00
</event>
<event>
      5  10001  3.52971E+09  1.64373E+01 -1.00000E+00  1.73716E-01
      21    -1     0     0   515   511  0.000000000E+00  0.000000000E+00  1.449903718E+02  1.449903718E+02  0.000000000E+00  0.00000E+00  9.000E+00
       5    -1     0     0   512     0  0.000000000E+00  0.000000000E+00 -1.188939529E+00  1.188939529E+00  0.000000000E+00  0.00000E+00  9.000E+00
      21     1     1     2   512   511 -3.182382841E+00 -2.338396262E+00  4.371028648E+01  4.388832193E+01  8.259061849E-07  0.00000E+00  9.000E+00
       5     1     1     2   516     0  5.191841003E+00  9.189912392E+00  3.643300049E+01  3.823366618E+01  4.800000191E+00  0.00000E+00  9.000E+00
      21     1     1     2   515   516 -2.009458162E+00 -6.851516130E+00  6.365814531E+01  6.405732323E+01  9.536743164E-07  0.00000E+00  9.000E+00
</event>
<event>
      5  10001  3.52971E+09  4.07990E+00 -1.00000E+00  2.61454E-01
       2    -1     0     0   511     0  0.000000000E+00  0.000000000E+00  8.485925937E+02  8.485925937E+02  0.000000000E+00  0.00000E+00  9.000E+00
      -1    -1     0     0     0   513  0.000000000E+00  0.000000000E+00 -2.988053928E-01  2.988053928E-01  0.000000000E+00  0.00000E+00  9.000E+00
      -1     1     1     2     0   512  4.384719839E+00  1.193905895E+01  1.792198124E+02  1.796708572E+02  3.300000131E-01  0.00000E+00  9.000E+00
       2     1     1     2   512     0 -8.726866519E-01 -9.864771793E+00  4.888875287E+02  4.889879343E+02  3.300000131E-01  0.00000E+00  9.000E+00
      21     1     1     2   511   513 -3.512033187E+00 -2.074287156E+00  1.801864472E+02  1.802326075E+02  4.264961200E-06  0.00000E+00  9.000E+00
</event>
<event>
      5  10001  3.52971E+09  1.07343E+01 -1.00000E+00  1.92261E-01
      21    -1     0     0   514   516  0.000000000E+00  0.000000000E+00  6.682525992E+01  6.682525992E+01  0.000000000E+00  0.00000E+00  9.000E+00
      21    -1     0     0   515   514  0.000000000E+00  0.000000000E+00 -4.803116116E+00  4.803116116E+00  0.000000000E+00  0.00000E+00  9.000E+00
      21     1     1     2   513   516 -1.731642248E+01  9.907544561E-01  3.545152005E+01  3.946707939E+01  6.743495762E-07  0.00000E+00  9.000E+00
      21     1     1     2   512   513  2.558008888E+00 -3.649338236E-01  1.305984227E+00  2.895199642E+00  7.146345859E-08  0.00000E+00  9.000E+00
      21     1     1     2   515   512  1.475841359E+01 -6.258206325E-01  2.526463953E+01  2.926609701E+01  3.371747881E-07  0.00000E+00  9.000E+00
</event>
<event>
      5  10001  3.52971E+09  4.05183E+00 -1.00000E+00  2.62151E-01
      21    -1     0     0   511   512  0.000000000E+00  0.000000000E+00  1.542572438E+02  1.542572438E+02  0.000000000E+00  0.00000E+00  9.000E+00
      21    -1     0     0   515   517  0.000000000E+00  0.000000000E+00 -1.492394424E+00  1.492394424E+00  0.000000000E+00  0.00000E+00  9.000E+00
      21     1     1     2   511   517 -9.337438004E+00  7.081353617E+00  2.775042037E+01  3.012339868E+01  4.768371582E-07  0.00000E+00  9.000E+00
      21     1     1     2   513   512  4.270711312E+00 -5.206545981E+00  5.669022792E+01  5.708878207E+01  9.536743164E-07  0.00000E+00  9.000E+00
      21     1     1     2   515   513  5.066726693E+00 -1.874807636E+00  6.832420108E+01  6.853745747E+01  9.536743164E-07  0.00000E+00  9.000E+00
</event>
<event>
      5  10001  3.52971E+09  1.43342E+01 -1.00000E+00  1.79258E-01
      21    -1     0     0   514   511  0.000000000E+00  0.000000000E+00  1.373074339E+02  1.373074339E+02  0.000000000E+00  0.00000E+00  9.000E+00
      21    -1     0     0   515   516  0.000000000E+00  0.000000000E+00 -2.292647914E+01  2.292647914E+01  0.000000000E+00  0.00000E+00  9.000E+00
      21     1     1     2   514   516  1.682930402E+01  4.372869810E+00  1.041794799E+02  1.056206017E+02  0.000000000E+00  0.00000E+00  9.000E+00
      21     1     1     2   515   513 -1.562904349E+01  9.911004649E+00 -1.618446635E+01  2.458519808E+01  7.539457465E-07  0.00000E+00  9.000E+00
      21     1     1     2   513   511 -1.200260531E+00 -1.428387446E+01  2.638594121E+01  3.002811330E+01  3.371747881E-07  0.00000E+00  9.000E+00
</event>
<event>
      5  10001  3.52971E+09  1.49720E+01 -1.00000E+00  1.77456E-01
       2    -1     0     0   512     0  0.000000000E+00  0.000000000E+00  2.891961535E+00  2.891961535E+00  0.000000000E+00  0.00000E+00  9.000E+00
       2    -1     0     0   511     0  0.000000000E+00  0.000000000E+00 -3.330600740E+02  3.330600740E+02  0.000000000E+00  0.00000E+00  9.000E+00
       2     1     1     2   512     0 -1.074535642E+01  4.785146977E+00 -3.041950980E+02  3.044226123E+02  3.300000131E-01  0.00000E+00  9.000E+00
      21     1     1     2   511   514  3.776601477E+00  4.362103550E+00 -5.121606962E+00  7.715019376E+00  1.576990671E-07  0.00000E+00  9.000E+00
       2     1     1     2   514     0  6.968754941E+00 -9.147250527E+00 -2.085140752E+01  2.381440390E+01  3.300000131E-01  0.00000E+00  9.000E+00
</event>
<event>
      5  10001  3.52971E+09  7.00449E+00 -1.00000E+00  2.15509E-01
      21    -1     0     0   513   511  0.000000000E+00  0.000000000E+00  3.321556415E+01  3.321556415E+01  0.000000000E+00  0.00000E+00  9.000E+00
      21    -1     0     0   516   515  0.000000000E+00  0.000000000E+00 -1.281600522E+01  1.281600522E+01  0.000000000E+00  0.00000E+00  9.000E+00
      21     1     1     2   513   515  1.132912655E+01  1.840287748E+00  2.760305469E+01  2.989422010E+01  3.371747881E-07  0.00000E+00  9.000E+00
      21     1     1     2   512   511 -4.544824498E+00  1.413987699E+00 -7.178219674E+00  8.612875746E+00  1.460009660E-07  0.00000E+00  9.000E+00
      21     1     1     2   516   512 -6.784302049E+00 -3.254275447E+00 -2.527608835E-02  7.524473527E+00  7.223005506E-08  0.00000E+00  9.000E+00
</event>
<event>
      5  10001  3.52971E+09  4.13115E+00 -1.00000E+00  2.60204E-01
      21    -1     0     0   514   511  0.000000000E+00  0.000000000E+00  2.266151103E+01  2.266151103E+01  0.000000000E+00  0.00000E+00  9.000E+00
      21    -1     0     0   516   517  0.000000000E+00  0.000000000E+00 -4.806111696E+02  4.806111696E+02  0.000000000E+00  0.00000E+00  9.000E+00
      21     1     1     2   514   517  1.085346500E+01  8.221185407E+00 -4.206753512E+02  4.208956364E+02  5.394796609E-06  0.00000E+00  9.000E+00
      21     1     1     2   516   512 -1.075609806E+01 -4.091183326E+00 -5.907650007E+01  6.018691126E+01  2.431401974E-06  0.00000E+00  9.000E+00
      21     1     1     2   512   511 -9.736694971E-02 -4.130002081E+00  2.180219269E+01  2.219013303E+01  5.840038640E-07  0.00000E+00  9.000E+00
</event>
<event>
      5  10001  3.52971E+09  5.45904E+00 -1.00000E+00  2.32033E-01
      21    -1     0     0   513   516  0.000000000E+00  0.000000000E+00  3.292427883E+01  3.292427883E+01  0.000000000E+00  0.00000E+00  9.000E+00
      21    -1     0     0   511   514  0.000000000E+00  0.000000000E+00 -6.031050586E+01  6.031050586E+01  0.000000000E+00  0.00000E+00  9.000E+00
      21     1     1     2   511   515  1.404204772E+01 -7.139845410E+00 -2.317489832E+01  2.802199866E+01  0.000000000E+00  0.00000E+00  9.000E+00
      21     1     1     2   515   516 -1.242865220E+01  1.924664360E+00  2.897166506E+01  3.158374748E+01  3.371747881E-07  0.00000E+00  9.000E+00
      21     1     1     2   513   514 -1.613395527E+00  5.215181050E+00 -3.318299377E+01  3.362903856E+01  4.768371582E-07  0.00000E+00  9.000E+00
</event>
<event>
      5  10001  3.52971E+09  4.00830E+00 -1.00000E+00  2.63250E-01
      21    -1     0     0   515   514  0.000000000E+00  0.000000000E+00  1.102774972E+02  1.102774972E+02  0.000000000E+00  0.00000E+00  9.000E+00
      21    -1     0     0   511   517  0.000000000E+00  0.000000000E+00 -7.064781153E+01  7.064781153E+01  0.000000000E+00  0.00000E+00  9.000E+00
      21     1     1     2   512   517  9.903148623E+00  1.045845166E+01  8.222949886E+01  8.348138742E+01  1.348699152E-06  0.00000E+00  9.000E+00
      21     1     1     2   511   514 -1.378469118E+01 -9.458401037E+00 -6.886985081E+01  7.086984840E+01  1.907348633E-06  0.00000E+00  9.000E+00
      21     1     1     2   515   512  3.881542556E+00 -1.000050628E+00  2.627003763E+01  2.657407291E+01  3.371747881E-07  0.00000E+00  9.000E+00
</event>
<event>
      5  10001  3.52971E+09  6.70452E+00 -1.00000E+00  2.18230E-01
       1    -1     0     0   511     0  0.000000000E+00  0.000000000E+00  9.658624943E+00  9.658624943E+00  0.000000000E+00  0.00000E+00  9.000E+00
      21    -1     0     0   513   514  0.000000000E+00  0.000000000E+00 -1.042906450E+02  1.042906450E+02  0.000000000E+00  0.00000E+00  9.000E+00
      21     1     1     2   511   515  1.769714383E+01 -6.398749328E-01 -8.387755094E+01  8.572655301E+01  1.651812370E-06  0.00000E+00  9.000E+00
       1     1     1     2   513     0 -1.290713260E+01  5.330681170E+00  1.706818098E+00  1.407239715E+01  3.300000131E-01  0.00000E+00  9.000E+00
      21     1     1     2   515   514 -4.790011233E+00 -4.690806237E+00 -1.246128721E+01  1.415031977E+01  1.685873940E-07  0.00000E+00  9.000E+00
</event>
<event>
      5  10001 -3.52971E+09  6.00918E+00 -1.00000E+00  2.25362E-01
       2    -1     0     0   513     0  0.000000000E+00  0.000000000E+00  1.141254261E+03  1.141254261E+03  0.000000000E+00  0.00000E+00  9.000E+00
      21    -1     0     0   512   514  0.000000000E+00  0.000000000E+00 -2.005163419E+01  2.005163419E+01  0.000000000E+00  0.00000E+00  9.000E+00
      21     1     1     2   513   514 -5.055619162E+00 -9.710068343E+00 -1.844265174E+01  2.144705377E+01  2.676241913E-06  0.00000E+00  9.000E+00
       2     1     1     2   511     0  8.374848579E+00  1.275289966E+01  1.039907958E+03  1.040019925E+03  3.300000131E-01  0.00000E+00  9.000E+00
      21     1     1     2   512   511 -3.319229416E+00 -3.042831313E+00  9.973732065E+01  9.983891644E+01  1.348699152E-06  0.00000E+00  9.000E+00
</event>
<event>
      5  10001  3.52971E+09  1.02838E+01 -1.00000E+00  1.94358E-01
      21    -1     0     0   515   516  0.000000000E+00  0.000000000E+00  1.755792680E+00  1.755792680E+00  0.000000000E+00  0.00000E+00  9.000E+00
       1    -1     0     0   512     0  0.000000000E+00  0.000000000E+00 -1.094466537E+03  1.094466537E+03  0.000000000E+00  0.00000E+00  9.000E+00
      21     1     1     2   511   516 -1.987079502E+01  2.244738143E+00 -7.643074197E+01  7.900345348E+01  1.907348633E-06  0.00000E+00  9.000E+00
      21     1     1     2   512   511  2.223565491E+01 -1.225264026E+01 -3.759669345E+02  3.768231513E+02  5.394796609E-06  0.00000E+00  9.000E+00
       1     1     1     2   515     0 -2.364859898E+00  1.000790212E+01 -6.403130683E+02  6.403957253E+02  3.300000131E-01  0.00000E+00  9.000E+00
</event>
<event>
      5  10001  3.52971E+09  8.86281E+00 -1.00000E+00  2.02015E-01
       3    -1     0     0   512     0  0.000000000E+00  0.000000000E+00  6.162858917E+01  6.162858917E+01  0.000000000E+00  0.00000E+00  9.000E+00
      21    -1     0     0   513   514  0.000000000E+00  0.000000000E+00 -4.369445938E+00  4.369445938E+00  0.000000000E+00  0.00000E+00  9.000E+00
      21     1     1     2   512   514  8.612148755E+00  1.201418438E+01  2.685453328E+01  3.065413007E+01  3.371747881E-07  0.00000E+00  9.000E+00
       3     1     1     2   511     0 -8.298671254E+00 -5.296212656E+00  2.444634210E+01  2.635889708E+01  5.000000000E-01  0.00000E+00  9.000E+00
      21     1     1     2   513   511 -3.134775010E-01 -6.717971727E+00  5.958267848E+00  8.985007959E+00  1.685873940E-07  0.00000E+00  9.000E+00
</event>
<event>
      5  10001  3.52971E+09  6.37317E+00 -1.00000E+00  2.21472E-01
      21    -1     0     0   515   511  0.000000000E+00  0.000000000E+00  4.213685330E+01  4.213685330E+01  0.000000000E+00  0.00000E+00  9.000E+00
      21    -1     0     0   513   516  0.000000000E+00  0.000000000E+00 -1.755045244E+01  1.755045244E+01  0.000000000E+00  0.00000E+00  9.000E+00
      21     1     1     2   515   516 -1.013675935E+01  9.064405361E+00 -1.255490941E+01  1.850791952E+01  0.000000000E+00  0.00000E+00  9.000E+00
      21     1     1     2   513   512  6.436178525E+00 -3.756999870E+00  3.216448765E+01  3.301656717E+01  4.768371582E-07  0.00000E+00  9.000E+00
      21     1     1     2   512   511  3.700580822E+00 -5.307405491E+00  4.976822616E+00  8.162819049E+00  0.000000000E+00  0.00000E+00  9.000E+00
</event>
<event>
      5  10001  3.52971E+09  3.90934E+00 -1.00000E+00  2.65830E-01
      21    -1     0     0   514   513  0.000000000E+00  0.000000000E+00  1.717334069E+01  1.717334069E+01  0.000000000E+00  0.00000E+00  9.000E+00
      21    -1     0     0   515   514  0.000000000E+00  0.000000000E+00 -2.225684532E+01  2.225684532E+01  0.000000000E+00  0.00000E+00  9.000E+00
      21     1     1     2   511   517 -9.716123797E+00  8.659191909E+00  2.283720906E+00  1.321363112E+01  3.097148194E-07  0.00000E+00  9.000E+00
      21     1     1     2   517   513  1.362435510E+01 -8.752303967E+00  1.758630289E+00  1.628860513E+01  3.576278687E-07  0.00000E+00  9.000E+00
      21     1     1     2   515   511 -3.908231302E+00  9.311205845E-02 -9.125855827E+00  9.927949755E+00  1.192092896E-07  0.00000E+00  9.000E+00
</event>
<event>
      5  10001  3.52971E+09  6.70358E+00 -1.00000E+00  2.18238E-01
      21    -1     0     0   512   516  0.000000000E+00  0.000000000E+00  6.039918351E+02  6.039918351E+02  0.000000000E+00  0.00000E+00  9.000E+00
      21    -1     0     0   515   511  0.000000000E+00  0.000000000E+00 -9.330823551E-01  9.330823551E-01  0.000000000E+00  0.00000E+00  9.000E+00
      21     1     1     2   512   511  2.930989571E+00 -9.834191002E+00  5.578701870E+02  5.579645576E+02  7.629394531E-06  0.00000E+00  9.000E+00
      21     1     1     2   513   516  1.901576685E+00  4.787985285E+00  1.225557221E+01  1.329435396E+01  5.840038640E-07  0.00000E+00  9.000E+00
      21     1     1     2   515   513 -4.832566256E+00  5.046205717E+00  3.293299355E+01  3.366600589E+01  9.536743164E-07  0.00000E+00  9.000E+00
</event>
<event>
      5  10001  3.52971E+09  2.71875E+01 -1.00000E+00  1.56067E-01
      21    -1     0     0   514   515  0.000000000E+00  0.000000000E+00  2.974696178E+00  2.974696178E+00  0.000000000E+00  0.00000E+00  9.000E+00
      -3    -1     0     0     0   514  0.000000000E+00  0.000000000E+00 -2.397152153E+02  2.397152153E+02  0.000000000E+00  0.00000E+00  9.000E+00
      -3     1     1     2     0   511 -1.154825162E+01 -1.433225259E+01 -1.044247677E+02  1.060356435E+02  5.000000000E-01  0.00000E+00  9.000E+00
      21     1     1     2   512   515  9.733173530E-01  9.884370543E+00 -1.109226493E+01  1.488913929E+01  5.717076687E-07  0.00000E+00  9.000E+00
      21     1     1     2   511   512  1.057493427E+01  4.447882048E+00 -1.212234865E+02  1.217651287E+02  1.907348633E-06  0.00000E+00  9.000E+00
</event>
<event>
      5  10001  3.52971E+09  3.29057E+00 -1.00000E+00  2.85184E-01
      21    -1     0     0   511   512  0.000000000E+00  0.000000000E+00  3.960089433E+00  3.960089433E+00  0.000000000E+00  0.00000E+00  9.000E+00
       2    -1     0     0   514     0  0.000000000E+00  0.000000000E+00 -1.316788394E+02  1.316788394E+02  0.000000000E+00  0.00000E+00  9.000E+00
      21     1     1     2   511   513  9.491488940E+00  8.449593725E-01 -3.155415150E+00  1.003787644E+01  5.748063779E-07  0.00000E+00  9.000E+00
       2     1     1     2   513     0 -1.278091643E+01 -9.238086232E-01 -9.809207680E+01  9.892608189E+01  3.300000131E-01  0.00000E+00  9.000E+00
      21     1     1     2   514   512  3.289427487E+00  7.884925070E-02 -2.647125801E+01  2.667497050E+01  0.000000000E+00  0.00000E+00  9.000E+00
</event>
<event>
      5  10001  3.52971E+09  5.91358E+00 -1.00000E+00  2.26448E-01
      -2    -1     0     0     0   512  0.000000000E+00  0.000000000E+00  6.117067171E+01  6.117067171E+01  0.000000000E+00  0.00000E+00  9.000E+00
      21    -1     0     0   512   511  0.000000000E+00  0.000000000E+00 -2.471767600E+01  2.471767600E+01  0.000000000E+00  0.00000E+00  9.000E+00
      -2     1     1     2     0   513  1.852132134E+00  6.202478629E+00  4.803139913E+01  4.846674465E+01  3.300000131E-01  0.00000E+00  9.000E+00
      21     1     1     2   514   511 -7.224566151E+00 -9.889216371E+00 -2.197187172E+01  2.515460402E+01  2.384185791E-07  0.00000E+00  9.000E+00
      21     1     1     2   513   514  5.372434017E+00  3.686737742E+00  1.039346829E+01  1.226699905E+01  2.920019320E-07  0.00000E+00  9.000E+00
</event>
<event>
      5  10001  3.52971E+09  2.05245E+01 -1.00000E+00  1.65443E-01
      21    -1     0     0   515   513  0.000000000E+00  0.000000000E+00  1.416972865E+00  1.416972865E+00  0.000000000E+00  0.00000E+00  9.000E+00
      21    -1     0     0   512   516  0.000000000E+00  0.000000000E+00 -3.164545914E+02  3.164545914E+02  0.000000000E+00  0.00000E+00  9.000E+00
      21     1     1     2   515   516  5.198251958E+00  5.556209574E+00 -1.379157204E+01  1.575121417E+01  2.920019320E-07  0.00000E+00  9.000E+00
      21     1     1     2   512   511 -6.285528007E+00 -1.224533887E+01 -1.272267353E+02  1.279691305E+02  1.348699152E-06  0.00000E+00  9.000E+00
      21     1     1     2   511   513  1.087276049E+00  6.689129300E+00 -1.740193111E+02  1.741512195E+02  0.000000000E+00  0.00000E+00  9.000E+00
</event>
<event>
      5  10001  3.52971E+09  3.74958E+01 -1.00000E+00  1.46601E-01
      21    -1     0     0   511   513  0.000000000E+00  0.000000000E+00  1.581291346E+01  1.581291346E+01  0.000000000E+00  0.00000E+00  9.000E+00
      21    -1     0     0   513   514  0.000000000E+00  0.000000000E+00 -3.954010755E+01  3.954010755E+01  0.000000000E+00  0.00000E+00  9.000E+00
      21     1     1     2   512   514 -3.493801844E+00 -7.485705434E+00 -2.653083311E+01  2.778718307E+01  5.840038640E-07  0.00000E+00  9.000E+00
       4     1     1     2   511     0  1.192974411E+01  1.203394232E+00 -6.252297032E+00  1.360544635E+01  1.500000000E+00  0.00000E+00  9.000E+00
      -4     1     1     2     0   512 -8.435942262E+00  6.282311202E+00  9.055936052E+00  1.396039160E+01  1.500000000E+00  0.00000E+00  9.000E+00
</event>
<event>
      5  10001  3.52971E+09  5.95028E+00 -1.00000E+00  2.26028E-01
      21    -1     0     0   515   514  0.000000000E+00  0.000000000E+00  2.398892437E+01  2.398892437E+01  0.000000000E+00  0.00000E+00  9.000E+00
      21    -1     0     0   513   512  0.000000000E+00  0.000000000E+00 -1.198676360E+01  1.198676360E+01  0.000000000E+00  0.00000E+00  9.000E+00
      21     1     1     2   515   512  1.560615222E+01  4.451122908E+00  5.080730050E+00  1.700524331E+01  3.318646170E-07  0.00000E+00  9.000E+00
      21     1     1     2   513   511 -9.167727506E+00 -3.418493293E+00  4.669436474E-01  9.795476527E+00  2.106683778E-07  0.00000E+00  9.000E+00
      21     1     1     2   511   514 -6.438424717E+00 -1.032629615E+00  6.454487073E+00  9.174968127E+00  1.685873940E-07  0.00000E+00  9.000E+00
</event>
<event>
      5  10001  3.52971E+09  7.25084E+00 -1.00000E+00  2.13410E-01
      21    -1     0     0   511   513  0.000000000E+00  0.000000000E+00  4.284051805E+00  4.284051805E+00  0.000000000E+00  0.00000E+00  9.000E+00
      -3    -1     0     0     0   516  0.000000000E+00  0.000000000E+00 -4.670416725E+02  4.670416725E+02  0.000000000E+00  0.00000E+00  9.000E+00
      -3     1     1     2     0   513 -1.605803753E+01  5.853367919E+00 -4.470046092E+02  4.473315248E+02  5.000000000E-01  0.00000E+00  9.000E+00
      21     1     1     2   512   516  4.044850078E+00 -3.853822656E+00 -2.925870491E+00  6.306621865E+00  3.345302391E-07  0.00000E+00  9.000E+00
      21     1     1     2   511   512  1.201318745E+01 -1.999545263E+00 -1.282714097E+01  1.768757755E+01  2.920019320E-07  0.00000E+00  9.000E+00
</event>
<event>
      5  10001  3.52971E+09  6.81627E+00 -1.00000E+00  2.17194E-01
      21    -1     0     0   514   516  0.000000000E+00  0.000000000E+00  1.526959156E+00  1.526959156E+00  0.000000000E+00  0.00000E+00  9.000E+00
      21    -1     0     0   515   514  0.000000000E+00  0.000000000E+00 -1.644226984E+02  1.644226984E+02  0.000000000E+00  0.00000E+00  9.000E+00
      21     1     1     2   512   516 -4.599352903E+00  9.907500914E+00 -2.316559650E+01  2.561166693E+01  4.768371582E-07  0.00000E+00  9.000E+00
      21     1     1     2   513   512  3.959598766E+00 -7.188245078E+00 -5.996730922E+01  6.052625434E+01  0.000000000E+00  0.00000E+00  9.000E+00
      21     1     1     2   515   513  6.397541369E-01 -2.719255836E+00 -7.976283348E+01  7.981173624E+01  0.000000000E+00  0.00000E+00  9.000E+00
</event>
<event>
      5  10001  3.52971E+09  1.25074E+01 -1.00000E+00  1.85152E-01
      21    -1     0     0   511   512  0.000000000E+00  0.000000000E+00  1.109817669E+01  1.109817669E+01  0.000000000E+00  0.00000E+00  9.000E+00
      21    -1     0     0   515   511  0.000000000E+00  0.000000000E+00 -6.112771951E+01  6.112771951E+01  0.000000000E+00  0.00000E+00  9.000E+00
      21     1     1     2   513   512  1.544762866E+00 -8.859659867E+00  6.753898330E+00  1.124699995E+01  5.127385418E-07  0.00000E+00  9.000E+00
      21     1     1     2   514   513 -9.791202210E-01  1.547436562E+01 -4.209493661E+01  4.485976322E+01  0.000000000E+00  0.00000E+00  9.000E+00
      21     1     1     2   515   514 -5.656426449E-01 -6.614705754E+00 -1.468850454E+01  1.611913302E+01  3.371747881E-07  0.00000E+00  9.000E+00
</event>
<event>
      5  10001  3.52971E+09  2.79971E+01 -1.00000E+00  1.55151E-01
       4    -1     0     0   511     0  0.000000000E+00  0.000000000E+00  5.193117358E+02  5.193117358E+02  0.000000000E+00  0.00000E+00  9.000E+00
      21    -1     0     0   514   511  0.000000000E+00  0.000000000E+00 -2.973113177E+00  2.973113177E+00  0.000000000E+00  0.00000E+00  9.000E+00
      21     1     1     2   514   512  3.967746210E-01 -3.507306625E+00 -1.482022573E+00  3.828187661E+00  6.643979791E-07  0.00000E+00  9.000E+00
       4     1     1     2   516     0  8.875631769E+00 -4.957717778E+00  3.565368077E+02  3.566848764E+02  1.500000000E+00  0.00000E+00  9.000E+00
      21     1     1     2   512   516 -9.272406390E+00  8.465024403E+00  1.612838374E+02  1.617717849E+02  2.697398305E-06  0.00000E+00  9.000E+00
</event>
<event>
      5  10001  3.52971E+09  8.05837E+00 -1.00000E+00  2.07253E-01
      21    -1     0     0   511   512  0.000000000E+00  0.000000000E+00  7.360768644E+02  7.360768644E+02  0.000000000E+00  0.00000E+00  9.000E+00
      21    -1     0     0   515   513  0.000000000E+00  0.000000000E+00 -3.057065124E+00  3.057065124E+00  0.000000000E+00  0.00000E+00  9.000E+00
      21     1     1     2   515   514 -2.560035897E+01 -1.354477023E+00  8.382996220E+01  8.766228122E+01  2.132480600E-06  0.00000E+00  9.000E+00
      21     1     1     2   514   512  1.754400339E+01  1.174234255E+00  6.833505962E+01  7.056097543E+01  1.907348633E-06  0.00000E+00  9.000E+00
      21     1     1     2   511   513  8.056355582E+00  1.802427680E-01  5.808547775E+02  5.809106729E+02  1.078959322E-05  0.00000E+00  9.000E+00
</event>
<event>
      5  10001  3.52971E+09  8.96837E+00 -1.00000E+00  2.01382E-01
       3    -1     0     0   516     0  0.000000000E+00  0.000000000E+00  1.086500638E+02  1.086500638E+02  0.000000000E+00  0.00000E+00  9.000E+00
      21    -1     0     0   515   517  0.000000000E+00  0.000000000E+00 -7.291664717E+00  7.291664717E+00  0.000000000E+00  0.00000E+00  9.000E+00
      21     1     1     2   516   517  6.671822976E+00 -4.546825352E+00 -4.916526515E-01  8.088792551E+00  1.645043654E-07  0.00000E+00  9.000E+00
      21     1     1     2   515   513 -1.548285060E+01  6.214449988E+00  2.257521698E+01  2.807095426E+01  2.384185791E-07  0.00000E+00  9.000E+00
       3     1     1     2   513     0  8.811027623E+00 -1.667624636E+00  7.927483476E+01  7.978198171E+01  5.000000000E-01  0.00000E+00  9.000E+00
</event>
<event>
      5  10001  3.52971E+09  2.61212E+01 -1.00000E+00  1.57334E-01
      21    -1     0     0   511   515  0.000000000E+00  0.000000000E+00  1.392703654E+01  1.392703654E+01  0.000000000E+00  0.00000E+00  9.000E+00
      21    -1     0     0   514   512  0.000000000E+00  0.000000000E+00 -1.877449906E+01  1.877449906E+01  0.000000000E+00  0.00000E+00  9.000E+00
      21     1     1     2   511   512 -4.681496376E-01 -6.517581155E+00 -8.843003016E+00  1.099530493E+01  2.064765462E-07  0.00000E+00  9.000E+00
      21     1     1     2   516   515 -5.520340724E+00  3.900360846E+00 -6.477140073E+00  9.361640880E+00  1.192092896E-07  0.00000E+00  9.000E+00
      21     1     1     2   514   516  5.988490362E+00  2.617220308E+00  1.047268057E+01  1.234458979E+01  2.064765462E-07  0.00000E+00  9.000E+00
</event>
<event>
      5  10001  3.52971E+09  5.98132E+00 -1.00000E+00  2.25676E-01
      21    -1     0     0   513   512  0.000000000E+00  0.000000000E+00  2.200638746E+01  2.200638746E+01  0.000000000E+00  0.00000E+00  9.000E+00
      21    -1     0     0   511   517  0.000000000E+00  0.000000000E+00 -1.019398581E+02  1.019398581E+02  0.000000000E+00  0.00000E+00  9.000E+00
      21     1     1     2   513   517 -1.174515657E+01  4.950131131E+00  6.422498597E+00  1.427238555E+01  3.769728732E-07  0.00000E+00  9.000E+00
      21     1     1     2   514   512  8.335837871E+00 -3.558386111E-02  1.006433191E+01  1.306821472E+01  0.000000000E+00  0.00000E+00  9.000E+00
      21     1     1     2   511   514  3.409318696E+00 -4.914547270E+00 -9.642030110E+01  9.660564525E+01  0.000000000E+00  0.00000E+00  9.000E+00
</event>
<event>
      5  10001  3.52971E+09  5.13302E+00 -1.00000E+00  2.36534E-01
      21    -1     0     0   515   512  0.000000000E+00  0.000000000E+00  3.332660650E+01  3.332660650E+01  0.000000000E+00  0.00000E+00  9.000E+00
      21    -1     0     0   511   515  0.000000000E+00  0.000000000E+00 -1.584025403E+01  1.584025403E+01  0.000000000E+00  0.00000E+00  9.000E+00
      21     1     1     2   514   512  1.026799000E+00  2.070416354E+01  1.873661919E+01  2.794239794E+01  3.371747881E-07  0.00000E+00  9.000E+00
      21     1     1     2   513   514 -7.309671153E-01 -7.767993690E+00 -2.577482063E+00  8.217022130E+00  1.154238983E-07  0.00000E+00  9.000E+00
      21     1     1     2   511   513 -2.958318844E-01 -1.293616985E+01  1.327215353E+00  1.300744047E+01  1.591008641E-07  0.00000E+00  9.000E+00
</event>
<event>
      5  10001  3.52971E+09  1.35101E+01 -1.00000E+00  1.81769E-01
      21    -1     0     0   516   514  0.000000000E+00  0.000000000E+00  1.999416981E+03  1.999416981E+03  0.000000000E+00  0.00000E+00  9.000E+00
      21    -1     0     0   511   516  0.000000000E+00  0.000000000E+00 -4.963622500E-01  4.963622500E-01  0.000000000E+00  0.00000E+00  9.000E+00
      21     1     1     2   513   514 -1.464361925E+01  8.195842949E+00  1.472117259E+03  1.472212903E+03  2.157918644E-05  0.00000E+00  9.000E+00
      21     1     1     2   512   513  1.027701188E+01 -5.799412535E+00  7.965502912E+01  8.052436788E+01  3.932099939E-06  0.00000E+00  9.000E+00
      21     1     1     2   511   512  4.366607370E+00 -2.396430414E+00  4.471483309E+02  4.471760727E+02  5.394796609E-06  0.00000E+00  9.000E+00
</event>
<event>
      5  10001  3.52971E+09  6.85793E+00 -1.00000E+00  2.16814E-01
      -2    -1     0     0     0   512  0.000000000E+00  0.000000000E+00  5.938262067E+01  5.938262067E+01  0.000000000E+00  0.00000E+00  9.000E+00
      21    -1     0     0   511   517  0.000000000E+00  0.000000000E+00 -8.913677751E+01  8.913677751E+01  0.000000000E+00  0.00000E+00  9.000E+00
      21     1     1     2   515   517  6.175278173E+00 -1.130584228E+01 -8.751300101E+01  8.845609914E+01  9.536743164E-07  0.00000E+00  9.000E+00
      21     1     1     2   511   512  3.730585175E-01  9.268793142E+00  2.705237105E+01  2.859860973E+01  3.371747881E-07  0.00000E+00  9.000E+00
      -2     1     1     2     0   515 -6.548336691E+00  2.037049139E+00  3.070647311E+01  3.146468931E+01  3.300000131E-01  0.00000E+00  9.000E+00
</event>
<event>
      5  10001  3.52971E+09  1.64465E+01 -1.00000E+00  1.73694E-01
      -1    -1     0     0     0   513  0.000000000E+00  0.000000000E+00  1.422585746E+02  1.422585746E+02  0.000000000E+00  0.00000E+00  9.000E+00
      21    -1     0     0   513   511  0.000000000E+00  0.000000000E+00 -3.595863681E+02  3.595863681E+02  0.000000000E+00  0.00000E+00  9.000E+00
      -1     1     1     2     0   512 -1.515439955E+01  1.031112310E+01  1.401864529E+02  1.413800749E+02  3.300000131E-01  0.00000E+00  9.000E+00
      21     1     1     2   512   514  1.847770903E+00 -1.997664002E+01 -8.047827453E+01  8.294114223E+01  2.132480600E-06  0.00000E+00  9.000E+00
      21     1     1     2   514   511  1.330662865E+01  9.665516922E+00 -2.770359718E+02  2.775237256E+02  3.814697266E-06  0.00000E+00  9.000E+00
</event>
<event>
      5  10001  3.52971E+09  7.38492E+00 -1.00000E+00  2.12314E-01
      21    -1     0     0   515   512  0.000000000E+00  0.000000000E+00  3.088125751E+02  3.088125751E+02  0.000000000E+00  0.00000E+00  9.000E+00
      21    -1     0     0   513   515  0.000000000E+00  0.000000000E+00 -3.640237492E+01  3.640237492E+01  0.000000000E+00  0.00000E+00  9.000E+00
      21     1     1     2   513   511  8.366864254E+00 -1.224080925E+01 -3.444911774E+01  3.750444696E+01  2.132480600E-06  0.00000E+00  9.000E+00
      21     1     1     2   516   512 -5.757293173E+00  4.531794189E+00  2.630248767E+02  2.631269073E+02  0.000000000E+00  0.00000E+00  9.000E+00
      21     1     1     2   511   516 -2.609571081E+00  7.709015062E+00  4.383444126E+01  4.458359581E+01  4.768371582E-07  0.00000E+00  9.000E+00
</event>
<event>
      5  10001  3.52971E+09  4.30078E+00 -1.00000E+00  2.56257E-01
      21    -1     0     0   513   515  0.000000000E+00  0.000000000E+00  1.032701218E+01  1.032701218E+01  0.000000000E+00  0.00000E+00  9.000E+00
      -4    -1     0     0     0   514  0.000000000E+00  0.000000000E+00 -9.419708489E+01  9.419708489E+01  0.000000000E+00  0.00000E+00  9.000E+00
      -4     1     1     2     0   512 -1.482089893E+01  8.534251651E+00 -8.173810287E+01  8.352161372E+01  1.500000000E+00  0.00000E+00  9.000E+00
      21     1     1     2   513   514  1.183789791E+01 -1.162878992E+01 -1.585308057E+00  1.666966657E+01  7.901831617E-07  0.00000E+00  9.000E+00
      21     1     1     2   512   515  2.983001027E+00  3.094538266E+00 -5.466617707E-01  4.332816786E+00  1.210576058E-07  0.00000E+00  9.000E+00
</event>
<event>
      5  10001  3.52971E+09  4.07600E+00 -1.00000E+00  2.61550E-01
      21    -1     0     0   511   515  0.000000000E+00  0.000000000E+00  6.188304562E+01  6.188304562E+01  0.000000000E+00  0.00000E+00  9.000E+00
      -3    -1     0     0     0   511  0.000000000E+00  0.000000000E+00 -2.485764559E+01  2.485764559E+01  0.000000000E+00  0.00000E+00  9.000E+00
      -3     1     1     2     0   513  1.324209772E+01  2.282793332E+00 -1.751848524E+01  2.208419395E+01  5.000000000E-01  0.00000E+00  9.000E+00
      21     1     1     2   514   515 -1.225289743E+01 -4.118164460E+00  5.864666032E+01  6.005433824E+01  6.743495762E-07  0.00000E+00  9.000E+00
      21     1     1     2   513   514 -9.892002880E-01  1.835371128E+00 -4.102775061E+00  4.602159014E+00  1.685873940E-07  0.00000E+00  9.000E+00
</event>
<event>
      5  10001  3.52971E+09  4.25368E+00 -1.00000E+00  2.57325E-01
      21    -1     0     0   512   514  0.000000000E+00  0.000000000E+00  1.469289316E+00  1.469289316E+00  0.000000000E+00  0.00000E+00  9.000E+00
      21    -1     0     0   513   511  0.000000000E+00  0.000000000E+00 -4.947727615E+02  4.947727615E+02  0.000000000E+00  0.00000E+00  9.000E+00
      21     1     1     2   512   516 -1.211986095E+01 -9.167862075E-01 -3.460520978E+02  3.462654847E+02  7.629394531E-06  0.00000E+00  9.000E+00
      21     1     1     2   513   514  1.050279656E+01  4.851105229E+00 -2.390950221E+01  2.656136769E+01  1.469710828E-06  0.00000E+00  9.000E+00
      21     1     1     2   516   511  1.617064388E+00 -3.934319022E+00 -1.233418722E+02  1.234151984E+02  0.000000000E+00  0.00000E+00  9.000E+00
</event>
<event>
      5  10001  3.52971E+09  7.15977E+00 -1.00000E+00  2.14172E-01
      21    -1     0     0   515   511  0.000000000E+00  0.000000000E+00  1.322099622E+01  1.322099622E+01  0.000000000E+00  0.00000E+00  9.000E+00
      21    -1     0     0   516   517  0.000000000E+00  0.000000000E+00 -1.653513993E+01  1.653513993E+01  0.000000000E+00  0.00000E+00  9.000E+00
      21     1     1     2   515   517 -4.544972697E+00 -8.666940467E+00 -1.175513600E+01  1.529561559E+01  2.384185791E-07  0.00000E+00  9.000E+00
      21     1     1     2   516   512  3.381521534E+00  5.694373401E+00  1.456301185E+00  6.780957857E+00  1.173318606E-07  0.00000E+00  9.000E+00
      21     1     1     2   512   511  1.163451163E+00  2.972567065E+00  6.984691103E+00  7.679562707E+00  0.000000000E+00  0.00000E+00  9.000E+00
</event>
<event>
      5  10001  3.52971E+09  2.07858E+01 -1.00000E+00  1.64997E-01
       3    -1     0     0   514     0  0.000000000E+00  0.000000000E+00  8.291909824E+00  8.291909824E+00  0.000000000E+00  0.00000E+00  9.000E+00
      21    -1     0     0   512   513  0.000000000E+00  0.000000000E+00 -1.663559898E+02  1.663559898E+02  0.000000000E+00  0.00000E+00  9.000E+00
      21     1     1     2   514   513  2.690065929E+01 -1.420172331E+01 -1.209682704E+02  1.247343451E+02  1.348699152E-06  0.00000E+00  9.000E+00
      21     1     1     2   512   515 -1.104567150E+01 -9.672225619E-01 -1.603371335E+01  1.949416174E+01  0.000000000E+00  0.00000E+00  9.000E+00
       3     1     1     2   515     0 -1.585498780E+01  1.516894587E+01 -2.106209621E+01  3.041939272E+01  5.000000000E-01  0.00000E+00  9.000E+00
</event>
<event>
      5  10001  3.52971E+09  2.74086E+01 -1.00000E+00  1.55813E-01
      21    -1     0     0   511   512  0.000000000E+00  0.000000000E+00  1.920397440E+01  1.920397440E+01  0.000000000E+00  0.00000E+00  9.000E+00
       3    -1     0     0   515     0  0.000000000E+00  0.000000000E+00 -3.388833698E+01  3.388833698E+01  0.000000000E+00  0.00000E+00  9.000E+00
      21     1     1     2   515   512 -8.125998464E+00  5.460705483E+00 -1.877465010E+01  2.117400864E+01  4.129530925E-07  0.00000E+00  9.000E+00
      21     1     1     2   511   513  5.347984939E-01  7.632656587E+00  1.245581990E+01  1.461817039E+01  3.371747881E-07  0.00000E+00  9.000E+00
       3     1     1     2   513     0  7.591199970E+00 -1.309336207E+01 -8.365532381E+00  1.730013235E+01  5.000000000E-01  0.00000E+00  9.000E+00
</event>
<event>
      5  10001  3.52971E+09  1.40909E+01 -1.00000E+00  1.79977E-01
       3    -1     0     0   514     0  0.000000000E+00  0.000000000E+00  2.915278534E+01  2.915278534E+01  0.000000000E+00  0.00000E+00  9.000E+00
      21    -1     0     0   513   511  0.000000000E+00  0.000000000E+00 -2.949365488E+01  2.949365488E+01  0.000000000E+00  0.00000E+00  9.000E+00
      21     1     1     2   512   511  5.340520147E+00 -9.581657560E+00 -1.360134739E+01  1.747357914E+01  5.331201500E-07  0.00000E+00  9.000E+00
       3     1     1     2   513     0 -1.364140279E+01  3.844100168E+00  2.308262220E+01  2.709100264E+01  5.000000000E-01  0.00000E+00  9.000E+00
      21     1     1     2   514   512  8.300882647E+00  5.737557392E+00 -9.822144355E+00  1.408185845E+01  1.685873940E-07  0.00000E+00  9.000E+00
</event>
<event>
      5  10001  3.52971E+09  3.40140E+00 -1.00000E+00  2.81234E-01
      21    -1     0     0   515   511  0.000000000E+00  0.000000000E+00  7.186434101E-01  7.186434101E-01  0.000000000E+00  0.00000E+00  9.000E+00
      21    -1     0     0   516   512  0.000000000E+00  0.000000000E+00 -2.504320586E+02  2.504320586E+02  0.000000000E+00  0.00000E+00  9.000E+00
      21     1     1     2   515   512  1.145779495E+01  6.649319421E-01 -1.602807777E+02  1.606911662E+02  1.907348633E-06  0.00000E+00  9.000E+00
      21     1     1     2   516   513 -1.051924644E+01 -3.048127181E+00 -6.834957912E+01  6.922146048E+01  9.536743164E-07  0.00000E+00  9.000E+00
      21     1     1     2   513   511 -9.385485130E-01  2.383195239E+00 -2.108305830E+01  2.123807524E+01  0.000000000E+00  0.00000E+00  9.000E+00
</event>
<event>
      5  10001  3.52971E+09  1.01252E+01 -1.00000E+00  1.95130E-01
      21    -1     0     0   514   512  0.000000000E+00  0.000000000E+00  4.041634010E+01  4.041634010E+01  0.000000000E+00  0.00000E+00  9.000E+00
       1    -1     0     0   511     0  0.000000000E+00  0.000000000E+00 -2.957982852E+01  2.957982852E+01  0.000000000E+00  0.00000E+00  9.000E+00
      21     1     1     2   514   513 -2.739972218E+01  1.054245578E+01  9.402563738E+00  3.082687714E+01  4.298152060E-07  0.00000E+00  9.000E+00
       1     1     1     2   513     0  1.753454127E+01 -1.282109030E+01 -9.983993782E+00  2.390877508E+01  3.300000131E-01  0.00000E+00  9.000E+00
      21     1     1     2   511   512  9.865180913E+00  2.278634514E+00  1.141794163E+01  1.526051640E+01  2.920019320E-07  0.00000E+00  9.000E+00
</event>
<event>
      5  10001  3.52971E+09  5.61438E+00 -1.00000E+00  2.30041E-01
      21    -1     0     0   515   512  0.000000000E+00  0.000000000E+00  6.505126325E+01  6.505126325E+01  0.000000000E+00  0.00000E+00  9.000E+00
      21    -1     0     0   512   514  0.000000000E+00  0.000000000E+00 -2.051692053E+00  2.051692053E+00  0.000000000E+00  0.00000E+00  9.000E+00
      -5     1     1     2     0   513  2.727982828E+00 -8.952754354E+00  4.134726056E+01  4.266414957E+01  4.800000191E+00  0.00000E+00  9.000E+00
       5     1     1     2   515     0 -2.409781993E+00  7.439893613E+00  2.064842368E+01  2.259549664E+01  4.800000191E+00  0.00000E+00  9.000E+00
      21     1     1     2   513   514 -3.182008348E-01  1.512860741E+00  1.003886966E+00  1.843309098E+00  2.107342426E-08  0.00000E+00  9.000E+00
</event>
<event>
      5  10001  3.52971E+09  7.23246E+00 -1.00000E+00  2.13562E-01
      21    -1     0     0   515   513  0.000000000E+00  0.000000000E+00  3.599604667E+02  3.599604667E+02  0.000000000E+00  0.00000E+00  9.000E+00
      21    -1     0     0   512   511  0.000000000E+00  0.000000000E+00 -2.999382283E+01  2.999382283E+01  0.000000000E+00  0.00000E+00  9.000E+00
      21     1     1     2   512   514 -4.484649735E+00 -2.450122621E+01 -2.227159020E+01  3.341325933E+01  1.168007728E-06  0.00000E+00  9.000E+00
      21     1     1     2   514   513  1.939792758E+00  3.127117309E+01  1.149732461E+02  1.191658357E+02  2.336015456E-06  0.00000E+00  9.000E+00
      21     1     1     2   515   511  2.544856977E+00 -6.769946885E+00  2.372649879E+02  2.373751945E+02  0.000000000E+00  0.00000E+00  9.000E+00
</event>
<event>
      5  10001  3.52971E+09  9.19569E+00 -1.00000E+00  2.00058E-01
      21    -1     0     0   516   512  0.000000000E+00  0.000000000E+00  3.527460502E+01  3.527460502E+01  0.000000000E+00  0.00000E+00  9.000E+00
      21    -1     0     0   517   516  0.000000000E+00  0.000000000E+00 -8.969109200E+00  8.969109200E+00  0.000000000E+00  0.00000E+00  9.000E+00
      21     1     1     2   517   511 -1.411358543E+01 -3.542927961E+00  1.361772648E+00  1.461506267E+01  2.341901309E-07  0.00000E+00  9.000E+00
      21     1     1     2   511   513  6.237135795E+00 -3.202872089E-01  5.599243441E+00  8.387846799E+00  1.032382731E-07  0.00000E+00  9.000E+00
      21     1     1     2   513   512  7.876449633E+00  3.863215170E+00  1.934447973E+01  2.124080475E+01  3.371747881E-07  0.00000E+00  9.000E+00
</event>
<event>
      5  10001  3.52971E+09  8.77791E+00 -1.00000E+00  2.02532E-01
      21    -1     0     0   514   512  0.000000000E+00  0.000000000E+00  2.934874783E+01  2.934874783E+01  0.000000000E+00  0.00000E+00  9.000E+00
      -2    -1     0     0     0   514  0.000000000E+00  0.000000000E+00 -4.903490966E+00  4.903490966E+00  0.000000000E+00  0.00000E+00  9.000E+00
      -2     1     1     2     0   513 -7.890771147E+00  9.822170086E-01  4.903772656E+00  9.347989400E+00  3.300000131E-01  0.00000E+00  9.000E+00
      -3     1     1     2     0   512  8.079244295E+00 -5.763642333E-02  2.133378747E+01  2.281793150E+01  5.000000000E-01  0.00000E+00  9.000E+00
       3     1     1     2   513     0 -1.884731485E-01 -9.245805853E-01 -1.792303259E+00  2.086317895E+00  5.000000000E-01  0.00000E+00  9.000E+00
</event>
<event>
      5  10001  3.52971E+09  1.04765E+00 -1.00000E+00  6.18220E-01
      -3    -1     0     0     0   511  0.000000000E+00  0.000000000E+00  1.019141254E+01  1.019141254E+01  0.000000000E+00  0.00000E+00  9.000E+00
      -5    -1     0     0     0   513  0.000000000E+00  0.000000000E+00 -2.206119328E+01  2.206119328E+01  0.000000000E+00  0.00000E+00  9.000E+00
      -5     1     1     2     0   512 -4.263917228E+00 -8.555832365E+00 -1.495188608E+01  1.838429103E+01  4.800000191E+00  0.00000E+00  9.000E+00
      -3     1     1     2     0   513  5.565539853E+00  9.544795615E+00  4.261258439E+00  1.185270774E+01  5.000000000E-01  0.00000E+00  9.000E+00
      21     1     1     2   512   511 -1.301622625E+00 -9.889632506E-01 -1.179153104E+00  2.015607058E+00  2.107342426E-08  0.00000E+00  9.000E+00
</event>
<event>
      5  10001  3.52971E+09  4.38832E+00 -1.00000E+00  2.54328E-01
      21    -1     0     0   514   512  0.000000000E+00  0.000000000E+00  9.701981823E+01  9.701981823E+01  0.000000000E+00  0.00000E+00  9.000E+00
      21    -1     0     0   511   514  0.000000000E+00  0.000000000E+00 -1.574302394E+00  1.574302394E+00  0.000000000E+00  0.00000E+00  9.000E+00
      21     1     1     2   511   515 -9.810176953E+00  5.860322809E+00  3.359735756E+01  3.548753852E+01  4.768371582E-07  0.00000E+00  9.000E+00
      21     1     1     2   513   512  6.354994143E+00 -3.907735357E+00  2.630217426E+01  2.733972782E+01  3.371747881E-07  0.00000E+00  9.000E+00
      21     1     1     2   515   513  3.455182810E+00 -1.952587452E+00  3.554598402E+01  3.576685429E+01  6.743495762E-07  0.00000E+00  9.000E+00
</event>
<event>
      5  10001  3.52971E+09  4.39640E+00 -1.00000E+00  2.54153E-01
      21    -1     0     0   516   512  0.000000000E+00  0.000000000E+00  2.460083365E+02  2.460083365E+02  0.000000000E+00  0.00000E+00  9.000E+00
      21    -1     0     0   512   513  0.000000000E+00  0.000000000E+00 -1.269871679E+00  1.269871679E+00  0.000000000E+00  0.00000E+00  9.000E+00
      -2     1     1     2     0   513  8.855172026E+00  1.184173071E+01  5.814939188E+01  6.000084445E+01  3.300000131E-01  0.00000E+00  9.000E+00
       2     1     1     2   511     0 -3.739569389E+00 -9.846763941E+00  1.261357811E+02  1.265752239E+02  3.300000131E-01  0.00000E+00  9.000E+00
      21     1     1     2   516   511 -5.115602637E+00 -1.994966764E+00  6.045329181E+01  6.070213978E+01  1.168007728E-06  0.00000E+00  9.000E+00
</event>
<event>
      5  10001  3.52971E+09  1.46180E+01 -1.00000E+00  1.78442E-01
      21    -1     0     0   514   511  0.000000000E+00  0.000000000E+00  4.011196985E+01  4.011196985E+01  0.000000000E+00  0.00000E+00  9.000E+00
       3    -1     0     0   512     0  0.000000000E+00  0.000000000E+00 -1.007322601E+01  1.007322601E+01  0.000000000E+00  0.00000E+00  9.000E+00
      21     1     1     2   512   511 -9.550130135E+00 -1.380528547E+00  3.346893806E+01  3.483217851E+01  4.768371582E-07  0.00000E+00  9.000E+00
      21     1     1     2   514   513  4.941601875E+00  5.420859517E+00  1.481089045E+00  7.483232708E+00  2.064765462E-07  0.00000E+00  9.000E+00
       3     1     1     2   513     0  4.608528260E+00 -4.040330970E+00 -4.911283267E+00  7.869784648E+00  5.000000000E-01  0.00000E+00  9.000E+00
</event>
<event>
      5  10001  3.52971E+09  5.58971E+00 -1.00000E+00  2.30351E-01
      21    -1     0     0   515   512  0.000000000E+00  0.000000000E+00  2.196699102E+01  2.196699102E+01  0.000000000E+00  0.00000E+00  9.000E+00
      21    -1     0     0   511   516  0.000000000E+00  0.000000000E+00 -6.824174169E+00  6.824174169E+00  0.000000000E+00  0.00000E+00  9.000E+00
      21     1     1     2   515   516 -3.919665904E+00 -9.342562095E+00  7.818034040E+00  1.279722249E+01  2.230201594E-07  0.00000E+00  9.000E+00
      21     1     1     2   511   514  8.257832105E-01  1.068251193E+01  4.604861517E+00  1.166202078E+01  1.976862425E-07  0.00000E+00  9.000E+00
      21     1     1     2   514   512  3.093882694E+00 -1.339949833E+00  2.719921298E+00  4.331921923E+00  9.424321831E-08  0.00000E+00  9.000E+00
</event>
<event>
      5  10001  3.52971E+09  4.58754E+00 -1.00000E+00  2.50183E-01
       1    -1     0     0   513     0  0.000000000E+00  0.000000000E+00  8.535322058E+02  8.535322058E+02  0.000000000E+00  0.00000E+00  9.000E+00
      21    -1     0     0   517   512  0.000000000E+00  0.000000000E+00 -4.000528159E+00  4.000528159E+00  0.000000000E+00  0.00000E+00  9.000E+00
      21     1     1     2   513   512  8.434655502E+00  8.836510948E-01  9.816335400E+00  1.297245903E+01  3.953724850E-07  0.00000E+00  9.000E+00
      21     1     1     2   517   511 -1.115277107E+01 -4.579191414E+00  1.262417487E+01  1.745631942E+01  1.685873940E-07  0.00000E+00  9.000E+00
       1     1     1     2   511     0  2.718115565E+00  3.695540320E+00  8.270911674E+02  8.271039556E+02  3.300000131E-01  0.00000E+00  9.000E+00
</event>
<event>
      5  10001  3.52971E+09  1.13541E+01 -1.00000E+00  1.89586E-01
      21    -1     0     0   512   514  0.000000000E+00  0.000000000E+00  7.288378421E+01  7.288378421E+01  0.000000000E+00  0.00000E+00  9.000E+00
      21    -1     0     0   514   513  0.000000000E+00  0.000000000E+00 -3.113669069E+01  3.113669069E+01  0.000000000E+00  0.00000E+00  9.000E+00
      -4     1     1     2     0   513  1.372470353E+01  1.036186826E+01 -2.275985291E+01  2.856565604E+01  1.500000000E+00  0.00000E+00  9.000E+00
       4     1     1     2   511     0 -5.340232103E+00 -1.800287970E+01  1.343469790E+01  2.313790967E+01  1.500000000E+00  0.00000E+00  9.000E+00
      21     1     1     2   512   511 -8.384471423E+00  7.641011440E+00  5.107224854E+01  5.231690919E+01  6.743495762E-07  0.00000E+00  9.000E+00
</event>
<event>
      5  10001  3.52971E+09  1.97141E+01 -1.00000E+00  1.66883E-01
      21    -1     0     0   515   511  0.000000000E+00  0.000000000E+00  1.596184042E+02  1.596184042E+02  0.000000000E+00  0.00000E+00  9.000E+00
       1    -1     0     0   514     0  0.000000000E+00  0.000000000E+00 -9.921731789E+02  9.921731789E+02  0.000000000E+00  0.00000E+00  9.000E+00
      21     1     1     2   515   516  1.276357649E+01  1.198418265E+01  1.497070660E+02  1.507273536E+02  1.907348633E-06  0.00000E+00  9.000E+00
      21     1     1     2   514   511 -1.681581853E+01  7.308913333E+00  2.670921109E-01  1.833748361E+01  7.491817203E-07  0.00000E+00  9.000E+00
       1     1     1     2   516     0  4.052242036E+00 -1.929309598E+01 -9.825289328E+02  9.827267458E+02  3.300000131E-01  0.00000E+00  9.000E+00
</event>
<event>
      5  10001  3.52971E+09  1.27644E+01 -1.00000E+00  1.84248E-01
      21    -1     0     0   512   511  0.000000000E+00  0.000000000E+00  6.041960033E+00  6.041960033E+00  0.000000000E+00  0.00000E+00  9.000E+00
      21    -1     0     0   513   512  0.000000000E+00  0.000000000E+00 -3.355911179E+01  3.355911179E+01  0.000000000E+00  0.00000E+00  9.000E+00
      21     1     1     2   514   511 -2.208102123E+00 -6.195028188E+00 -1.791780014E-01  6.579224421E+00  1.214010323E-07  0.00000E+00  9.000E+00
      21     1     1     2   513   515 -3.587265961E+00  7.413648576E+00 -2.553656271E+01  2.683182247E+01  3.371747881E-07  0.00000E+00  9.000E+00
      21     1     1     2   515   514  5.795368084E+00 -1.218620389E+00 -1.801411050E+00  6.190024931E+00  8.161702119E-08  0.00000E+00  9.000E+00
</event>
<event>
      5  10001  3.52971E+09  2.28979E+01 -1.00000E+00  1.61659E-01
      21    -1     0     0   516   513  0.000000000E+00  0.000000000E+00  9.381962261E+00  9.381962261E+00  0.000000000E+00  0.00000E+00  9.000E+00
      21    -1     0     0   511   514  0.000000000E+00  0.000000000E+00 -2.618529489E+01  2.618529489E+01  0.000000000E+00  0.00000E+00  9.000E+00
      21     1     1     2   516   514  6.011142368E+00  1.708443718E-01  6.670599758E-01  6.050453650E+00  9.305772183E-08  0.00000E+00  9.000E+00
      21     1     1     2   512   513 -9.492774329E+00 -1.366872810E+00  1.919210946E+00  9.780821867E+00  2.032247439E-07  0.00000E+00  9.000E+00
      21     1     1     2   511   512  3.481631962E+00  1.196028438E+00 -1.938960355E+01  1.973598163E+01  0.000000000E+00  0.00000E+00  9.000E+00
</event>
<event>
      5  10001  3.52971E+09  3.04148E+01 -1.00000E+00  1.52624E-01
      21    -1     0     0   515   512  0.000000000E+00  0.000000000E+00  4.322677165E+01  4.322677165E+01  0.000000000E+00  0.00000E+00  9.000E+00
      21    -1     0     0   511   515  0.000000000E+00  0.000000000E+00 -1.860391951E+01  1.860391951E+01  0.000000000E+00  0.00000E+00  9.000E+00
      21     1     1     2   511   517  6.553071298E+00 -3.627220742E+00 -6.783775312E+00  1.010539862E+01  1.192092896E-07  0.00000E+00  9.000E+00
      21     1     1     2   517   513 -6.056635134E+00  1.558191012E+01  3.536930073E+01  3.912117312E+01  6.743495762E-07  0.00000E+00  9.000E+00
      21     1     1     2   513   512 -4.964361635E-01 -1.195468938E+01 -3.962673284E+00  1.260411943E+01  1.032382731E-07  0.00000E+00  9.000E+00
</event>
<event>
      5  10001  3.52971E+09  1.79235E+01 -1.00000E+00  1.70392E-01
      21    -1     0     0   514   516  0.000000000E+00  0.000000000E+00  3.541073909E+02  3.541073909E+02  0.000000000E+00  0.00000E+00  9.000E+00
      21    -1     0     0   511   512  0.000000000E+00  0.000000000E+00 -4.637831296E+00  4.637831296E+00  0.000000000E+00  0.00000E+00  9.000E+00
      21     1     1     2   514   512  2.785550289E+01  9.882759406E+00  2.787987426E+02  2.803610829E+02  3.814697266E-06  0.00000E+00  9.000E+00
      21     1     1     2   511   515 -1.433695774E+01 -1.126008152E+01  5.328991077E+01  5.632186416E+01  9.536743164E-07  0.00000E+00  9.000E+00
      21     1     1     2   515   516 -1.351854515E+01  1.377322116E+00  1.738090626E+01  2.206227508E+01  1.011524364E-06  0.00000E+00  9.000E+00
</event>
<event>
      5  10001  3.52971E+09  1.14705E+01 -1.00000E+00  1.89108E-01
      -1    -1     0     0     0   513  0.000000000E+00  0.000000000E+00  1.716425377E+01  1.716425377E+01  0.000000000E+00  0.00000E+00  9.000E+00
      21    -1     0     0   513   514  0.000000000E+00  0.000000000E+00 -2.440213345E+01  2.440213345E+01  0.000000000E+00  0.00000E+00  9.000E+00
      21     1     1     2   511   515 -4.646735984E+00  1.057706556E+00  7.430461617E+00  8.827381169E+00  3.039252468E-07  0.00000E+00  9.000E+00
      21     1     1     2   515   514  5.676785930E+00  7.965982011E+00 -1.995601335E+01  2.222442883E+01  3.371747881E-07  0.00000E+00  9.000E+00
      -1     1     1     2     0   511 -1.030049946E+00 -9.023688567E+00  5.287672055E+00  1.051457722E+01  3.300000131E-01  0.00000E+00  9.000E+00
</event>
<event>
      5  10001  3.52971E+09  2.07434E+00 -1.00000E+00  3.55819E-01
       5    -1     0     0   511     0  0.000000000E+00  0.000000000E+00  5.974520119E+01  5.974520119E+01  0.000000000E+00  0.00000E+00  9.000E+00
      -2    -1     0     0     0   511  0.000000000E+00  0.000000000E+00 -1.813682734E+01  1.813682734E+01  0.000000000E+00  0.00000E+00  9.000E+00
      -2     1     1     2     0   512  3.333648295E+00 -1.155184491E+01 -1.524716128E+01  1.942017402E+01  3.300000131E-01  0.00000E+00  9.000E+00
      21     1     1     2   512   513 -2.086818033E+00  4.777856390E+00  2.214938831E+01  2.275473849E+01  4.129530925E-07  0.00000E+00  9.000E+00
       5     1     1     2   513     0 -1.246830263E+00  6.773988515E+00  3.470614681E+01  3.570711602E+01  4.800000191E+00  0.00000E+00  9.000E+00
</event>
<event>
      5  10001  3.52971E+09  5.67769E+00 -1.00000E+00  2.29255E-01
      21    -1     0     0   514   512  0.000000000E+00  0.000000000E+00  1.377348036E+02  1.377348036E+02  0.000000000E+00  0.00000E+00  9.000E+00
      21    -1     0     0   516   515  0.000000000E+00  0.000000000E+00 -1.018332004E+00  1.018332004E+00  0.000000000E+00  0.00000E+00  9.000E+00
      21     1     1     2   514   515 -8.651328465E+00 -1.703878783E+00  3.126138195E+01  3.248111279E+01  5.840038640E-07  0.00000E+00  9.000E+00
      21     1     1     2   516   511  7.479087075E+00 -4.430052472E-02  1.016401149E+02  1.019149236E+02  1.907348633E-06  0.00000E+00  9.000E+00
      21     1     1     2   511   512  1.172241390E+00  1.748179308E+00  3.814974782E+00  4.357099190E+00  0.000000000E+00  0.00000E+00  9.000E+00
</event>
<event>
      5  10001  3.52971E+09  1.60463E+01 -1.00000E+00  1.74665E-01
      21    -1     0     0   513   515  0.000000000E+00  0.000000000E+00  3.817351423E+00  3.817351423E+00  0.000000000E+00  0.00000E+00  9.000E+00
      21    -1     0     0   517   512  0.000000000E+00  0.000000000E+00 -1.157684675E+02  1.157684675E+02  0.000000000E+00  0.00000E+00  9.000E+00
      21     1     1     2   513   512 -1.470439076E+01  1.375165140E+00 -7.260115790E+01  7.408804435E+01  1.348699152E-06  0.00000E+00  9.000E+00
      21     1     1     2   514   515  9.623214971E+00 -8.882054499E+00 -2.846206844E+01  3.133028086E+01  5.840038640E-07  0.00000E+00  9.000E+00
      21     1     1     2   517   514  5.081175789E+00  7.506889358E+00 -1.088788970E+01  1.416749369E+01  2.920019320E-07  0.00000E+00  9.000E+00
</event>
<event>
      5  10001  3.52971E+09  2.41333E+01 -1.00000E+00  1.59904E-01
      21    -1     0     0   511   512  0.000000000E+00  0.000000000E+00  8.048148599E+00  8.048148599E+00  0.000000000E+00  0.00000E+00  9.000E+00
      21    -1     0     0   516   511  0.000000000E+00  0.000000000E+00 -2.653381939E+01  2.653381939E+01  0.000000000E+00  0.00000E+00  9.000E+00
      21     1     1     2   516   517 -4.332170310E+00  1.556257840E+00 -3.604743785E+00  5.846692724E+00  2.308477966E-07  0.00000E+00  9.000E+00
      21     1     1     2   517   513  5.139941341E+00  3.405903531E+00 -2.037532595E+01  2.128786235E+01  2.384185791E-07  0.00000E+00  9.000E+00
      21     1     1     2   513   512 -8.077710316E-01 -4.962161372E+00  5.494398938E+00  7.447412920E+00  2.308477966E-07  0.00000E+00  9.000E+00
</event>
<event>
      5  10001  3.52971E+09  6.09953E+00 -1.00000E+00  2.24362E-01
       4    -1     0     0   514     0  0.000000000E+00  0.000000000E+00  1.651505716E+01  1.651505716E+01  0.000000000E+00  0.00000E+00  9.000E+00
      21    -1     0     0   513   511  0.000000000E+00  0.000000000E+00 -9.218849643E+00  9.218849643E+00  0.000000000E+00  0.00000E+00  9.000E+00
      21     1     1     2   514   515 -2.162995699E-01 -1.492365354E+00  1.904443557E+00  2.429165518E+00  6.322027277E-08  0.00000E+00  9.000E+00
       4     1     1     2   513     0  2.454989251E-01  1.187667626E+01  9.527191881E-01  1.201138554E+01  1.500000000E+00  0.00000E+00  9.000E+00
      21     1     1     2   515   511 -2.919935523E-02 -1.038431091E+01  4.439044776E+00  1.129335575E+01  2.457562462E-07  0.00000E+00  9.000E+00
</event>
<event>
      5  10001  3.52971E+09  5.90143E+00 -1.00000E+00  2.26589E-01
      21    -1     0     0   512   513  0.000000000E+00  0.000000000E+00  1.842441673E+00  1.842441673E+00  0.000000000E+00  0.00000E+00  9.000E+00
      21    -1     0     0   516   512  0.000000000E+00  0.000000000E+00 -1.755290296E+02  1.755290296E+02  0.000000000E+00  0.00000E+00  9.000E+00
      21     1     1     2   511   513  1.075608813E+01 -4.375611057E+00 -2.038260611E+01  2.345826157E+01  4.129530925E-07  0.00000E+00  9.000E+00
      21     1     1     2   516   514 -9.405812991E+00  1.858038644E+00 -8.312161024E+01  8.367271786E+01  9.536743164E-07  0.00000E+00  9.000E+00
      21     1     1     2   514   511 -1.350275144E+00  2.517572413E+00 -7.018237160E+01  7.024049186E+01  0.000000000E+00  0.00000E+00  9.000E+00
</event>
<event>
      5  10001  3.52971E+09  9.06132E+00 -1.00000E+00  2.00835E-01
      21    -1     0     0   515   513  0.000000000E+00  0.000000000E+00  1.032295168E+01  1.032295168E+01  0.000000000E+00  0.00000E+00  9.000E+00
       2    -1     0     0   517     0  0.000000000E+00  0.000000000E+00 -4.455653433E+02  4.455653433E+02  0.000000000E+00  0.00000E+00  9.000E+00
      21     1     1     2   517   511  1.465341091E+01  3.103240596E+00 -1.027586601E+02  1.038445703E+02  1.348699152E-06  0.00000E+00  9.000E+00
      21     1     1     2   511   513 -5.846916542E+00 -9.697165110E-01  8.816298532E+00  1.062327176E+01  5.462855929E-07  0.00000E+00  9.000E+00
       2     1     1     2   515     0 -8.806494365E+00 -2.133524085E+00 -3.413000301E+02  3.414204529E+02  3.300000131E-01  0.00000E+00  9.000E+00
</event>
<event>
      5  10001  3.52971E+09  2.38350E+01 -1.00000E+00  1.60316E-01
      21    -1     0     0   512   511  0.000000000E+00  0.000000000E+00  5.909627120E+01  5.909627120E+01  0.000000000E+00  0.00000E+00  9.000E+00
      21    -1     0     0   516   514  0.000000000E+00  0.000000000E+00 -9.564153204E+01  9.564153204E+01  0.000000000E+00  0.00000E+00  9.000E+00
      21     1     1     2   512   514 -9.652187938E+00  1.218864684E+01 -9.280141326E+01  9.409479341E+01  1.348699152E-06  0.00000E+00  9.000E+00
      21     1     1     2   516   513 -4.533651786E+00 -4.767099965E+00  1.839621369E+01  1.953714203E+01  0.000000000E+00  0.00000E+00  9.000E+00
      21     1     1     2   513   511  1.418583972E+01 -7.421546876E+00  3.785993873E+01  4.110586780E+01  9.536743164E-07  0.00000E+00  9.000E+00
</event>
<event>
      5  10001  3.52971E+09  3.61907E+00 -1.00000E+00  2.74141E-01
      -1    -1     0     0     0   511  0.000000000E+00  0.000000000E+00  2.744896968E+02  2.744896968E+02  0.000000000E+00  0.00000E+00  9.000E+00
      21    -1     0     0   511   512  0.000000000E+00  0.000000000E+00 -7.430899788E-01  7.430899788E-01  0.000000000E+00  0.00000E+00  9.000E+00
      -1     1     1     2     0   514 -2.683669413E+00  5.700634415E+00  1.393387769E+02  1.394815506E+02  3.300000131E-01  0.00000E+00  9.000E+00
      21     1     1     2   513   512  7.113269800E+00 -9.423565760E+00  6.211266348E+01  6.322487773E+01  9.536743164E-07  0.00000E+00  9.000E+00
      21     1     1     2   514   513 -4.429600387E+00  3.722931345E+00  7.229516647E+01  7.252635847E+01  1.651812370E-06  0.00000E+00  9.000E+00
</event>
<event>
      5  10001  3.52971E+09  4.95789E+01 -1.00000E+00  1.39283E-01
      21    -1     0     0   515   512  0.000000000E+00  0.000000000E+00  8.971269450E+00  8.971269450E+00  0.000000000E+00  0.00000E+00  9.000E+00
      21    -1     0     0   511   515  0.000000000E+00  0.000000000E+00 -1.045937237E+02  1.045937237E+02  0.000000000E+00  0.00000E+00  9.000E+00
      21     1     1     2   513   512  1.191147811E+01 -1.108133434E+01 -1.720937599E+01  2.368210091E+01  5.331201500E-07  0.00000E+00  9.000E+00
      21     1     1     2   516   513 -1.087561550E+01 -1.249968805E+01 -1.550341429E+01  2.269090277E+01  3.371747881E-07  0.00000E+00  9.000E+00
      21     1     1     2   511   516 -1.035862614E+00  2.358102239E+01 -6.290966392E+01  6.719198943E+01  0.000000000E+00  0.00000E+00  9.000E+00
</event>
<event>
      5  10001  3.52971E+09  1.09837E+01 -1.00000E+00  1.91157E-01
      21    -1     0     0   513   512  0.000000000E+00  0.000000000E+00  3.963128530E+00  3.963128530E+00  0.000000000E+00  0.00000E+00  9.000E+00
      21    -1     0     0   511   514  0.000000000E+00  0.000000000E+00 -3.261224756E+02  3.261224756E+02  0.000000000E+00  0.00000E+00  9.000E+00
      21     1     1     2   511   517  1.209113514E+01 -1.319526837E+01 -2.181149534E+02  2.188479919E+02  2.697398305E-06  0.00000E+00  9.000E+00
      21     1     1     2   517   512 -2.976960082E+00  1.932503683E+01 -9.505224099E+01  9.704250541E+01  2.697398305E-06  0.00000E+00  9.000E+00
      21     1     1     2   513   514 -9.114175056E+00 -6.129768454E+00 -8.992152695E+00  1.419510684E+01  2.920019320E-07  0.00000E+00  9.000E+00
</event>
<event>
      5  10001  3.52971E+09  1.36102E+01 -1.00000E+00  1.81452E-01
      21    -1     0     0   515   514  0.000000000E+00  0.000000000E+00  3.296698111E+01  3.296698111E+01  0.000000000E+00  0.00000E+00  9.000E+00
      21    -1     0     0   516   515  0.000000000E+00  0.000000000E+00 -6.864878526E+01  6.864878526E+01  0.000000000E+00  0.00000E+00  9.000E+00
      21     1     1     2   516   511  1.638746582E+01 -2.973279321E+00 -5.850354407E+01  6.082806996E+01  0.000000000E+00  0.00000E+00  9.000E+00
      21     1     1     2   512   514 -2.003852759E+01 -5.203735407E+00  2.406689262E+01  3.174644501E+01  1.215700987E-06  0.00000E+00  9.000E+00
      21     1     1     2   511   512  3.651061763E+00  8.177014729E+00 -1.245152701E+00  9.041251414E+00  1.541388099E-07  0.00000E+00  9.000E+00
</event>
<event>
      5  10001  3.52971E+09  9.12072E+00 -1.00000E+00  2.00489E-01
      21    -1     0     0   516   512  0.000000000E+00  0.000000000E+00  5.405688490E+01  5.405688490E+01  0.000000000E+00  0.00000E+00  9.000E+00
      -2    -1     0     0     0   513  0.000000000E+00  0.000000000E+00 -6.550793267E+00  6.550793267E+00  0.000000000E+00  0.00000E+00  9.000E+00
      -2     1     1     2     0   512 -2.928832958E+00  1.151746794E+01  4.384281920E+00  1.267126506E+01  3.300000131E-01  0.00000E+00  9.000E+00
      21     1     1     2   514   513  6.664229832E+00 -1.457427927E+01  3.487756707E+01  3.838315074E+01  0.000000000E+00  0.00000E+00  9.000E+00
      21     1     1     2   516   514 -3.735396874E+00  3.056811330E+00  8.244242638E+00  9.553262374E+00  1.192092896E-07  0.00000E+00  9.000E+00
</event>
<event>
      5  10001  3.52971E+09  4.63240E+00 -1.00000E+00  2.49294E-01
      21    -1     0     0   511   513  0.000000000E+00  0.000000000E+00  3.863086954E+01  3.863086954E+01  0.000000000E+00  0.00000E+00  9.000E+00
      21    -1     0     0   515   511  0.000000000E+00  0.000000000E+00 -1.218742009E+02  1.218742009E+02  0.000000000E+00  0.00000E+00  9.000E+00
      21     1     1     2   514   513 -6.364206816E+00  7.846012503E+00  3.718926071E+01  3.853704909E+01  1.261592536E-06  0.00000E+00  9.000E+00
      21     1     1     2   512   514  2.336264099E+00 -6.268448150E+00 -1.141173783E+02  1.143132871E+02  1.348699152E-06  0.00000E+00  9.000E+00
      21     1     1     2   515   512  4.027942717E+00 -1.577564353E+00 -6.315213808E+00  7.654734304E+00  1.192092896E-07  0.00000E+00  9.000E+00
</event>
<event>
      5  10001  3.52971E+09  1.29892E+01 -1.00000E+00  1.83478E-01
      21    -1     0     0   511   512  0.000000000E+00  0.000000000E+00  6.085270021E+01  6.085270021E+01  0.000000000E+00  0.00000E+00  9.000E+00
       4    -1     0     0   513     0  0.000000000E+00  0.000000000E+00 -3.239089568E+02  3.239089568E+02  0.000000000E+00  0.00000E+00  9.000E+00
      21     1     1     2   513   512 -1.067891500E+01 -3.512540584E+01 -2.116638501E+02  2.148241579E+02  2.697398305E-06  0.00000E+00  9.000E+00
       4     1     1     2   515     0  9.598115719E-01  2.650955541E+01 -1.083282779E+02  1.115389777E+02  1.500000000E+00  0.00000E+00  9.000E+00
      21     1     1     2   511   515  9.719103429E+00  8.615850432E+00  5.693587140E+01  5.839852140E+01  2.023048729E-06  0.00000E+00  9.000E+00
</event>
<event>
      5  10001  3.52971E+09  7.15800E+00 -1.00000E+00  2.14187E-01
      21    -1     0     0   514   513  0.000000000E+00  0.000000000E+00  1.273331282E+02  1.273331282E+02  0.000000000E+00  0.00000E+00  9.000E+00
       1    -1     0     0   512     0  0.000000000E+00  0.000000000E+00 -2.808949419E+02  2.808949419E+02  0.000000000E+00  0.00000E+00  9.000E+00
      21     1     1     2   514   516  1.791669079E+01 -3.828638125E+00  1.824414238E+01  2.585565722E+01  6.307962682E-07  0.00000E+00  9.000E+00
      21     1     1     2   512   513 -1.075967860E+01  3.710106935E+00  1.049291270E+02  1.055445748E+02  1.348699152E-06  0.00000E+00  9.000E+00
       1     1     1     2   516     0 -7.157012192E+00  1.185311902E-01 -2.767350831E+02  2.768278381E+02  3.300000131E-01  0.00000E+00  9.000E+00
</event>
<event>
      5  10001  3.52971E+09  1.05945E+01 -1.00000E+00  1.92898E-01
       2    -1     0     0   512     0  0.000000000E+00  0.000000000E+00  6.752806513E+02  6.752806513E+02  0.000000000E+00  0.00000E+00  9.000E+00
      21    -1     0     0   513   515  0.000000000E+00  0.000000000E+00 -1.110639988E+01  1.110639988E+01  0.000000000E+00  0.00000E+00  9.000E+00
      21     1     1     2   512   515 -2.241353322E+01  2.120968676E+00  3.766211200E+02  3.772934309E+02  5.394796609E-06  0.00000E+00  9.000E+00
       2     1     1     2   511     0  1.596177391E+01  6.282348899E+00  2.954074943E+02  2.959052935E+02  3.300000131E-01  0.00000E+00  9.000E+00
      21     1     1     2   513   511  6.451759311E+00 -8.403317575E+00 -7.854362935E+00  1.318832672E+01  3.264680848E-07  0.00000E+00  9.000E+00
</event>
<event>
      5  10001  3.52971E+09  2.95496E+00 -1.00000E+00  2.98865E-01
      21    -1     0     0   512   514  0.000000000E+00  0.000000000E+00  3.515118048E+02  3.515118048E+02  0.000000000E+00  0.00000E+00  9.000E+00
       2    -1     0     0   514     0  0.000000000E+00  0.000000000E+00 -5.225240485E+02  5.225240485E+02  0.000000000E+00  0.00000E+00  9.000E+00
      21     1     1     2   511   513  2.122043727E+00 -1.281148640E+01 -1.132217608E+02  1.139640486E+02  3.814697266E-06  0.00000E+00  9.000E+00
       2     1     1     2   513     0 -4.108943612E+00  1.062424704E+01 -4.088455304E+02  4.090043211E+02  3.300000131E-01  0.00000E+00  9.000E+00
      21     1     1     2   512   511  1.986899885E+00  2.187239361E+00  3.510550475E+02  3.510674837E+02  3.814697266E-06  0.00000E+00  9.000E+00
</event>
<event>
      5  10001  3.52971E+09  7.62073E+00 -1.00000E+00  2.10462E-01
      21    -1     0     0   515   513  0.000000000E+00  0.000000000E+00  2.549205921E+01  2.549205921E+01  0.000000000E+00  0.00000E+00  9.000E+00
      21    -1     0     0   514   515  0.000000000E+00  0.000000000E+00 -7.758795019E+00  7.758795019E+00  0.000000000E+00  0.00000E+00  9.000E+00
      21     1     1     2   514   511  1.093660640E+01  5.457577823E+00  3.151173564E+00  1.262237736E+01  1.519626234E-07  0.00000E+00  9.000E+00
      21     1     1     2   511   516 -4.559349056E+00 -2.480099629E+00  1.209887613E+01  1.316515711E+01  0.000000000E+00  0.00000E+00  9.000E+00
      21     1     1     2   516   513 -6.377257347E+00 -2.977478194E+00  2.483214493E+00  7.463319763E+00  8.429369702E-08  0.00000E+00  9.000E+00
</event>
<event>
      5  10001  3.52971E+09  2.58907E+01 -1.00000E+00  1.57618E-01
      21    -1     0     0   512   511  0.000000000E+00  0.000000000E+00  5.610307520E+01  5.610307520E+01  0.000000000E+00  0.00000E+00  9.000E+00
      21    -1     0     0   514   513  0.000000000E+00  0.000000000E+00 -2.217359842E+01  2.217359842E+01  0.000000000E+00  0.00000E+00  9.000E+00
      21     1     1     2   512   513  1.584595282E+01  9.802798309E+00  3.882094519E+01  4.306105968E+01  6.743495762E-07  0.00000E+00  9.000E+00
      21     1     1     2   515   511  2.159595953E+00 -9.424585368E+00 -1.238249073E+01  1.571027500E+01  3.371747881E-07  0.00000E+00  9.000E+00
      21     1     1     2   514   515 -1.800554878E+01 -3.782129408E-01  7.491022314E+00  1.950533894E+01  3.153981341E-07  0.00000E+00  9.000E+00
</event>
<event>
      5  10001  3.52971E+09  1.42985E+01 -1.00000E+00  1.79362E-01
      21    -1     0     0   512   511  0.000000000E+00  0.000000000E+00  3.643480570E+00  3.643480570E+00  0.000000000E+00  0.00000E+00  9.000E+00
       1    -1     0     0   515     0  0.000000000E+00  0.000000000E+00 -4.031939714E+02  4.031939714E+02  0.000000000E+00  0.00000E+00  9.000E+00
      21     1     1     2   515   511  2.391543884E+01 -1.386606947E+01 -1.110513195E+02  1.144404284E+02  2.336015456E-06  0.00000E+00  9.000E+00
       1     1     1     2   514     0 -2.367634523E+01 -4.300618563E-01 -2.532996539E+02  2.544043589E+02  3.300000131E-01  0.00000E+00  9.000E+00
      21     1     1     2   512   514 -2.390936118E-01  1.429613133E+01 -3.519951746E+01  3.799266464E+01  0.000000000E+00  0.00000E+00  9.000E+00
</event>
<event>
      5  10001  3.52971E+09  2.63330E+01 -1.00000E+00  1.57076E-01
      21    -1     0     0   513   515  0.000000000E+00  0.000000000E+00  1.731521616E+00  1.731521616E+00  0.000000000E+00  0.00000E+00  9.000E+00
      21    -1     0     0   516   513  0.000000000E+00  0.000000000E+00 -1.825257054E+02  1.825257054E+02  0.000000000E+00  0.00000E+00  9.000E+00
      21     1     1     2   514   515 -1.141306519E+01 -3.325410474E+00 -5.501338114E+01  5.628311040E+01  6.743495762E-07  0.00000E+00  9.000E+00
      21     1     1     2   511   514  1.940008266E+00 -3.696330251E+00 -4.564230403E+00  6.185360828E+00  2.528810911E-07  0.00000E+00  9.000E+00
      21     1     1     2   516   511  9.473056927E+00  7.021740725E+00 -1.212165723E+02  1.217887558E+02  1.348699152E-06  0.00000E+00  9.000E+00
</event>
<event>
      5  10001  3.52971E+09  9.58913E+00 -1.00000E+00  1.97883E-01
      21    -1     0     0   512   511  0.000000000E+00  0.000000000E+00  3.498496085E-01  3.498496085E-01  0.000000000E+00  0.00000E+00  9.000E+00
       2    -1     0     0   515     0  0.000000000E+00  0.000000000E+00 -6.769007615E+02  6.769007615E+02  0.000000000E+00  0.00000E+00  9.000E+00
      21     1     1     2   515   511 -1.375966188E+00  1.264364101E+01 -1.727157639E+02  1.731834001E+02  3.814697266E-06  0.00000E+00  9.000E+00
      21     1     1     2   512   513 -2.487177657E+00 -6.826032001E+00 -1.648929135E+02  1.650528815E+02  1.907348633E-06  0.00000E+00  9.000E+00
       2     1     1     2   513     0  3.863143845E+00 -5.817609011E+00 -3.389422345E+02  3.390143296E+02  3.300000131E-01  0.00000E+00  9.000E+00
</event>
<event>
      5  10001  3.52971E+09  6.55444E+00 -1.00000E+00  2.19665E-01
       1    -1     0     0   514     0  0.000000000E+00  0.000000000E+00  4.764798254E+00  4.764798254E+00  0.000000000E+00  0.00000E+00  9.000E+00
      21    -1     0     0   512   511  0.000000000E+00  0.000000000E+00 -3.770430708E+02  3.770430708E+02  0.000000000E+00  0.00000E+00  9.000E+00
      21     1     1     2   512   513 -2.995407910E+01  4.091965710E+00 -8.946158412E+01  9.443180646E+01  1.651812370E-06  0.00000E+00  9.000E+00
       1     1     1     2   513     0  3.089168943E+01 -1.057887073E+01 -1.181653766E+02  1.225943478E+02  3.300000131E-01  0.00000E+00  9.000E+00
      21     1     1     2   514   511 -9.376103291E-01  6.486905017E+00 -1.646513118E+02  1.647817148E+02  2.697398305E-06  0.00000E+00  9.000E+00
</event>
<event>
      5  10001  3.52971E+09  1.86652E+01 -1.00000E+00  1.68879E-01
      21    -1     0     0   513   512  0.000000000E+00  0.000000000E+00  2.169424504E+02  2.169424504E+02  0.000000000E+00  0.00000E+00  9.000E+00
       3    -1     0     0   512     0  0.000000000E+00  0.000000000E+00 -2.366167996E+00  2.366167996E+00  0.000000000E+00  0.00000E+00  9.000E+00
      21     1     1     2   513   516 -1.352931820E+01  1.737670851E+00  1.181018111E+02  1.188869200E+02  1.348699152E-06  0.00000E+00  9.000E+00
       3     1     1     2   515     0  8.184900718E+00  7.664521998E+00  1.805229345E+01  2.125729983E+01  5.000000000E-01  0.00000E+00  9.000E+00
      21     1     1     2   516   515  5.344417478E+00 -9.402192849E+00  7.842217782E+01  7.916439858E+01  1.348699152E-06  0.00000E+00  9.000E+00
</event>
<event>
      5  10001  3.52971E+09  4.67115E+00 -1.00000E+00  2.48538E-01
      21    -1     0     0   511   515  0.000000000E+00  0.000000000E+00  3.720941955E+00  3.720941955E+00  0.000000000E+00  0.00000E+00  9.000E+00
      21    -1     0     0   512   513  0.000000000E+00  0.000000000E+00 -1.925246988E+02  1.925246988E+02  0.000000000E+00  0.00000E+00  9.000E+00
      21     1     1     2   511   514  2.257788084E-01 -1.184481803E+01 -1.301345005E+01  1.759831163E+01  2.920019320E-07  0.00000E+00  9.000E+00
      21     1     1     2   512   515 -3.652310309E+00  8.670141826E+00 -1.447080226E+01  1.726020997E+01  2.384185791E-07  0.00000E+00  9.000E+00
      21     1     1     2   514   513  3.426531501E+00  3.174676200E+00 -1.613195045E+02  1.613871191E+02  2.697398305E-06  0.00000E+00  9.000E+00
</event>
<event>
      5  10001  3.52971E+09  2.44335E+00 -1.00000E+00  3.26816E-01
       2    -1     0     0   512     0  0.000000000E+00  0.000000000E+00  5.419650660E+01  5.419650660E+01  0.000000000E+00  0.00000E+00  9.000E+00
      21    -1     0     0   516   511  0.000000000E+00  0.000000000E+00 -5.840477454E+00  5.840477454E+00  0.000000000E+00  0.00000E+00  9.000E+00
      21     1     1     2   512   513 -1.237640299E+01 -3.924012996E+00  3.597693044E+01  3.824804247E+01  9.536743164E-07  0.00000E+00  9.000E+00
       2     1     1     2   516     0  1.481823998E+01  4.003681193E+00  9.687849674E+00  1.815414637E+01  3.300000131E-01  0.00000E+00  9.000E+00
      21     1     1     2   513   511 -2.441836989E+00 -7.966819657E-02  2.691249037E+00  3.634795218E+00  5.161913656E-08  0.00000E+00  9.000E+00
</event>
<event>
      5  10001  3.52971E+09  6.07623E+00 -1.00000E+00  2.24617E-01
      21    -1     0     0   513   515  0.000000000E+00  0.000000000E+00  3.850764680E+01  3.850764680E+01  0.000000000E+00  0.00000E+00  9.000E+00
       1    -1     0     0   515     0  0.000000000E+00  0.000000000E+00 -4.893842433E+02  4.893842433E+02  0.000000000E+00  0.00000E+00  9.000E+00
      21     1     1     2   513   512 -7.951727115E+00 -2.667613142E+00  3.522501311E+01  3.620977316E+01  4.498472754E-06  0.00000E+00  9.000E+00
       1     1     1     2   514     0  8.594544628E+00  8.673401712E+00 -4.854537278E+02  4.856073773E+02  3.300000131E-01  0.00000E+00  9.000E+00
      21     1     1     2   512   514 -6.428175138E-01 -6.005788570E+00 -6.478817356E-01  6.074739620E+00  3.924129630E-07  0.00000E+00  9.000E+00
</event>
<event>
      5  10001  3.52971E+09  1.01831E+01 -1.00000E+00  1.94846E-01
      21    -1     0     0   512   514  0.000000000E+00  0.000000000E+00  3.480373564E+00  3.480373564E+00  0.000000000E+00  0.00000E+00  9.000E+00
       2    -1     0     0   514     0  0.000000000E+00  0.000000000E+00 -1.277019729E+02  1.277019729E+02  0.000000000E+00  0.00000E+00  9.000E+00
      21     1     1     2   512   511 -1.288240184E+01 -8.479449183E+00 -2.180361740E+01  2.670683559E+01  4.129530925E-07  0.00000E+00  9.000E+00
       2     1     1     2   513     0  8.424126340E+00  1.642310921E+00 -8.255866087E+01  8.300424371E+01  3.300000131E-01  0.00000E+00  9.000E+00
      21     1     1     2   511   513  4.458275502E+00  6.837138262E+00 -1.985932102E+01  2.147126712E+01  4.129530925E-07  0.00000E+00  9.000E+00
</event>
<event>
      5  10001  3.52971E+09  7.71257E+00 -1.00000E+00  2.09765E-01
      21    -1     0     0   512   513  0.000000000E+00  0.000000000E+00  8.144158405E+01  8.144158405E+01  0.000000000E+00  0.00000E+00  9.000E+00
       2    -1     0     0   511     0  0.000000000E+00  0.000000000E+00 -2.393973000E+01  2.393973000E+01  0.000000000E+00  0.00000E+00  9.000E+00
      21     1     1     2   511   513 -4.760246009E+00  9.751937963E+00  2.202362163E+00  1.107296867E+01  1.884864366E-07  0.00000E+00  9.000E+00
       2     1     1     2   515     0  1.235573300E+01 -8.413900311E+00 -1.640132903E+01  2.219392597E+01  3.300000131E-01  0.00000E+00  9.000E+00
      21     1     1     2   512   515 -7.595486990E+00 -1.338037652E+00  7.170082091E+01  7.211441941E+01  0.000000000E+00  0.00000E+00  9.000E+00
</event>
<event>
      5  10001  3.52971E+09  5.41674E+00 -1.00000E+00  2.32592E-01
      21    -1     0     0   514   513  0.000000000E+00  0.000000000E+00  7.971834612E+01  7.971834612E+01  0.000000000E+00  0.00000E+00  9.000E+00
      21    -1     0     0   511   516  0.000000000E+00  0.000000000E+00 -1.111588155E+01  1.111588155E+01  0.000000000E+00  0.00000E+00  9.000E+00
      21     1     1     2   514   516 -4.780046119E+00 -9.651276055E+00 -7.581600210E+00  1.317105281E+01  3.153981341E-07  0.00000E+00  9.000E+00
      21     1     1     2   511   517  7.714380595E+00  6.255547647E+00  6.186809680E+01  6.266023417E+01  0.000000000E+00  0.00000E+00  9.000E+00
      21     1     1     2   517   513 -2.934334476E+00  3.395728407E+00  1.431596798E+01  1.500294069E+01  2.920019320E-07  0.00000E+00  9.000E+00
</event>
<event>
      5  10001  3.52971E+09  2.55981E+01 -1.00000E+00  1.57983E-01
      21    -1     0     0   515   511  0.000000000E+00  0.000000000E+00  1.689115253E+01  1.689115253E+01  0.000000000E+00  0.00000E+00  9.000E+00
      -3    -1     0     0     0   512  0.000000000E+00  0.000000000E+00 -2.790998642E+01  2.790998642E+01  0.000000000E+00  0.00000E+00  9.000E+00
      -3     1     1     2     0   511  6.990221343E+00 -1.243232642E+01 -1.620617803E+01  2.159435438E+01  5.000000000E-01  0.00000E+00  9.000E+00
      21     1     1     2   514   512  5.854544551E+00  3.178713032E+00  2.670110655E+00  7.177004901E+00  2.043144286E-07  0.00000E+00  9.000E+00
      21     1     1     2   515   514 -1.284476589E+01  9.253613387E+00  2.517233488E+00  1.602977966E+01  2.528810911E-07  0.00000E+00  9.000E+00
</event>
<event>
      5  10001  3.52971E+09  4.55540E+00 -1.00000E+00  2.50830E-01
      21    -1     0     0   513   514  0.000000000E+00  0.000000000E+00  1.138602837E+03  1.138602837E+03  0.000000000E+00  0.00000E+00  9.000E+00
      21    -1     0     0   511   512  0.000000000E+00  0.000000000E+00 -1.987990793E+01  1.987990793E+01  0.000000000E+00  0.00000E+00  9.000E+00
      21     1     1     2   513   516  1.019609765E+01  2.546776249E+00  1.110776036E+03  1.110825751E+03  3.051757813E-05  0.00000E+00  9.000E+00
      21     1     1     2   511   514 -1.185605148E+01 -6.788971029E+00  2.582038083E+01  2.921212335E+01  2.861022949E-06  0.00000E+00  9.000E+00
      21     1     1     2   516   512  1.659953827E+00  4.242194779E+00 -1.787348818E+01  1.844487037E+01  2.384185791E-07  0.00000E+00  9.000E+00
</event>
<event>
      5  10001  3.52971E+09  6.60525E+00 -1.00000E+00  2.19173E-01
      21    -1     0     0   515   512  0.000000000E+00  0.000000000E+00  3.894675211E+01  3.894675211E+01  0.000000000E+00  0.00000E+00  9.000E+00
      21    -1     0     0   513   515  0.000000000E+00  0.000000000E+00 -1.822929658E+01  1.822929658E+01  0.000000000E+00  0.00000E+00  9.000E+00
      21     1     1     2   511   512  8.927856262E+00 -1.281954445E+00  3.119341569E+01  3.247120581E+01  8.259061849E-07  0.00000E+00  9.000E+00
      21     1     1     2   517   511 -1.552071946E+01  8.775453056E-01 -5.715548506E+00  1.656291982E+01  2.528810911E-07  0.00000E+00  9.000E+00
      21     1     1     2   513   517  6.592863199E+00  4.044091393E-01 -4.760411650E+00  8.141923052E+00  8.429369702E-08  0.00000E+00  9.000E+00
</event>
<event>
      5  10001  3.52971E+09  6.69568E+00 -1.00000E+00  2.18313E-01
      21    -1     0     0   511   513  0.000000000E+00  0.000000000E+00  2.378690411E+01  2.378690411E+01  0.000000000E+00  0.00000E+00  9.000E+00
      21    -1     0     0   512   516  0.000000000E+00  0.000000000E+00 -1.556314330E+02  1.556314330E+02  0.000000000E+00  0.00000E+00  9.000E+00
      21     1     1     2   514   516  1.450290397E+01 -3.423204693E+00  1.866469788E+01  2.388354038E+01  8.920806376E-07  0.00000E+00  9.000E+00
      21     1     1     2   512   513 -7.915831757E+00  4.624319460E+00 -1.481533861E+02  1.484367560E+02  1.907348633E-06  0.00000E+00  9.000E+00
      21     1     1     2   511   514 -6.587072218E+00 -1.201114767E+00 -2.355840705E+00  7.098040752E+00  4.214684851E-08  0.00000E+00  9.000E+00
</event>
<event>
      5  10001  3.52971E+09  1.07516E+01 -1.00000E+00  1.92183E-01
      21    -1     0     0   515   512  0.000000000E+00  0.000000000E+00  2.035058458E+01  2.035058458E+01  0.000000000E+00  0.00000E+00  9.000E+00
      21    -1     0     0   517   514  0.000000000E+00  0.000000000E+00 -2.542134455E+01  2.542134455E+01  0.000000000E+00  0.00000E+00  9.000E+00
      21     1     1     2   515   514  1.121694185E+01 -8.307740919E+00 -1.882081791E+01  2.343206202E+01  0.000000000E+00  0.00000E+00  9.000E+00
      21     1     1     2   513   512 -3.453533063E+00  8.965038952E+00  5.870721870E+00  1.125896040E+01  2.528810911E-07  0.00000E+00  9.000E+00
      21     1     1     2   517   513 -7.763408782E+00 -6.572980336E-01  7.879336066E+00  1.108090671E+01  2.795705652E-07  0.00000E+00  9.000E+00
</event>
<event>
      5  10001  3.52971E+09  2.21850E+01 -1.00000E+00  1.62734E-01
      21    -1     0     0   511   513  0.000000000E+00  0.000000000E+00  1.791301797E+02  1.791301797E+02  0.000000000E+00  0.00000E+00  9.000E+00
      21    -1     0     0   517   516  0.000000000E+00  0.000000000E+00 -3.662952876E+00  3.662952876E+00  0.000000000E+00  0.00000E+00  9.000E+00
      21     1     1     2   511   516 -8.306177725E+00  2.144090945E+01  9.328104762E+01  9.607319622E+01  1.348699152E-06  0.00000E+00  9.000E+00
      21     1     1     2   517   512  8.179335624E+00 -2.609693669E+00  2.055771330E+01  2.227850104E+01  2.384185791E-07  0.00000E+00  9.000E+00
      21     1     1     2   512   513  1.268421003E-01 -1.883121578E+01  6.162846588E+01  6.444143529E+01  9.536743164E-07  0.00000E+00  9.000E+00
</event>
<event>
      5  10001  3.52971E+09  2.13149E+01 -1.00000E+00  1.64116E-01
      21    -1     0     0   514   512  0.000000000E+00  0.000000000E+00  3.746605869E+01  3.746605869E+01  0.000000000E+00  0.00000E+00  9.000E+00
      21    -1     0     0   513   514  0.000000000E+00  0.000000000E+00 -2.253238042E+01  2.253238042E+01  0.000000000E+00  0.00000E+00  9.000E+00
      21     1     1     2   515   512 -1.614354894E+01  7.390688545E+00  1.824873217E+01  2.546080665E+01  0.000000000E+00  0.00000E+00  9.000E+00
      21     1     1     2   513   511  9.328676423E+00 -1.792329392E+01 -7.127748956E+00  2.142599995E+01  5.591411304E-07  0.00000E+00  9.000E+00
      21     1     1     2   511   515  6.814872518E+00  1.053260537E+01  3.812695058E+00  1.311163251E+01  3.475518164E-07  0.00000E+00  9.000E+00
</event>
<event>
      5  10001  3.52971E+09  2.73087E+00 -1.00000E+00  3.09819E-01
      21    -1     0     0   516   512  0.000000000E+00  0.000000000E+00  2.526171533E+02  2.526171533E+02  0.000000000E+00  0.00000E+00  9.000E+00
      21    -1     0     0   517   516  0.000000000E+00  0.000000000E+00 -5.663395361E-01  5.663395361E-01  0.000000000E+00  0.00000E+00  9.000E+00
      21     1     1     2   517   515  5.110227143E+00  1.005972369E+01  9.578519019E+01  9.644747338E+01  1.907348633E-06  0.00000E+00  9.000E+00
      21     1     1     2   513   512 -3.743822592E+00 -8.191085766E+00  9.480424675E+01  9.523106266E+01  1.907348633E-06  0.00000E+00  9.000E+00
      21     1     1     2   515   513 -1.366404551E+00 -1.868637920E+00  6.146137681E+01  6.150495678E+01  9.536743164E-07  0.00000E+00  9.000E+00
</event>
<event>
      5  10001  3.52971E+09  6.13313E+00 -1.00000E+00  2.23996E-01
      21    -1     0     0   511   512  0.000000000E+00  0.000000000E+00  1.123872029E+03  1.123872029E+03  0.000000000E+00  0.00000E+00  9.000E+00
      21    -1     0     0   514   516  0.000000000E+00  0.000000000E+00 -2.101331477E+01  2.101331477E+01  0.000000000E+00  0.00000E+00  9.000E+00
      21     1     1     2   513   512  1.798038016E+00 -8.815904814E+00  9.818118419E+02  9.818530675E+02  1.868812365E-05  0.00000E+00  9.000E+00
      21     1     1     2   514   513 -4.344745254E+00  1.439529479E+01  1.411836946E+02  1.419821712E+02  4.672030912E-06  0.00000E+00  9.000E+00
      21     1     1     2   511   516  2.546707238E+00 -5.579389981E+00 -2.013682232E+01  2.105010507E+01  2.078484985E-06  0.00000E+00  9.000E+00
</event>
<event>
      5  10001  3.52971E+09  9.58498E+00 -1.00000E+00  1.97905E-01
      21    -1     0     0   515   513  0.000000000E+00  0.000000000E+00  2.423048843E+00  2.423048843E+00  0.000000000E+00  0.00000E+00  9.000E+00
      21    -1     0     0   517   515  0.000000000E+00  0.000000000E+00 -7.696518521E+01  7.696518521E+01  0.000000000E+00  0.00000E+00  9.000E+00
      21     1     1     2   514   513 -7.086910563E+00  9.996963187E+00 -3.707549554E+01  3.904812343E+01  9.536743164E-07  0.00000E+00  9.000E+00
      21     1     1     2   517   512  5.703297207E+00 -2.557455544E+00 -2.488708640E+01  2.565999313E+01  4.768371582E-07  0.00000E+00  9.000E+00
      21     1     1     2   512   514  1.383613356E+00 -7.439507642E+00 -1.257955443E+01  1.468011749E+01  2.384185791E-07  0.00000E+00  9.000E+00
</event>
<event>
      5  10001  3.52971E+09  1.35167E+01 -1.00000E+00  1.81749E-01
       3    -1     0     0   514     0  0.000000000E+00  0.000000000E+00  8.017737245E+01  8.017737245E+01  0.000000000E+00  0.00000E+00  9.000E+00
      21    -1     0     0   512   514  0.000000000E+00  0.000000000E+00 -1.187779136E+01  1.187779136E+01  0.000000000E+00  0.00000E+00  9.000E+00
      21     1     1     2   512   513 -1.029239718E+01  1.515170592E+01  7.505718348E-01  1.833223909E+01  4.434190993E-07  0.00000E+00  9.000E+00
       3     1     1     2   511     0  4.231068273E+00 -1.071303365E+01  6.465044551E+01  6.567039769E+01  5.000000000E-01  0.00000E+00  9.000E+00
      21     1     1     2   513   511  6.061328911E+00 -4.438672266E+00  2.898563758E+00  8.052527026E+00  7.300048300E-08  0.00000E+00  9.000E+00
</event>
<event>
      5  10001  3.52971E+09  1.43721E+01 -1.00000E+00  1.79147E-01
      21    -1     0     0   515   511  0.000000000E+00  0.000000000E+00  3.857563691E+01  3.857563691E+01  0.000000000E+00  0.00000E+00  9.000E+00
      21    -1     0     0   512   516  0.000000000E+00  0.000000000E+00 -3.974520625E+01  3.974520625E+01  0.000000000E+00  0.00000E+00  9.000E+00
      21     1     1     2   515   516  5.410527529E+00 -1.139423039E+01 -3.648788549E+01  3.860658081E+01  6.743495762E-07  0.00000E+00  9.000E+00
      21     1     1     2   514   511 -8.347034781E+00  7.242229010E+00  1.420630615E+01  1.799838896E+01  1.685873940E-07  0.00000E+00  9.000E+00
      21     1     1     2   512   514  2.936507252E+00  4.152001383E+00  2.111201001E+01  2.171587338E+01  4.129530925E-07  0.00000E+00  9.000E+00
</event>
<event>
      5  10001  3.52971E+09  1.63117E+01 -1.00000E+00  1.74017E-01
       2    -1     0     0   512     0  0.000000000E+00  0.000000000E+00  1.047552636E+03  1.047552636E+03  0.000000000E+00  0.00000E+00  9.000E+00
       1    -1     0     0   511     0  0.000000000E+00  0.000000000E+00 -4.935113504E+00  4.935113504E+00  0.000000000E+00  0.00000E+00  9.000E+00
       1     1     1     2   512     0 -1.231730136E+01  1.381423243E+00  3.966814353E+00  1.301801671E+01  3.300000131E-01  0.00000E+00  9.000E+00
       2     1     1     2   513     0  8.542693226E+00  9.286896876E+00  9.519425215E+02  9.520262061E+02  3.300000131E-01  0.00000E+00  9.000E+00
      21     1     1     2   511   513  3.774608132E+00 -1.066832012E+01  8.670818659E+01  8.744352659E+01  1.348699152E-06  0.00000E+00  9.000E+00
</event>
<event>
      5  10001  3.52971E+09  5.76001E+00 -1.00000E+00  2.28254E-01
      21    -1     0     0   514   513  0.000000000E+00  0.000000000E+00  4.802038907E+01  4.802038907E+01  0.000000000E+00  0.00000E+00  9.000E+00
      21    -1     0     0   511   515  0.000000000E+00  0.000000000E+00 -3.901682649E+02  3.901682649E+02  0.000000000E+00  0.00000E+00  9.000E+00
      21     1     1     2   514   515  1.995264960E+00 -1.199984990E+01  4.688310735E+01  4.843555755E+01  1.168007728E-06  0.00000E+00  9.000E+00
      21     1     1     2   512   513 -2.225434700E+00  6.083680913E+00 -3.629794782E+02  3.630372781E+02  5.394796609E-06  0.00000E+00  9.000E+00
      21     1     1     2   511   512  2.301697399E-01  5.916168982E+00 -2.605150502E+01  2.671581830E+01  4.768371582E-07  0.00000E+00  9.000E+00
</event>
<event>
      5  10001  3.52971E+09  2.30614E+01 -1.00000E+00  1.61419E-01
      -1    -1     0     0     0   516  0.000000000E+00  0.000000000E+00  5.854122139E+00  5.854122139E+00  0.000000000E+00  0.00000E+00  9.000E+00
      21    -1     0     0   513   512  0.000000000E+00  0.000000000E+00 -2.825057141E+01  2.825057141E+01  0.000000000E+00  0.00000E+00  9.000E+00
      21     1     1     2   514   512 -4.173006095E+00  4.370010644E-01 -2.259295965E+01  2.297926839E+01  2.384185791E-07  0.00000E+00  9.000E+00
      21     1     1     2   513   516  2.705353350E+00 -9.269564856E-01 -4.963462332E+00  5.728363065E+00  1.788139343E-07  0.00000E+00  9.000E+00
      -1     1     1     2     0   514  1.467652745E+00  4.899554212E-01  5.159972712E+00  5.397062098E+00  3.300000131E-01  0.00000E+00  9.000E+00
</event>
<event>
      5  10001  3.52971E+09  7.61474E+00 -1.00000E+00  2.10508E-01
      21    -1     0     0   511   513  0.000000000E+00  0.000000000E+00  5.142128658E+01  5.142128658E+01  0.000000000E+00  0.00000E+00  9.000E+00
      21    -1     0     0   515   514  0.000000000E+00  0.000000000E+00 -2.219938128E+01  2.219938128E+01  0.000000000E+00  0.00000E+00  9.000E+00
      21     1     1     2   511   514 -1.165244406E+01 -2.596405871E+00  3.722215697E+00  1.250502561E+01  2.421152116E-07  0.00000E+00  9.000E+00
      21     1     1     2   515   512  6.533466934E+00  8.233813216E+00 -1.587868633E+01  1.904244075E+01  1.685873940E-07  0.00000E+00  9.000E+00
      21     1     1     2   512   513  5.118977121E+00 -5.637407344E+00  4.137837594E+01  4.207320149E+01  4.768371582E-07  0.00000E+00  9.000E+00
</event>
<event>
      5  10001  3.52971E+09  4.73595E+00 -1.00000E+00  2.47298E-01
      21    -1     0     0   516   514  0.000000000E+00  0.000000000E+00  2.151419123E+01  2.151419123E+01  0.000000000E+00  0.00000E+00  9.000E+00
      21    -1     0     0   517   511  0.000000000E+00  0.000000000E+00 -5.693431899E+01  5.693431899E+01  0.000000000E+00  0.00000E+00  9.000E+00
      21     1     1     2   516   513  3.347745968E+00  9.949544007E+00 -4.367742353E+01  4.492124392E+01  0.000000000E+00  0.00000E+00  9.000E+00
      21     1     1     2   517   514 -8.090804858E-01 -1.394758910E+01  1.794594463E+01  2.274306008E+01  0.000000000E+00  0.00000E+00  9.000E+00
      21     1     1     2   513   511 -2.538665482E+00  3.998045095E+00 -9.688648871E+00  1.078420623E+01  1.192092896E-07  0.00000E+00  9.000E+00
</event>
<event>
      5  10001  3.52971E+09  8.26916E+00 -1.00000E+00  2.05804E-01
      -1    -1     0     0     0   512  0.000000000E+00  0.000000000E+00  3.692482589E+02  3.692482589E+02  0.000000000E+00  0.00000E+00  9.000E+00
      21    -1     0     0   514   511  0.000000000E+00  0.000000000E+00 -2.816221121E+00  2.816221121E+00  0.000000000E+00  0.00000E+00  9.000E+00
      -1     1     1     2     0   511  4.884442771E+00  3.063262956E+01  1.814651468E+02  1.840975942E+02  3.300000131E-01  0.00000E+00  9.000E+00
      21     1     1     2   514   515 -8.912982104E+00 -2.149288592E+01  1.382320776E+02  1.401766481E+02  1.907348633E-06  0.00000E+00  9.000E+00
      21     1     1     2   515   512  4.028539333E+00 -9.139743639E+00  4.673481336E+01  4.779023774E+01  9.536743164E-07  0.00000E+00  9.000E+00
</event>
<event>
      5  10001  3.52971E+09  6.18780E+00 -1.00000E+00  2.23407E-01
       2    -1     0     0   511     0  0.000000000E+00  0.000000000E+00  5.658598370E+01  5.658598370E+01  0.000000000E+00  0.00000E+00  9.000E+00
      21    -1     0     0   515   514  0.000000000E+00  0.000000000E+00 -4.638006151E+01  4.638006151E+01  0.000000000E+00  0.00000E+00  9.000E+00
      21     1     1     2   515   513  1.740470772E+01  1.736071662E+01  2.000226124E+01  3.169240898E+01  3.371747881E-07  0.00000E+00  9.000E+00
       2     1     1     2   513     0 -1.352794873E+01 -1.253803049E+01  2.769420161E+01  3.327589681E+01  3.300000131E-01  0.00000E+00  9.000E+00
      21     1     1     2   511   514 -3.876758993E+00 -4.822686129E+00 -3.749054066E+01  3.799773942E+01  0.000000000E+00  0.00000E+00  9.000E+00
</event>
<event>
      5  10001  3.52971E+09  6.98161E+00 -1.00000E+00  2.15710E-01
      21    -1     0     0   512   513  0.000000000E+00  0.000000000E+00  7.965503037E+01  7.965503037E+01  0.000000000E+00  0.00000E+00  9.000E+00
      21    -1     0     0   515   516  0.000000000E+00  0.000000000E+00 -1.719146512E+00  1.719146512E+00  0.000000000E+00  0.00000E+00  9.000E+00
      21     1     1     2   512   516  7.248464006E-02  1.017886016E+01  4.814652374E+01  4.921079350E+01  6.743495762E-07  0.00000E+00  9.000E+00
      21     1     1     2   515   517  7.950982910E-01 -3.651481732E+00  3.711210580E+00  5.266743216E+00  8.429369702E-08  0.00000E+00  9.000E+00
      21     1     1     2   517   513 -8.675829311E-01 -6.527378425E+00  2.607814954E+01  2.689664017E+01  3.371747881E-07  0.00000E+00  9.000E+00
</event>
<event>
      5  10001  3.52971E+09  3.21351E+00 -1.00000E+00  2.88082E-01
      21    -1     0     0   511   515  0.000000000E+00  0.000000000E+00  1.279552050E+01  1.279552050E+01  0.000000000E+00  0.00000E+00  9.000E+00
      21    -1     0     0   514   513  0.000000000E+00  0.000000000E+00 -3.882993701E+01  3.882993701E+01  0.000000000E+00  0.00000E+00  9.000E+00
      21     1     1     2   511   513  3.245043148E-02 -1.460883779E+01  6.163808570E+00  1.585596830E+01  4.768371582E-07  0.00000E+00  9.000E+00
      21     1     1     2   512   515  1.460407717E+00  9.652438317E+00 -2.549591611E+01  2.730099072E+01  3.371747881E-07  0.00000E+00  9.000E+00
      21     1     1     2   514   512 -1.492858149E+00  4.956399471E+00 -6.702308967E+00  8.468498489E+00  1.685873940E-07  0.00000E+00  9.000E+00
</event>
<event>
      5  10001  3.52971E+09  9.29430E+00 -1.00000E+00  1.99500E-01
       1    -1     0     0   511     0  0.000000000E+00  0.000000000E+00  9.618528090E+02  9.618528090E+02  0.000000000E+00  0.00000E+00  9.000E+00
      21    -1     0     0   516   512  0.000000000E+00  0.000000000E+00 -1.024864708E+01  1.024864708E+01  0.000000000E+00  0.00000E+00  9.000E+00
      21     1     1     2   513   512 -1.840236805E+01 -5.049292738E+00 -6.390192109E-01  1.909321483E+01  1.628868007E-06  0.00000E+00  9.000E+00
       1     1     1     2   516     0  1.060589168E+01  1.010879115E+01  8.854750072E+02  8.855962793E+02  3.300000131E-01  0.00000E+00  9.000E+00
      21     1     1     2   511   513  7.796476364E+00 -5.059498410E+00  6.676817393E+01  6.741196197E+01  0.000000000E+00  0.00000E+00  9.000E+00
</event>
<event>
      5  10001  3.52971E+09  6.19775E+00 -1.00000E+00  2.23301E-01
      21    -1     0     0   514   513  0.000000000E+00  0.000000000E+00  6.878115681E+01  6.878115681E+01  0.000000000E+00  0.00000E+00  9.000E+00
      21    -1     0     0   515   514  0.000000000E+00  0.000000000E+00 -3.228849868E+01  3.228849868E+01  0.000000000E+00  0.00000E+00  9.000E+00
      21     1     1     2   516   513 -1.321497213E+01  3.074998928E+00  6.640467434E+01  6.777663226E+01  1.348699152E-06  0.00000E+00  9.000E+00
      21     1     1     2   515   512  6.785998868E+00  1.146918789E+00 -1.283027875E+01  1.455957610E+01  2.920019320E-07  0.00000E+00  9.000E+00
      21     1     1     2   512   516  6.428973263E+00 -4.221917717E+00 -1.708173746E+01  1.873344712E+01  6.307962682E-07  0.00000E+00  9.000E+00
</event>
<event>
      5  10001  3.52971E+09  1.50021E+01 -1.00000E+00  1.77374E-01
      21    -1     0     0   511   512  0.000000000E+00  0.000000000E+00  1.536598682E+01  1.536598682E+01  0.000000000E+00  0.00000E+00  9.000E+00
       2    -1     0     0   513     0  0.000000000E+00  0.000000000E+00 -3.684617473E+01  3.684617473E+01  0.000000000E+00  0.00000E+00  9.000E+00
      21     1     1     2   513   512 -2.237262514E+00  8.146214415E+00  1.031417624E+01  1.333223103E+01  1.192092896E-07  0.00000E+00  9.000E+00
       2     1     1     2   514     0 -7.155389924E+00 -8.604485499E+00 -2.463899080E+01  2.706336164E+01  3.300000131E-01  0.00000E+00  9.000E+00
      21     1     1     2   511   514  9.392652438E+00  4.582710844E-01 -7.155373356E+00  1.181656888E+01  1.884864366E-07  0.00000E+00  9.000E+00
</event>
<event>
      5  10001  3.52971E+09  5.49839E+00 -1.00000E+00  2.31520E-01
      21    -1     0     0   515   512  0.000000000E+00  0.000000000E+00  5.378471547E+01  5.378471547E+01  0.000000000E+00  0.00000E+00  9.000E+00
      21    -1     0     0   516   515  0.000000000E+00  0.000000000E+00 -4.043662878E+01  4.043662878E+01  0.000000000E+00  0.00000E+00  9.000E+00
      21     1     1     2   516   513  8.656646677E+00  8.176084531E+00 -3.857275947E+01  4.036884520E+01  4.768371582E-07  0.00000E+00  9.000E+00
      -3     1     1     2     0   512 -4.254564792E+00 -2.324484721E+00  3.591349721E+01  3.624270730E+01  5.000000000E-01  0.00000E+00  9.000E+00
       3     1     1     2   513     0 -4.402081885E+00 -5.851599810E+00  1.600734895E+01  1.760979175E+01  5.000000000E-01  0.00000E+00  9.000E+00
</event>
<event>
      5  10001  3.52971E+09  8.43113E+00 -1.00000E+00  2.04729E-01
      21    -1     0     0   511   516  0.000000000E+00  0.000000000E+00  7.116590722E+01  7.116590722E+01  0.000000000E+00  0.00000E+00  9.000E+00
      21    -1     0     0   513   514  0.000000000E+00  0.000000000E+00 -1.718239409E+01  1.718239409E+01  0.000000000E+00  0.00000E+00  9.000E+00
      21     1     1     2   511   514  4.146441706E+00 -1.119459391E+01  6.401761008E+01  6.512116639E+01  0.000000000E+00  0.00000E+00  9.000E+00
      21     1     1     2   512   516 -1.112196288E+00  1.538163293E+01 -9.287930026E+00  1.800270136E+01  9.000103993E-07  0.00000E+00  9.000E+00
      21     1     1     2   513   512 -3.034245418E+00 -4.187039018E+00 -7.461669267E-01  5.224433566E+00  1.971238338E-07  0.00000E+00  9.000E+00
</event>
<event>
      5  10001  3.52971E+09  3.02409E+01 -1.00000E+00  1.52796E-01
      21    -1     0     0   515   512  0.000000000E+00  0.000000000E+00  1.393587150E+02  1.393587150E+02  0.000000000E+00  0.00000E+00  9.000E+00
      21    -1     0     0   513   517  0.000000000E+00  0.000000000E+00 -1.646417574E+01  1.646417574E+01  0.000000000E+00  0.00000E+00  9.000E+00
      21     1     1     2   515   517  1.751505371E+01 -6.066182516E+00  9.729633723E+01  9.904621606E+01  1.348699152E-06  0.00000E+00  9.000E+00
      21     1     1     2   513   511 -8.022894327E+00 -4.477430704E+00 -1.284876470E+01  1.579572643E+01  7.725644944E-07  0.00000E+00  9.000E+00
      21     1     1     2   511   512 -9.492159384E+00  1.054361322E+01  3.844696673E+01  4.098094826E+01  4.768371582E-07  0.00000E+00  9.000E+00
</event>
<event>
      5  10001  3.52971E+09  8.80096E+00 -1.00000E+00  2.02391E-01
      21    -1     0     0   514   513  0.000000000E+00  0.000000000E+00  1.271564012E+02  1.271564012E+02  0.000000000E+00  0.00000E+00  9.000E+00
      21    -1     0     0   516   512  0.000000000E+00  0.000000000E+00 -3.236755439E+00  3.236755439E+00  0.000000000E+00  0.00000E+00  9.000E+00
      21     1     1     2   514   512 -1.371812658E+01 -8.428395319E+00  7.949100643E+01  8.110514748E+01  9.536743164E-07  0.00000E+00  9.000E+00
      21     1     1     2   516   515  8.118133927E+00  1.156483339E+01  2.374159507E+01  2.762811623E+01  3.371747881E-07  0.00000E+00  9.000E+00
      21     1     1     2   515   513  5.599992654E+00 -3.136438071E+00  2.068704424E+01  2.165989291E+01  2.384185791E-07  0.00000E+00  9.000E+00
</event>
<event>
      5  10001  3.52971E+09  4.78860E+00 -1.00000E+00  2.46312E-01
       2    -1     0     0   512     0  0.000000000E+00  0.000000000E+00  1.102156795E+02  1.102156795E+02  0.000000000E+00  0.00000E+00  9.000E+00
       3    -1     0     0   511     0  0.000000000E+00  0.000000000E+00 -2.309715066E+00  2.309715066E+00  0.000000000E+00  0.00000E+00  9.000E+00
       2     1     1     2   514     0 -4.727097258E-01  7.073471219E+00  8.156891860E+01  8.187707146E+01  3.300000131E-01  0.00000E+00  9.000E+00
       3     1     1     2   512     0  1.899485921E+00 -1.089252269E+01  1.531047591E+01  1.889221453E+01  5.000000000E-01  0.00000E+00  9.000E+00
      21     1     1     2   511   514 -1.426776196E+00  3.819051470E+00  1.102656990E+01  1.175610854E+01  0.000000000E+00  0.00000E+00  9.000E+00
</event>
<event>
      5  10001  3.52971E+09  1.21888E+01 -1.00000E+00  1.86314E-01
      21    -1     0     0   513   515  0.000000000E+00  0.000000000E+00  3.697228091E+00  3.697228091E+00  0.000000000E+00  0.00000E+00  9.000E+00
      21    -1     0     0   511   513  0.000000000E+00  0.000000000E+00 -3.111259167E+02  3.111259167E+02  0.000000000E+00  0.00000E+00  9.000E+00
      21     1     1     2   511   514 -3.815768304E+00 -1.412699110E+01 -2.862215039E+02  2.865953267E+02  5.394796609E-06  0.00000E+00  9.000E+00
      21     1     1     2   514   512  4.414310989E+00  1.110163436E+01 -2.200790172E+01  2.504156874E+01  0.000000000E+00  0.00000E+00  9.000E+00
      21     1     1     2   512   515 -5.985426846E-01  3.025356741E+00  8.007171012E-01  3.186249304E+00  2.615143176E-07  0.00000E+00  9.000E+00
</event>
<event>
      5  10001  3.52971E+09  1.71920E+01 -1.00000E+00  1.71976E-01
      -3    -1     0     0     0   515  0.000000000E+00  0.000000000E+00  1.617646930E+01  1.617646930E+01  0.000000000E+00  0.00000E+00  9.000E+00
      21    -1     0     0   512   513  0.000000000E+00  0.000000000E+00 -4.797782472E+01  4.797782472E+01  0.000000000E+00  0.00000E+00  9.000E+00
      -3     1     1     2     0   513  1.644770701E+01  5.184893842E+00  6.112188624E+00  1.830352534E+01  5.000000000E-01  0.00000E+00  9.000E+00
      21     1     1     2   511   515 -7.922887912E+00  5.330407431E+00 -2.642019979E+01  2.809292354E+01  3.371747881E-07  0.00000E+00  9.000E+00
      21     1     1     2   512   511 -8.524819100E+00 -1.051530127E+01 -1.149334426E+01  1.775784514E+01  3.769728732E-07  0.00000E+00  9.000E+00
</event>
<event>
      5  10001  3.52971E+09  3.02023E+00 -1.00000E+00  2.95974E-01
      21    -1     0     0   514   515  0.000000000E+00  0.000000000E+00  1.474238808E+02  1.474238808E+02  0.000000000E+00  0.00000E+00  9.000E+00
      21    -1     0     0   512   514  0.000000000E+00  0.000000000E+00 -1.817749462E+00  1.817749462E+00  0.000000000E+00  0.00000E+00  9.000E+00
      21     1     1     2   511   515  7.636499157E+00 -1.102955460E+01  1.114947033E+02  1.122988694E+02  1.348699152E-06  0.00000E+00  9.000E+00
      21     1     1     2   513   511 -6.813434934E+00  8.215039625E+00  3.035924362E+01  3.218063773E+01  3.371747881E-07  0.00000E+00  9.000E+00
      21     1     1     2   512   513 -8.230642235E-01  2.814514974E+00  3.752184417E+00  4.762123177E+00  1.332800375E-07  0.00000E+00  9.000E+00
</event>
<event>
      5  10001  3.52971E+09  9.59636E+00 -1.00000E+00  1.97844E-01
      21    -1     0     0   516   512  0.000000000E+00  0.000000000E+00  3.995471905E+02  3.995471905E+02  0.000000000E+00  0.00000E+00  9.000E+00
      -2    -1     0     0     0   516  0.000000000E+00  0.000000000E+00 -5.643988970E+00  5.643988970E+00  0.000000000E+00  0.00000E+00  9.000E+00
      -2     1     1     2     0   511  1.305904182E+01 -2.612676980E-01  2.898976592E+00  1.338356452E+01  3.300000131E-01  0.00000E+00  9.000E+00
      21     1     1     2   511   514 -8.936230995E+00 -6.323500380E+00  3.433331605E+02  3.435076447E+02  6.607249480E-06  0.00000E+00  9.000E+00
      21     1     1     2   514   512 -4.122810822E+00  6.584768078E+00  4.767106444E+01  4.829997023E+01  6.743495762E-07  0.00000E+00  9.000E+00
</event>
<event>
      5  10001  3.52971E+09  2.01038E+01 -1.00000E+00  1.66180E-01
      21    -1     0     0   513   511  0.000000000E+00  0.000000000E+00  4.935949542E+01  4.935949542E+01  0.000000000E+00  0.00000E+00  9.000E+00
      21    -1     0     0   515   512  0.000000000E+00  0.000000000E+00 -4.094181302E+00  4.094181302E+00  0.000000000E+00  0.00000E+00  9.000E+00
      21     1     1     2   513   512 -5.222252919E+00 -3.790496253E+00  1.262435972E+01  1.417794927E+01  1.685873940E-07  0.00000E+00  9.000E+00
      21     1     1     2   515   516  3.206459197E+00  2.732233606E-01 -2.391555478E+00  4.009435022E+00  5.960464478E-08  0.00000E+00  9.000E+00
      21     1     1     2   516   511  2.015793722E+00  3.517272892E+00  3.503250988E+01  3.526629243E+01  6.743495762E-07  0.00000E+00  9.000E+00
</event>
<event>
      5  10001  3.52971E+09  6.44628E+00 -1.00000E+00  2.20733E-01
       2    -1     0     0   513     0  0.000000000E+00  0.000000000E+00  4.580574246E+02  4.580574246E+02  0.000000000E+00  0.00000E+00  9.000E+00
      -2    -1     0     0     0   513  0.000000000E+00  0.000000000E+00 -1.119666628E+00  1.119666628E+00  0.000000000E+00  0.00000E+00  9.000E+00
      -2     1     1     2     0   512 -5.209824535E+00  7.305807154E+00  3.101283548E+01  3.228655996E+01  3.300000131E-01  0.00000E+00  9.000E+00
       2     1     1     2   511     0  2.297889172E+00 -1.341633745E+01  3.949503950E+02  3.951850222E+02  3.300000131E-01  0.00000E+00  9.000E+00
      21     1     1     2   512   511  2.911935362E+00  6.110530293E+00  3.097452755E+01  3.170550906E+01  5.840038640E-07  0.00000E+00  9.000E+00
</event>
<event>
      5  10001  3.52971E+09  1.05194E+01 -1.00000E+00  1.93244E-01
      21    -1     0     0   514   511  0.000000000E+00  0.000000000E+00  3.284919986E+01  3.284919986E+01  0.000000000E+00  0.00000E+00  9.000E+00
       1    -1     0     0   512     0  0.000000000E+00  0.000000000E+00 -3.819727228E+02  3.819727228E+02  0.000000000E+00  0.00000E+00  9.000E+00
      21     1     1     2   512   511 -9.975231559E+00  3.434437046E-01  3.180399162E+01  3.333342288E+01  3.371747881E-07  0.00000E+00  9.000E+00
       1     1     1     2   513     0  2.451518613E+00  5.688735446E+00 -2.870447593E+02  2.871117803E+02  3.300000131E-01  0.00000E+00  9.000E+00
      21     1     1     2   514   513  7.523712947E+00 -6.032179150E+00 -9.388275524E+01  9.437671945E+01  1.348699152E-06  0.00000E+00  9.000E+00
</event>
<event>
      5  10001  3.52971E+09  3.70752E+00 -1.00000E+00  2.71481E-01
      21    -1     0     0   515   511  0.000000000E+00  0.000000000E+00  3.526313472E+01  3.526313472E+01  0.000000000E+00  0.00000E+00  9.000E+00
      21    -1     0     0   516   517  0.000000000E+00  0.000000000E+00 -6.718956345E+01  6.718956345E+01  0.000000000E+00  0.00000E+00  9.000E+00
      21     1     1     2   516   512 -7.044166867E+00  5.973766231E+00 -5.671672655E+01  5.746384290E+01  6.743495762E-07  0.00000E+00  9.000E+00
      21     1     1     2   512   511  1.059573498E+01 -7.037754487E+00  3.333232440E+01  3.567693145E+01  8.259061849E-07  0.00000E+00  9.000E+00
      21     1     1     2   515   517 -3.551568111E+00  1.063988256E+00 -8.542026584E+00  9.311923820E+00  1.192092896E-07  0.00000E+00  9.000E+00
</event>
<event>
      5  10001  3.52971E+09  3.39755E+00 -1.00000E+00  2.81367E-01
       2    -1     0     0   513     0  0.000000000E+00  0.000000000E+00  6.771679924E+00  6.771679924E+00  0.000000000E+00  0.00000E+00  9.000E+00
      21    -1     0     0   516   514  0.000000000E+00  0.000000000E+00 -3.953905431E+01  3.953905431E+01  0.000000000E+00  0.00000E+00  9.000E+00
      21     1     1     2   513   514  1.291507721E+00  9.634009152E+00 -1.359116299E+01  1.670933380E+01  3.371747881E-07  0.00000E+00  9.000E+00
      21     1     1     2   516   512 -4.688482092E+00 -9.643164034E+00 -2.244555330E+01  2.487519527E+01  0.000000000E+00  0.00000E+00  9.000E+00
       2     1     1     2   512     0  3.396974370E+00  9.154882113E-03  3.269341908E+00  4.726205159E+00  3.300000131E-01  0.00000E+00  9.000E+00
</event>
<event>
      5  10001  3.52971E+09  6.56934E+00 -1.00000E+00  2.19521E-01
      21    -1     0     0   511   514  0.000000000E+00  0.000000000E+00  3.143256972E+02  3.143256972E+02  0.000000000E+00  0.00000E+00  9.000E+00
      21    -1     0     0   515   511  0.000000000E+00  0.000000000E+00 -7.233879225E+00  7.233879225E+00  0.000000000E+00  0.00000E+00  9.000E+00
      21     1     1     2   515   517 -1.359956705E+01  4.429415641E+00  2.079903932E-01  1.430423738E+01  1.202236083E-07  0.00000E+00  9.000E+00
      21     1     1     2   517   513  2.575590392E+00 -1.877335061E+00  1.103626231E+02  1.104086348E+02  1.907348633E-06  0.00000E+00  9.000E+00
      21     1     1     2   513   514  1.102397666E+01 -2.552080580E+00  1.965212044E+02  1.968467042E+02  3.814697266E-06  0.00000E+00  9.000E+00
</event>
<event>
      5  10001  3.52971E+09  1.22934E+01 -1.00000E+00  1.85928E-01
      21    -1     0     0   513   514  0.000000000E+00  0.000000000E+00  3.120044110E+02  3.120044110E+02  0.000000000E+00  0.00000E+00  9.000E+00
       3    -1     0     0   514     0  0.000000000E+00  0.000000000E+00 -5.768004212E+00  5.768004212E+00  0.000000000E+00  0.00000E+00  9.000E+00
      21     1     1     2   513   511 -7.468064391E+00 -1.939153837E+00  1.589554124E+02  1.591425632E+02  1.907348633E-06  0.00000E+00  9.000E+00
       3     1     1     2   512     0  2.430905042E+01  1.670628020E+00  2.400431368E+01  3.420786468E+01  5.000000000E-01  0.00000E+00  9.000E+00
      21     1     1     2   511   512 -1.684098603E+01  2.685258170E-01  1.232766808E+02  1.244219874E+02  2.336015456E-06  0.00000E+00  9.000E+00
</event>
<event>
      5  10001  3.52971E+09  1.16489E+01 -1.00000E+00  1.88390E-01
      21    -1     0     0   515   512  0.000000000E+00  0.000000000E+00  2.498160214E+01  2.498160214E+01  0.000000000E+00  0.00000E+00  9.000E+00
      21    -1     0     0   512   513  0.000000000E+00  0.000000000E+00 -4.457797943E+01  4.457797943E+01  0.000000000E+00  0.00000E+00  9.000E+00
      -1     1     1     2     0   514 -7.168963503E+00  1.858294518E+00 -1.313288121E+01  1.508074153E+01  3.300000131E-01  0.00000E+00  9.000E+00
       1     1     1     2   515     0  1.336925048E+01  3.274244032E+00  2.141638624E+01  2.546032270E+01  3.300000131E-01  0.00000E+00  9.000E+00
      21     1     1     2   514   513 -6.200286980E+00 -5.132538550E+00 -2.787988232E+01  2.901851734E+01  3.371747881E-07  0.00000E+00  9.000E+00
</event>
<event>
      5  10001  3.52971E+09  9.86293E+00 -1.00000E+00  1.96448E-01
       2    -1     0     0   514     0  0.000000000E+00  0.000000000E+00  1.878582009E+02  1.878582009E+02  0.000000000E+00  0.00000E+00  9.000E+00
      21    -1     0     0   511   513  0.000000000E+00  0.000000000E+00 -6.735736001E+01  6.735736001E+01  0.000000000E+00  0.00000E+00  9.000E+00
      21     1     1     2   514   512  1.288540184E+01  9.722219676E+00 -6.225248805E+01  6.431117636E+01  2.236564522E-06  0.00000E+00  9.000E+00
       2     1     1     2   511     0 -1.066420762E+01 -2.352456381E+00  1.828800605E+02  1.832061266E+02  3.300000131E-01  0.00000E+00  9.000E+00
      21     1     1     2   512   513 -2.221194226E+00 -7.369763295E+00 -1.267315939E-01  7.698257966E+00  1.338515000E-07  0.00000E+00  9.000E+00
</event>
<event>
      5  10001  3.52971E+09  8.82489E+00 -1.00000E+00  2.02245E-01
      21    -1     0     0   515   511  0.000000000E+00  0.000000000E+00  2.937337726E+00  2.937337726E+00  0.000000000E+00  0.00000E+00  9.000E+00
      21    -1     0     0   512   516  0.000000000E+00  0.000000000E+00 -4.155592552E+01  4.155592552E+01  0.000000000E+00  0.00000E+00  9.000E+00
      21     1     1     2   515   516 -6.613226091E+00 -6.501077852E+00 -2.250941471E+01  2.434486646E+01  0.000000000E+00  0.00000E+00  9.000E+00
      21     1     1     2   514   511  1.940667347E+00  4.624302011E+00 -1.365496981E+01  1.454677144E+01  1.685873940E-07  0.00000E+00  9.000E+00
      21     1     1     2   512   514  4.672558745E+00  1.876775841E+00 -2.454203281E+00  5.601625347E+00  8.940696716E-08  0.00000E+00  9.000E+00
</event>
<event>
      5  10001  3.52971E+09  8.94264E+00 -1.00000E+00  2.01535E-01
      21    -1     0     0   513   511  0.000000000E+00  0.000000000E+00  2.102511389E+01  2.102511389E+01  0.000000000E+00  0.00000E+00  9.000E+00
      21    -1     0     0   512   513  0.000000000E+00  0.000000000E+00 -4.221753177E+01  4.221753177E+01  0.000000000E+00  0.00000E+00  9.000E+00
      21     1     1     2   514   511 -1.392552454E+01  1.245464205E+01  1.324935518E+01  2.290379346E+01  2.384185791E-07  0.00000E+00  9.000E+00
      21     1     1     2   515   514  7.519039564E+00 -2.533215354E+00 -2.098349608E+01  2.243346259E+01  2.384185791E-07  0.00000E+00  9.000E+00
      21     1     1     2   512   515  6.406484976E+00 -9.921426698E+00 -1.345827698E+01  1.790538960E+01  2.384185791E-07  0.00000E+00  9.000E+00
</event>
<event>
      5  10001  3.52971E+09  2.66570E+00 -1.00000E+00  3.13347E-01
      21    -1     0     0   513   515  0.000000000E+00  0.000000000E+00  3.646497704E+00  3.646497704E+00  0.000000000E+00  0.00000E+00  9.000E+00
       2    -1     0     0   511     0  0.000000000E+00  0.000000000E+00 -4.655671830E+02  4.655671830E+02  0.000000000E+00  0.00000E+00  9.000E+00
      21     1     1     2   511   515  4.812937345E+00  7.466714806E+00 -7.321838749E+01  7.375532836E+01  2.697398305E-06  0.00000E+00  9.000E+00
       2     1     1     2   512     0 -5.503059587E+00 -1.004147943E+01 -3.914572880E+02  3.916248615E+02  3.300000131E-01  0.00000E+00  9.000E+00
      21     1     1     2   513   512  6.901222419E-01  2.574764624E+00  2.754990110E+00  3.833490849E+00  1.548574097E-07  0.00000E+00  9.000E+00
</event>
<event>
      5  10001  3.52971E+09  1.40561E+01 -1.00000E+00  1.80081E-01
      21    -1     0     0   512   511  0.000000000E+00  0.000000000E+00  8.812737106E+02  8.812737106E+02  0.000000000E+00  0.00000E+00  9.000E+00
      21    -1     0     0   514   512  0.000000000E+00  0.000000000E+00 -5.515229662E+00  5.515229662E+00  0.000000000E+00  0.00000E+00  9.000E+00
      21     1     1     2   515   511 -2.492625488E+01  4.213816439E+00  7.677919696E+02  7.682080337E+02  2.157918644E-05  0.00000E+00  9.000E+00
       1     1     1     2   514     0  1.617728527E+01 -1.517937867E+00  7.853779696E+00  1.804991550E+01  3.300000131E-01  0.00000E+00  9.000E+00
      -1     1     1     2     0   515  8.748969615E+00 -2.695878572E+00  1.001127316E+02  1.005309910E+02  3.300000131E-01  0.00000E+00  9.000E+00
</event>
<event>
      5  10001  3.52971E+09  1.01544E+01 -1.00000E+00  1.94987E-01
      21    -1     0     0   512   511  0.000000000E+00  0.000000000E+00  9.783410104E+01  9.783410104E+01  0.000000000E+00  0.00000E+00  9.000E+00
      21    -1     0     0   516   513  0.000000000E+00  0.000000000E+00 -1.618555139E+01  1.618555139E+01  0.000000000E+00  0.00000E+00  9.000E+00
      21     1     1     2   516   515  1.844424614E+01  6.853012844E+00  2.277340966E+00  1.980758144E+01  1.604904177E-07  0.00000E+00  9.000E+00
      21     1     1     2   515   511 -1.332192254E+01  1.914724725E+00 -7.215807746E-01  1.347814786E+01  2.468830574E-07  0.00000E+00  9.000E+00
      21     1     1     2   512   513 -5.122323595E+00 -8.767737569E+00  8.009278945E+01  8.073392313E+01  0.000000000E+00  0.00000E+00  9.000E+00
</event>
<event>
      5  10001  3.52971E+09  3.02853E+00 -1.00000E+00  2.95616E-01
      21    -1     0     0   514   515  0.000000000E+00  0.000000000E+00  1.159554391E+00  1.159554391E+00  0.000000000E+00  0.00000E+00  9.000E+00
      21    -1     0     0   517   511  0.000000000E+00  0.000000000E+00 -1.635084824E+02  1.635084824E+02  0.000000000E+00  0.00000E+00  9.000E+00
      21     1     1     2   517   513  8.639878886E+00  6.741077076E+00 -7.508588843E+01  7.588135652E+01  9.536743164E-07  0.00000E+00  9.000E+00
      21     1     1     2   513   515 -1.125131249E+01 -5.207317781E+00 -5.491192649E+01  5.629411925E+01  1.507891493E-06  0.00000E+00  9.000E+00
      21     1     1     2   514   511  2.611433606E+00 -1.533759295E+00 -3.235111309E+01  3.249256102E+01  0.000000000E+00  0.00000E+00  9.000E+00
</event>
<event>
      5  10001  3.52971E+09  4.41497E+00 -1.00000E+00  2.53754E-01
      21    -1     0     0   512   513  0.000000000E+00  0.000000000E+00  3.452423475E+02  3.452423475E+02  0.000000000E+00  0.00000E+00  9.000E+00
      21    -1     0     0   517   516  0.000000000E+00  0.000000000E+00 -2.088231091E+02  2.088231091E+02  0.000000000E+00  0.00000E+00  9.000E+00
      21     1     1     2   512   516  1.085855271E+01  2.092032181E+00 -1.152038390E+01  1.596884501E+01  5.331201500E-07  0.00000E+00  9.000E+00
      21     1     1     2   517   511 -9.903193982E+00  2.218336617E+00 -1.949322825E+02  1.951962834E+02  5.394796609E-06  0.00000E+00  9.000E+00
      21     1     1     2   511   513 -9.553587270E-01 -4.310368798E+00  3.428719048E+02  3.429003282E+02  5.394796609E-06  0.00000E+00  9.000E+00
</event>
<event>
      5  10001  3.52971E+09  5.41367E+00 -1.00000E+00  2.32632E-01
      21    -1     0     0   514   516  0.000000000E+00  0.000000000E+00  9.830343710E-01  9.830343710E-01  0.000000000E+00  0.00000E+00  9.000E+00
      21    -1     0     0   513   514  0.000000000E+00  0.000000000E+00 -1.262486685E+02  1.262486685E+02  0.000000000E+00  0.00000E+00  9.000E+00
      21     1     1     2   513   515 -8.532667191E+00 -1.112145711E+00 -5.165618753E+01  5.236797673E+01  0.000000000E+00  0.00000E+00  9.000E+00
      21     1     1     2   512   516  1.029667865E+01  2.357248701E+00 -4.726596696E+01  4.843190937E+01  6.743495762E-07  0.00000E+00  9.000E+00
      21     1     1     2   515   512 -1.764011457E+00 -1.245102990E+00 -2.634347966E+01  2.643181678E+01  4.768371582E-07  0.00000E+00  9.000E+00
</event>
<event>
      5  10001  3.52971E+09  1.14422E+01 -1.00000E+00  1.89224E-01
      21    -1     0     0   511   512  0.000000000E+00  0.000000000E+00  6.819189723E+01  6.819189723E+01  0.000000000E+00  0.00000E+00  9.000E+00
      21    -1     0     0   517   511  0.000000000E+00  0.000000000E+00 -2.726876414E+01  2.726876414E+01  0.000000000E+00  0.00000E+00  9.000E+00
      21     1     1     2   517   513  1.408558072E+01  3.202765043E-01 -2.225486456E+01  2.633980178E+01  3.371747881E-07  0.00000E+00  9.000E+00
      21     1     1     2   514   512 -1.339024453E+01 -8.385781280E+00  5.637324973E+01  5.854539488E+01  1.168007728E-06  0.00000E+00  9.000E+00
      21     1     1     2   513   514 -6.953361835E-01  8.065504775E+00  6.804747925E+00  1.057546472E+01  2.230201594E-07  0.00000E+00  9.000E+00
</event>
<event>
      5  10001  3.52971E+09  1.15847E+01 -1.00000E+00  1.88646E-01
       2    -1     0     0   511     0  0.000000000E+00  0.000000000E+00  2.021458920E+03  2.021458920E+03  0.000000000E+00  0.00000E+00  9.000E+00
      21    -1     0     0   512   511  0.000000000E+00  0.000000000E+00 -4.507122779E+01  4.507122779E+01  0.000000000E+00  0.00000E+00  9.000E+00
      21     1     1     2   513   515 -1.432705751E+01  4.772859864E+00 -4.257547785E+01  4.517428563E+01  4.211311753E-06  0.00000E+00  9.000E+00
       2     1     1     2   515     0  3.165153889E+00 -7.874054384E+00  1.991891758E+03  1.991909863E+03  3.300000131E-01  0.00000E+00  9.000E+00
      21     1     1     2   512   513  1.116190362E+01  3.101194520E+00  2.707141222E+01  2.944599904E+01  3.371747881E-07  0.00000E+00  9.000E+00
</event>
<event>
      5  10001  3.52971E+09  1.62113E+01 -1.00000E+00  1.74260E-01
      21    -1     0     0   514   513  0.000000000E+00  0.000000000E+00  6.139935950E+00  6.139935950E+00  0.000000000E+00  0.00000E+00  9.000E+00
      21    -1     0     0   512   514  0.000000000E+00  0.000000000E+00 -7.853599961E+01  7.853599961E+01  0.000000000E+00  0.00000E+00  9.000E+00
      21     1     1     2   516   513  4.901243415E+00  1.394332756E+01 -4.438034643E+01  4.677663647E+01  4.768371582E-07  0.00000E+00  9.000E+00
      21     1     1     2   512   511 -9.854903655E+00 -5.893116807E+00 -4.115361937E+00  1.219771108E+01  3.318646170E-07  0.00000E+00  9.000E+00
      21     1     1     2   511   516  4.953660240E+00 -8.050210753E+00 -2.390035529E+01  2.570158801E+01  3.371747881E-07  0.00000E+00  9.000E+00
</event>
<event>
      5  10001  3.52971E+09  1.70789E+01 -1.00000E+00  1.72229E-01
      21    -1     0     0   515   512  0.000000000E+00  0.000000000E+00  4.114501338E+02  4.114501338E+02  0.000000000E+00  0.00000E+00  9.000E+00
      21    -1     0     0   514   516  0.000000000E+00  0.000000000E+00 -1.994667701E+02  1.994667701E+02  0.000000000E+00  0.00000E+00  9.000E+00
      21     1     1     2   515   516 -2.569891937E+01 -1.213289628E+01  3.910239613E+02  3.920553277E+02  0.000000000E+00  0.00000E+00  9.000E+00
      21     1     1     2   513   512  1.401998590E+01 -3.286991098E-01  1.702294176E+01  2.205557965E+01  2.360223517E-06  0.00000E+00  9.000E+00
      21     1     1     2   514   513  1.167893348E+01  1.246159539E+01 -1.960635394E+02  1.968059966E+02  4.672030912E-06  0.00000E+00  9.000E+00
</event>
<event>
      5  10001  3.52971E+09  1.50098E+01 -1.00000E+00  1.77353E-01
       2    -1     0     0   514     0  0.000000000E+00  0.000000000E+00  1.321504253E+03  1.321504253E+03  0.000000000E+00  0.00000E+00  9.000E+00
      21    -1     0     0   511   513  0.000000000E+00  0.000000000E+00 -1.267568052E-01  1.267568052E-01  0.000000000E+00  0.00000E+00  9.000E+00
      21     1     1     2   514   513 -5.103688769E+00  7.190834683E+00  2.618767701E+02  2.620251867E+02  5.394796609E-06  0.00000E+00  9.000E+00
      21     1     1     2   511   512  6.108284956E+00  5.151409875E-01  2.843143437E+02  2.843804187E+02  5.394796609E-06  0.00000E+00  9.000E+00
       2     1     1     2   512     0 -1.004596186E+00 -7.705975671E+00  7.751863826E+02  7.752254046E+02  3.300000131E-01  0.00000E+00  9.000E+00
</event>
<event>
      5  10001  3.52971E+09  2.93831E+00 -1.00000E+00  2.99623E-01
      21    -1     0     0   515   512  0.000000000E+00  0.000000000E+00  3.730962865E+00  3.730962865E+00  0.000000000E+00  0.00000E+00  9.000E+00
       2    -1     0     0   516     0  0.000000000E+00  0.000000000E+00 -1.162453875E+02  1.162453875E+02  0.000000000E+00  0.00000E+00  9.000E+00
      21     1     1     2   511   512 -7.388501668E+00  7.943571540E+00 -7.494865873E+00  1.318572335E+01  1.460009660E-07  0.00000E+00  9.000E+00
      21     1     1     2   516   511  4.487539887E+00 -8.408866783E+00 -2.561181087E+01  2.732785961E+01  3.371747881E-07  0.00000E+00  9.000E+00
       2     1     1     2   515     0  2.900961781E+00  4.652952435E-01 -7.940774793E+01  7.946276744E+01  3.300000131E-01  0.00000E+00  9.000E+00
</event>
<event>
      5  10001  3.52971E+09  8.70388E+00 -1.00000E+00  2.02990E-01
      21    -1     0     0   513   512  0.000000000E+00  0.000000000E+00  4.850216680E+01  4.850216680E+01  0.000000000E+00  0.00000E+00  9.000E+00
      21    -1     0     0   514   513  0.000000000E+00  0.000000000E+00 -8.454739931E+00  8.454739931E+00  0.000000000E+00  0.00000E+00  9.000E+00
      21     1     1     2   514   517 -9.261542534E+00 -5.539989507E+00 -3.136856476E+00  1.123866195E+01  3.793216366E-07  0.00000E+00  9.000E+00
       4     1     1     2   517     0  6.566645459E+00  7.548314265E+00  2.197392686E+01  2.419093513E+01  1.500000000E+00  0.00000E+00  9.000E+00
      -4     1     1     2     0   512  2.694897075E+00 -2.008324758E+00  2.121035649E+01  2.152730966E+01  1.500000000E+00  0.00000E+00  9.000E+00
</event>
<event>
      5  10001  3.52971E+09  9.13638E+00 -1.00000E+00  2.00399E-01
      -2    -1     0     0     0   511  0.000000000E+00  0.000000000E+00  5.877445548E+01  5.877445548E+01  0.000000000E+00  0.00000E+00  9.000E+00
      21    -1     0     0   512   513  0.000000000E+00  0.000000000E+00 -1.803246179E+02  1.803246179E+02  0.000000000E+00  0.00000E+00  9.000E+00
      -2     1     1     2     0   513 -1.032713330E+01  1.692038681E+00  5.752382941E+01  5.846890222E+01  3.300000131E-01  0.00000E+00  9.000E+00
      21     1     1     2   514   511  3.173676035E+00 -6.397098475E+00 -1.533996839E+02  1.535658103E+02  2.697398305E-06  0.00000E+00  9.000E+00
      21     1     1     2   512   514  7.153457260E+00  4.705059793E+00 -2.567430797E+01  2.706436085E+01  0.000000000E+00  0.00000E+00  9.000E+00
</event>
<event>
      5  10001  3.52971E+09  9.59967E+00 -1.00000E+00  1.97826E-01
       2    -1     0     0   513     0  0.000000000E+00  0.000000000E+00  1.123292586E+03  1.123292586E+03  0.000000000E+00  0.00000E+00  9.000E+00
      21    -1     0     0   514   513  0.000000000E+00  0.000000000E+00 -4.728686607E-01  4.728686607E-01  0.000000000E+00  0.00000E+00  9.000E+00
      21     1     1     2   511   515 -4.441304062E+00  1.600804656E+00  3.673369732E+01  3.703582422E+01  1.348699152E-06  0.00000E+00  9.000E+00
       2     1     1     2   515     0  7.181026192E+00 -1.218309598E+01  9.759411723E+02  9.760436854E+02  3.300000131E-01  0.00000E+00  9.000E+00
      21     1     1     2   514   511 -2.739722131E+00  1.058229132E+01  1.101448481E+02  1.106859455E+02  2.697398305E-06  0.00000E+00  9.000E+00
</event>
<event>
      5  10001  3.52971E+09  1.22940E+01 -1.00000E+00  1.85925E-01
      21    -1     0     0   512   515  0.000000000E+00  0.000000000E+00  5.884303118E+00  5.884303118E+00  0.000000000E+00  0.00000E+00  9.000E+00
      21    -1     0     0   514   512  0.000000000E+00  0.000000000E+00 -1.397157141E+02  1.397157141E+02  0.000000000E+00  0.00000E+00  9.000E+00
      21     1     1     2   514   511 -2.099104794E+00 -9.286104854E+00 -1.130185030E+02  1.134187815E+02  0.000000000E+00  0.00000E+00  9.000E+00
      21     1     1     2   513   515  7.657191506E+00  4.473244173E+00  1.222214560E+00  8.951888271E+00  1.246720592E-07  0.00000E+00  9.000E+00
      21     1     1     2   511   513 -5.558086711E+00  4.812860682E+00 -2.203512256E+01  2.322934743E+01  3.371747881E-07  0.00000E+00  9.000E+00
</event>
<event>
      5  10001  3.52971E+09  9.66942E+00 -1.00000E+00  1.97455E-01
      21    -1     0     0   516   512  0.000000000E+00  0.000000000E+00  4.641700630E+01  4.641700630E+01  0.000000000E+00  0.00000E+00  9.000E+00
      21    -1     0     0   511   517  0.000000000E+00  0.000000000E+00 -1.134431818E+02  1.134431818E+02  0.000000000E+00  0.00000E+00  9.000E+00
      21     1     1     2   516   517 -5.343216287E+00 -8.165245296E+00 -1.034242827E+02  1.038836053E+02  1.348699152E-06  0.00000E+00  9.000E+00
      21     1     1     2   511   513  1.409190639E+01  4.047231627E+00 -3.374953113E+00  1.504500641E+01  2.384185791E-07  0.00000E+00  9.000E+00
      21     1     1     2   513   512 -8.748690101E+00  4.118013668E+00  3.977306036E+01  4.093157638E+01  8.259061849E-07  0.00000E+00  9.000E+00
</event>
<event>
      5  10001  3.52971E+09  7.92316E+00 -1.00000E+00  2.08215E-01
      21    -1     0     0   513   511  0.000000000E+00  0.000000000E+00  1.397588277E+01  1.397588277E+01  0.000000000E+00  0.00000E+00  9.000E+00
      -2    -1     0     0     0   514  0.000000000E+00  0.000000000E+00 -3.444251143E+01  3.444251143E+01  0.000000000E+00  0.00000E+00  9.000E+00
      -2     1     1     2     0   511 -9.036804594E+00 -7.566083306E+00 -2.958502461E+01  3.184795182E+01  3.300000131E-01  0.00000E+00  9.000E+00
      21     1     1     2   515   514  5.971027763E+00  5.761478838E+00  1.883973198E+00  8.508652417E+00  1.825012075E-07  0.00000E+00  9.000E+00
      21     1     1     2   513   515  3.065776831E+00  1.804604468E+00  7.234422758E+00  8.061789969E+00  1.192092896E-07  0.00000E+00  9.000E+00
</event>
<event>
      5  10001  3.52971E+09  7.69075E+00 -1.00000E+00  2.09929E-01
      21    -1     0     0   514   515  0.000000000E+00  0.000000000E+00  2.650911902E+01  2.650911902E+01  0.000000000E+00  0.00000E+00  9.000E+00
      21    -1     0     0   511   516  0.000000000E+00  0.000000000E+00 -4.842170162E+01  4.842170162E+01  0.000000000E+00  0.00000E+00  9.000E+00
      21     1     1     2   512   516  9.209974805E+00  1.235820200E+00 -2.582598433E+01  2.744690063E+01  0.000000000E+00  0.00000E+00  9.000E+00
      21     1     1     2   511   515 -1.317558161E+01  5.353683978E+00 -1.876018659E+01  2.354150556E+01  4.768371582E-07  0.00000E+00  9.000E+00
      21     1     1     2   514   512  3.965606809E+00 -6.589504178E+00  2.267358832E+01  2.394241445E+01  3.371747881E-07  0.00000E+00  9.000E+00
</event>
<event>
      5  10001  3.52971E+09  5.14860E+00 -1.00000E+00  2.36308E-01
       1    -1     0     0   511     0  0.000000000E+00  0.000000000E+00  2.589648334E+02  2.589648334E+02  0.000000000E+00  0.00000E+00  9.000E+00
      21    -1     0     0   513   515  0.000000000E+00  0.000000000E+00 -1.135937928E+02  1.135937928E+02  0.000000000E+00  0.00000E+00  9.000E+00
      21     1     1     2   511   514 -1.418617916E+01 -4.289607118E+00  2.247604271E+02  2.252485249E+02  3.814697266E-06  0.00000E+00  9.000E+00
       1     1     1     2   513     0  1.421734516E+01  9.438081355E+00  3.175244018E+01  3.604908654E+01  3.300000131E-01  0.00000E+00  9.000E+00
      21     1     1     2   514   515 -3.116600146E-02 -5.148474237E+00 -1.111418267E+02  1.112610147E+02  0.000000000E+00  0.00000E+00  9.000E+00
</event>
<event>
      5  10001  3.52971E+09  8.17464E+00 -1.00000E+00  2.06447E-01
      21    -1     0     0   512   513  0.000000000E+00  0.000000000E+00  3.850357943E+01  3.850357943E+01  0.000000000E+00  0.00000E+00  9.000E+00
      21    -1     0     0   514   511  0.000000000E+00  0.000000000E+00 -6.039191285E+02  6.039191285E+02  0.000000000E+00  0.00000E+00  9.000E+00
      21     1     1     2   512   516  1.018538356E+01  1.687767417E+01  3.562721640E+01  4.071727486E+01  2.078484985E-06  0.00000E+00  9.000E+00
      21     1     1     2   514   513 -2.557687238E+00 -1.981756098E+01 -4.457830868E+02  4.462307004E+02  0.000000000E+00  0.00000E+00  9.000E+00
      21     1     1     2   516   511 -7.627696323E+00  2.939886814E+00 -1.552596786E+02  1.554747326E+02  1.907348633E-06  0.00000E+00  9.000E+00
</event>
<event>
      5  10001  3.52971E+09  7.14720E+00 -1.00000E+00  2.14279E-01
      21    -1     0     0   512   513  0.000000000E+00  0.000000000E+00  1.657183040E+01  1.657183040E+01  0.000000000E+00  0.00000E+00  9.000E+00
      21    -1     0     0   517   515  0.000000000E+00  0.000000000E+00 -1.654134420E+02  1.654134420E+02  0.000000000E+00  0.00000E+00  9.000E+00
      21     1     1     2   511   513 -1.037682360E+01  5.847407496E+00 -1.527726628E+01  1.937177089E+01  6.307962682E-07  0.00000E+00  9.000E+00
      21     1     1     2   517   511  9.857460642E+00  1.280895710E+00 -1.470315875E+02  1.473672214E+02  3.303624740E-06  0.00000E+00  9.000E+00
      21     1     1     2   512   515  5.193629577E-01 -7.128303207E+00  1.346724219E+01  1.524628009E+01  4.460403188E-07  0.00000E+00  9.000E+00
</event>
<event>
      5  10001  3.52971E+09  7.54411E+00 -1.00000E+00  2.11054E-01
      21    -1     0     0   511   516  0.000000000E+00  0.000000000E+00  1.457730776E+00  1.457730776E+00  0.000000000E+00  0.00000E+00  9.000E+00
       2    -1     0     0   512     0  0.000000000E+00  0.000000000E+00 -1.281556140E+03  1.281556140E+03  0.000000000E+00  0.00000E+00  9.000E+00
      21     1     1     2   512   516  5.894522614E+00 -1.298149173E+01 -8.410112634E+01  8.530101978E+01  4.156969970E-06  0.00000E+00  9.000E+00
       2     1     1     2   514     0 -4.314784577E+00  5.604751480E+00 -1.180049581E+03  1.180070825E+03  3.300000131E-01  0.00000E+00  9.000E+00
      21     1     1     2   511   514 -1.579738037E+00  7.376740250E+00 -1.594770181E+01  1.764202545E+01  8.429369702E-07  0.00000E+00  9.000E+00
</event>
<event>
      5  10001  3.52971E+09  7.48456E+00 -1.00000E+00  2.11520E-01
      21    -1     0     0   513   512  0.000000000E+00  0.000000000E+00  1.291269506E+01  1.291269506E+01  0.000000000E+00  0.00000E+00  9.000E+00
      21    -1     0     0   515   516  0.000000000E+00  0.000000000E+00 -5.691687684E+01  5.691687684E+01  0.000000000E+00  0.00000E+00  9.000E+00
      21     1     1     2   514   512  7.898586601E+00 -1.412356916E+01  6.322275063E-01  1.619452339E+01  4.891917548E-07  0.00000E+00  9.000E+00
      21     1     1     2   515   514 -1.014822521E+00  1.706168064E+01 -1.398829626E+01  2.208626820E+01  5.591411304E-07  0.00000E+00  9.000E+00
      21     1     1     2   513   516 -6.883764080E+00 -2.938111477E+00 -3.064811303E+01  3.154878031E+01  4.768371582E-07  0.00000E+00  9.000E+00
</event>
<event>
      5  10001  3.52971E+09  2.01464E+01 -1.00000E+00  1.66105E-01
      21    -1     0     0   511   515  0.000000000E+00  0.000000000E+00  9.899075256E+00  9.899075256E+00  0.000000000E+00  0.00000E+00  9.000E+00
      21    -1     0     0   512   517  0.000000000E+00  0.000000000E+00 -6.713226894E+01  6.713226894E+01  0.000000000E+00  0.00000E+00  9.000E+00
      21     1     1     2   511   517 -2.071776303E+01  1.208136511E+01 -3.681251396E+01  4.393570611E+01  8.259061849E-07  0.00000E+00  9.000E+00
      21     1     1     2   514   515  4.207344743E+00  1.125026780E+00 -1.188212934E+00  4.514342147E+00  1.490116119E-08  0.00000E+00  9.000E+00
      21     1     1     2   512   514  1.651041829E+01 -1.320639188E+01 -1.923246680E+01  2.858129594E+01  5.331201500E-07  0.00000E+00  9.000E+00
</event>
<event>
      5  10001  3.52971E+09  4.37859E+00 -1.00000E+00  2.54539E-01
      21    -1     0     0   512   514  0.000000000E+00  0.000000000E+00  9.720820275E+01  9.720820275E+01  0.000000000E+00  0.00000E+00  9.000E+00
      -1    -1     0     0     0   513  0.000000000E+00  0.000000000E+00 -4.083716793E+00  4.083716793E+00  0.000000000E+00  0.00000E+00  9.000E+00
      -1     1     1     2     0   511  4.398247537E+00 -6.365283446E+00  2.663076152E+00  8.189156815E+00  3.300000131E-01  0.00000E+00  9.000E+00
      21     1     1     2   512   513 -8.293247733E+00  5.181392877E+00  8.755835915E+01  8.810273008E+01  1.348699152E-06  0.00000E+00  9.000E+00
      21     1     1     2   511   514  3.895000196E+00  1.183890568E+00  2.903050657E+00  5.000032652E+00  1.264405455E-07  0.00000E+00  9.000E+00
</event>
<event>
      5  10001  3.52971E+09  4.30748E+00 -1.00000E+00  2.56107E-01
      21    -1     0     0   513   514  0.000000000E+00  0.000000000E+00  4.808783990E+02  4.808783990E+02  0.000000000E+00  0.00000E+00  9.000E+00
       3    -1     0     0   515     0  0.000000000E+00  0.000000000E+00 -9.646679743E-01  9.646679743E-01  0.000000000E+00  0.00000E+00  9.000E+00
      -3     1     1     2     0   514  4.266614795E+00 -1.082863342E+01  3.828803170E+02  3.830575028E+02  5.000000000E-01  0.00000E+00  9.000E+00
       3     1     1     2   515     0 -8.567434370E+00  1.098209655E+01  6.637580357E+01  6.782333430E+01  5.000000000E-01  0.00000E+00  9.000E+00
       3     1     1     2   513     0  4.300819575E+00 -1.534631273E-01  3.065761050E+01  3.096222992E+01  5.000000000E-01  0.00000E+00  9.000E+00
</event>
<event>
      5  10001  3.52971E+09  8.43049E+00 -1.00000E+00  2.04733E-01
       1    -1     0     0   514     0  0.000000000E+00  0.000000000E+00  1.222078761E+02  1.222078761E+02  0.000000000E+00  0.00000E+00  9.000E+00
      21    -1     0     0   511   512  0.000000000E+00  0.000000000E+00 -2.884480046E+00  2.884480046E+00  0.000000000E+00  0.00000E+00  9.000E+00
      21     1     1     2   513   512  1.193203826E+01  2.329383551E+00  5.955520854E+01  6.078340587E+01  9.536743164E-07  0.00000E+00  9.000E+00
       1     1     1     2   511     0 -7.911721417E+00 -9.738609498E+00  1.966453093E+01  2.332892041E+01  3.300000131E-01  0.00000E+00  9.000E+00
      21     1     1     2   514   513 -4.020316838E+00  7.409225947E+00  4.010365655E+01  4.098002984E+01  0.000000000E+00  0.00000E+00  9.000E+00
</event>
<event>
      5  10001  3.52971E+09  3.21979E+00 -1.00000E+00  2.87841E-01
      21    -1     0     0   515   511  0.000000000E+00  0.000000000E+00  3.211268593E+00  3.211268593E+00  0.000000000E+00  0.00000E+00  9.000E+00
      21    -1     0     0   516   513  0.000000000E+00  0.000000000E+00 -6.104850511E+01  6.104850511E+01  0.000000000E+00  0.00000E+00  9.000E+00
      21     1     1     2   515   513 -2.674088299E+00 -1.244924584E+01 -3.901301376E+01  4.103839316E+01  4.768371582E-07  0.00000E+00  9.000E+00
      21     1     1     2   512   511  2.153989746E-01  8.667581553E+00 -9.489359463E+00  1.285384416E+01  2.920019320E-07  0.00000E+00  9.000E+00
      21     1     1     2   516   512  2.458689324E+00  3.781664288E+00 -9.334863294E+00  1.036753639E+01  0.000000000E+00  0.00000E+00  9.000E+00
</event>
<event>
      5  10001  3.52971E+09  3.93485E+00 -1.00000E+00  2.65153E-01
      21    -1     0     0   514   512  0.000000000E+00  0.000000000E+00  1.060105845E+02  1.060105845E+02  0.000000000E+00  0.00000E+00  9.000E+00
      21    -1     0     0   511   517  0.000000000E+00  0.000000000E+00 -1.028962751E+02  1.028962751E+02  0.000000000E+00  0.00000E+00  9.000E+00
      21     1     1     2   514   517  9.647923650E+00 -6.218604195E+00  9.032942897E+01  9.105580270E+01  1.348699152E-06  0.00000E+00  9.000E+00
      21     1     1     2   516   512 -7.105609562E+00  9.221884398E+00  1.306180569E+01  1.749695994E+01  1.685873940E-07  0.00000E+00  9.000E+00
      21     1     1     2   511   516 -2.542314088E+00 -3.003280203E+00 -1.002769252E+02  1.003540970E+02  0.000000000E+00  0.00000E+00  9.000E+00
</event>
<event>
      5  10001  3.52971E+09  7.46312E+00 -1.00000E+00  2.11690E-01
      21    -1     0     0   512   516  0.000000000E+00  0.000000000E+00  5.090489948E+02  5.090489948E+02  0.000000000E+00  0.00000E+00  9.000E+00
      21    -1     0     0   511   515  0.000000000E+00  0.000000000E+00 -9.393019975E+00  9.393019975E+00  0.000000000E+00  0.00000E+00  9.000E+00
      21     1     1     2   513   515 -1.545989110E+01 -2.253794970E+00  1.512051792E+02  1.520101774E+02  0.000000000E+00  0.00000E+00  9.000E+00
      21     1     1     2   511   516  1.282874579E+01 -4.730136245E+00 -3.729470680E+00  1.417250362E+01  2.920019320E-07  0.00000E+00  9.000E+00
      21     1     1     2   512   513  2.631145308E+00  6.983931215E+00  3.521802663E+02  3.522593337E+02  3.814697266E-06  0.00000E+00  9.000E+00
</event>
<event>
      5  10001  3.52971E+09  1.03800E+01 -1.00000E+00  1.93898E-01
      21    -1     0     0   511   515  0.000000000E+00  0.000000000E+00  5.773903390E+00  5.773903390E+00  0.000000000E+00  0.00000E+00  9.000E+00
       2    -1     0     0   513     0  0.000000000E+00  0.000000000E+00 -7.375973888E+02  7.375973888E+02  0.000000000E+00  0.00000E+00  9.000E+00
      21     1     1     2   511   514 -1.530840880E+00  1.366515512E+01 -4.082172366E+00  1.434378156E+01  1.400392070E-06  0.00000E+00  9.000E+00
       2     1     1     2   514     0 -6.900730391E+00 -7.611021731E+00 -6.837845838E+02  6.838618382E+02  3.300000131E-01  0.00000E+00  9.000E+00
      21     1     1     2   513   515  8.431571271E+00 -6.054133384E+00 -4.395672924E+01  4.516567248E+01  0.000000000E+00  0.00000E+00  9.000E+00
</event>
<event>
      5  10001  3.52971E+09  1.50480E+01 -1.00000E+00  1.77249E-01
       3    -1     0     0   511     0  0.000000000E+00  0.000000000E+00  4.781883176E+00  4.781883176E+00  0.000000000E+00  0.00000E+00  9.000E+00
      21    -1     0     0   514   511  0.000000000E+00  0.000000000E+00 -2.129722636E+02  2.129722636E+02  0.000000000E+00  0.00000E+00  9.000E+00
      21     1     1     2   514   512  2.098036934E+01 -1.919506096E+01 -1.262912658E+02  1.294531192E+02  1.907348633E-06  0.00000E+00  9.000E+00
      21     1     1     2   512   516 -1.201469330E+01  1.430063751E+01 -7.074103801E+01  7.316526188E+01  9.536743164E-07  0.00000E+00  9.000E+00
       3     1     1     2   516     0 -8.965676048E+00  4.894423451E+00 -1.115807659E+01  1.513576563E+01  5.000000000E-01  0.00000E+00  9.000E+00
</event>
<event>
      5  10001  3.52971E+09  1.01299E+01 -1.00000E+00  1.95107E-01
      21    -1     0     0   513   514  0.000000000E+00  0.000000000E+00  2.417708199E+02  2.417708199E+02  0.000000000E+00  0.00000E+00  9.000E+00
      21    -1     0     0   515   513  0.000000000E+00  0.000000000E+00 -2.248758951E+01  2.248758951E+01  0.000000000E+00  0.00000E+00  9.000E+00
      21     1     1     2   517   514 -1.388990905E+01 -7.376251839E+00  2.369473489E+02  2.374687028E+02  3.814697266E-06  0.00000E+00  9.000E+00
      21     1     1     2   511   517  1.133939573E+01 -9.325512351E-01 -1.112768257E+01  1.591467457E+01  3.153981341E-07  0.00000E+00  9.000E+00
      21     1     1     2   515   511  2.550513313E+00  8.308803074E+00 -6.536435938E+00  1.087503202E+01  3.264680848E-07  0.00000E+00  9.000E+00
</event>
<event>
      5  10001  3.52971E+09  8.23995E+00 -1.00000E+00  2.06001E-01
      21    -1     0     0   512   511  0.000000000E+00  0.000000000E+00  3.650267866E+00  3.650267866E+00  0.000000000E+00  0.00000E+00  9.000E+00
      21    -1     0     0   514   516  0.000000000E+00  0.000000000E+00 -3.149480355E+01  3.149480355E+01  0.000000000E+00  0.00000E+00  9.000E+00
      21     1     1     2   512   516  3.271048193E-01 -8.615488971E+00 -1.220670913E+01  1.494447709E+01  2.384185791E-07  0.00000E+00  9.000E+00
      21     1     1     2   513   511 -3.279176695E+00  5.713703423E+00 -1.447077124E+01  1.589976814E+01  2.384185791E-07  0.00000E+00  9.000E+00
      21     1     1     2   514   513  2.952071876E+00  2.901785548E+00 -1.167055309E+00  4.300826179E+00  2.580956828E-08  0.00000E+00  9.000E+00
</event>
<event>
      5  10001  3.52971E+09  2.18171E+01 -1.00000E+00  1.63309E-01
       2    -1     0     0   514     0  0.000000000E+00  0.000000000E+00  2.634527352E+02  2.634527352E+02  0.000000000E+00  0.00000E+00  9.000E+00
      21    -1     0     0   515   513  0.000000000E+00  0.000000000E+00 -1.412359376E+00  1.412359376E+00  0.000000000E+00  0.00000E+00  9.000E+00
      21     1     1     2   514   513 -7.773217890E+00 -6.343704086E+00  1.163054279E+02  1.167373893E+02  0.000000000E+00  0.00000E+00  9.000E+00
      21     1     1     2   515   511 -1.386115651E+00  7.238441916E+00  1.204416301E+01  1.412013529E+01  3.371747881E-07  0.00000E+00  9.000E+00
       2     1     1     2   511     0  9.159333541E+00 -8.947378301E-01  1.336907850E+02  1.340075701E+02  3.300000131E-01  0.00000E+00  9.000E+00
</event>
<event>
      5  10001  3.52971E+09  2.22882E+00 -1.00000E+00  3.42441E-01
      21    -1     0     0   512   514  0.000000000E+00  0.000000000E+00  1.548108570E+00  1.548108570E+00  0.000000000E+00  0.00000E+00  9.000E+00
      21    -1     0     0   517   516  0.000000000E+00  0.000000000E+00 -1.188425184E+02  1.188425184E+02  0.000000000E+00  0.00000E+00  9.000E+00
      21     1     1     2   512   516 -9.205920819E+00 -6.795330361E+00 -3.555717627E+01  3.735288847E+01  4.768371582E-07  0.00000E+00  9.000E+00
      21     1     1     2   517   513  1.019333790E+01  4.797174365E+00 -7.678524711E+01  7.760728828E+01  9.536743164E-07  0.00000E+00  9.000E+00
      21     1     1     2   513   514 -9.874170854E-01  1.998155996E+00 -4.951986488E+00  5.430450263E+00  5.960464478E-08  0.00000E+00  9.000E+00
</event>
<event>
      5  10001  3.52971E+09  5.00848E+00 -1.00000E+00  2.38381E-01
      21    -1     0     0   513   514  0.000000000E+00  0.000000000E+00  9.564762360E+01  9.564762360E+01  0.000000000E+00  0.00000E+00  9.000E+00
      -4    -1     0     0     0   511  0.000000000E+00  0.000000000E+00 -1.372681806E+01  1.372681806E+01  0.000000000E+00  0.00000E+00  9.000E+00
      -4     1     1     2     0   514  1.492902489E+01  7.113064867E+00 -7.004445442E+00  1.802175718E+01  1.500000000E+00  0.00000E+00  9.000E+00
      21     1     1     2   512   511 -1.121875738E+01 -3.939234695E+00  8.212420112E+01  8.298049467E+01  1.348699152E-06  0.00000E+00  9.000E+00
      21     1     1     2   513   512 -3.710267512E+00 -3.173830172E+00  6.801049868E+00  8.372189814E+00  8.429369702E-08  0.00000E+00  9.000E+00
</event>
<event>
      5  10001  3.52971E+09  1.73320E+01 -1.00000E+00  1.71665E-01
      21    -1     0     0   515   511  0.000000000E+00  0.000000000E+00  1.048682664E+01  1.048682664E+01  0.000000000E+00  0.00000E+00  9.000E+00
      21    -1     0     0   516   515  0.000000000E+00  0.000000000E+00 -3.145467654E+01  3.145467654E+01  0.000000000E+00  0.00000E+00  9.000E+00
      21     1     1     2   512   511  1.416897806E+01 -3.438182093E+00 -8.019473708E+00  1.664010198E+01  0.000000000E+00  0.00000E+00  9.000E+00
      21     1     1     2   514   512 -7.425469274E+00 -5.091075230E+00 -1.106735161E+01  1.426684662E+01  0.000000000E+00  0.00000E+00  9.000E+00
      21     1     1     2   516   514 -6.743508785E+00  8.529257323E+00 -1.881024579E+00  1.103455458E+01  1.931411236E-07  0.00000E+00  9.000E+00
</event>
<event>
      5  10001  3.52971E+09  5.63144E+00 -1.00000E+00  2.29828E-01
       2    -1     0     0   512     0  0.000000000E+00  0.000000000E+00  8.448284798E+02  8.448284798E+02  0.000000000E+00  0.00000E+00  9.000E+00
      21    -1     0     0   513   511  0.000000000E+00  0.000000000E+00 -7.085991707E+00  7.085991707E+00  0.000000000E+00  0.00000E+00  9.000E+00
       2     1     1     2   513     0 -1.069910987E+01 -2.045450129E+00  8.325191114E+02  8.325904363E+02  3.300000131E-01  0.00000E+00  9.000E+00
       3     1     1     2   512     0  7.473122103E+00  6.660711445E+00 -1.929308141E+00  1.020709855E+01  5.000000000E-01  0.00000E+00  9.000E+00
      -3     1     1     2     0   511  3.225987768E+00 -4.615261316E+00  7.152684793E+00  9.116936648E+00  5.000000000E-01  0.00000E+00  9.000E+00
</event>
<event>
      5  10001  3.52971E+09  1.21630E+01 -1.00000E+00  1.86410E-01
      21    -1     0     0   514   513  0.000000000E+00  0.000000000E+00  3.703245373E+00  3.703245373E+00  0.000000000E+00  0.00000E+00  9.000E+00
      21    -1     0     0   515   514  0.000000000E+00  0.000000000E+00 -9.168896861E+01  9.168896861E+01  0.000000000E+00  0.00000E+00  9.000E+00
      21     1     1     2   515   511  1.138411384E+01  1.591463724E+00 -7.643642721E+01  7.729591328E+01  0.000000000E+00  0.00000E+00  9.000E+00
       3     1     1     2   511     0 -3.934555997E+00 -3.430556164E+00 -8.144558321E+00  9.686757803E+00  5.000000000E-01  0.00000E+00  9.000E+00
      -3     1     1     2     0   513 -7.449557838E+00  1.839092440E+00 -3.404737704E+00  8.409542902E+00  5.000000000E-01  0.00000E+00  9.000E+00
</event>
<event>
      5  10001  3.52971E+09  3.73515E+00 -1.00000E+00  2.70675E-01
       1    -1     0     0   514     0  0.000000000E+00  0.000000000E+00  1.363525403E+01  1.363525403E+01  0.000000000E+00  0.00000E+00  9.000E+00
      21    -1     0     0   511   514  0.000000000E+00  0.000000000E+00 -1.396120405E+01  1.396120405E+01  0.000000000E+00  0.00000E+00  9.000E+00
      21     1     1     2   515   512 -9.648818449E-01 -9.195169073E+00 -7.635307813E+00  1.199083219E+01  2.064765462E-07  0.00000E+00  9.000E+00
       1     1     1     2   512     0  3.628888489E+00  8.712854158E+00  8.445506475E+00  1.266957532E+01  3.300000131E-01  0.00000E+00  9.000E+00
      21     1     1     2   511   515 -2.664006645E+00  4.823149150E-01 -1.136148687E+00  2.936050565E+00  2.980232239E-08  0.00000E+00  9.000E+00
</event>
<event>
      5  10001  3.52971E+09  4.07008E+00 -1.00000E+00  2.61697E-01
      21    -1     0     0   513   512  0.000000000E+00  0.000000000E+00  6.089455407E+00  6.089455407E+00  0.000000000E+00  0.00000E+00  9.000E+00
      21    -1     0     0   511   515  0.000000000E+00  0.000000000E+00 -6.820406265E+01  6.820406265E+01  0.000000000E+00  0.00000E+00  9.000E+00
      21     1     1     2   513   515 -1.408494348E+01 -3.997207568E+00 -5.446147830E+01  5.639517638E+01  6.743495762E-07  0.00000E+00  9.000E+00
      21     1     1     2   514   512  8.982461711E+00  4.874192139E+00 -2.348753686E+00  1.048613424E+01  1.632340424E-07  0.00000E+00  9.000E+00
      21     1     1     2   511   514  5.102481768E+00 -8.769845709E-01 -5.304375257E+00  7.412207431E+00  0.000000000E+00  0.00000E+00  9.000E+00
</event>
<event>
      5  10001  3.52971E+09  1.49352E+01 -1.00000E+00  1.77557E-01
      21    -1     0     0   516   514  0.000000000E+00  0.000000000E+00  2.301446303E+01  2.301446303E+01  0.000000000E+00  0.00000E+00  9.000E+00
      21    -1     0     0   511   516  0.000000000E+00  0.000000000E+00 -2.931263581E+01  2.931263581E+01  0.000000000E+00  0.00000E+00  9.000E+00
      21     1     1     2   511   517  7.233669885E+00 -6.504656393E+00 -2.617460036E+01  2.792393666E+01  3.371747881E-07  0.00000E+00  9.000E+00
      21     1     1     2   517   512  2.433230989E+00  2.303218801E+00  7.017430725E+00  7.776230698E+00  0.000000000E+00  0.00000E+00  9.000E+00
      21     1     1     2   512   514 -9.666900873E+00  4.201437592E+00  1.285899685E+01  1.662693148E+01  4.129530925E-07  0.00000E+00  9.000E+00
</event>
<event>
      5  10001  3.52971E+09  8.13220E+00 -1.00000E+00  2.06739E-01
      21    -1     0     0   513   515  0.000000000E+00  0.000000000E+00  5.102813247E+02  5.102813247E+02  0.000000000E+00  0.00000E+00  9.000E+00
      21    -1     0     0   511   516  0.000000000E+00  0.000000000E+00 -5.512666108E+01  5.512666108E+01  0.000000000E+00  0.00000E+00  9.000E+00
      21     1     1     2   513   514 -1.169998331E+01 -6.688443143E+00  7.317789495E+01  7.440852902E+01  2.523185073E-06  0.00000E+00  9.000E+00
      21     1     1     2   511   515  1.835463244E+01  1.136266631E+01  4.359162303E+02  4.364504125E+02  9.344061824E-06  0.00000E+00  9.000E+00
      21     1     1     2   514   516 -6.654649134E+00 -4.674223164E+00 -5.393946160E+01  5.454904431E+01  1.507891493E-06  0.00000E+00  9.000E+00
</event>
<event>
      5  10001  3.52971E+09  5.91348E+00 -1.00000E+00  2.26450E-01
      21    -1     0     0   512   515  0.000000000E+00  0.000000000E+00  2.116058582E+00  2.116058582E+00  0.000000000E+00  0.00000E+00  9.000E+00
      21    -1     0     0   517   512  0.000000000E+00  0.000000000E+00 -3.158645545E+02  3.158645545E+02  0.000000000E+00  0.00000E+00  9.000E+00
      21     1     1     2   511   515  1.179524013E+01  9.922361105E+00 -2.959482464E+01  3.336816724E+01  1.011524364E-06  0.00000E+00  9.000E+00
      21     1     1     2   517   513 -5.154355618E+00 -5.905753641E+00 -1.057971402E+02  1.060871348E+02  1.348699152E-06  0.00000E+00  9.000E+00
      21     1     1     2   513   511 -6.640884514E+00 -4.016607463E+00 -1.783565311E+02  1.785253110E+02  3.814697266E-06  0.00000E+00  9.000E+00
</event>
<event>
      5  10001  3.52971E+09  1.88886E+01 -1.00000E+00  1.68441E-01
      21    -1     0     0   514   515  0.000000000E+00  0.000000000E+00  4.364319411E+00  4.364319411E+00  0.000000000E+00  0.00000E+00  9.000E+00
      21    -1     0     0   516   514  0.000000000E+00  0.000000000E+00 -8.529924776E+01  8.529924776E+01  0.000000000E+00  0.00000E+00  9.000E+00
      21     1     1     2   516   511  1.643460047E+00  8.613715933E+00 -5.820645143E+01  5.886329969E+01  9.536743164E-07  0.00000E+00  9.000E+00
      21     1     1     2   512   515 -9.869926817E+00 -5.623783522E+00 -1.660148918E+01  2.011595982E+01  4.129530925E-07  0.00000E+00  9.000E+00
      21     1     1     2   511   512  8.226466770E+00 -2.989932411E+00 -6.126987744E+00  1.068430766E+01  1.685873940E-07  0.00000E+00  9.000E+00
</event>
<event>
      5  10001  3.52971E+09  9.60815E+00 -1.00000E+00  1.97781E-01
      21    -1     0     0   514   512  0.000000000E+00  0.000000000E+00  4.091393526E+01  4.091393526E+01  0.000000000E+00  0.00000E+00  9.000E+00
      21    -1     0     0   511   517  0.000000000E+00  0.000000000E+00 -7.435519810E+01  7.435519810E+01  0.000000000E+00  0.00000E+00  9.000E+00
      21     1     1     2   513   517 -2.027029153E+01  2.204941337E+01 -4.773916592E+01  5.635680359E+01  1.168007728E-06  0.00000E+00  9.000E+00
      21     1     1     2   511   512  2.254020536E+01 -1.271324079E+01 -1.372168287E+01  2.929115788E+01  7.907449699E-07  0.00000E+00  9.000E+00
      21     1     1     2   514   513 -2.269913827E+00 -9.336172584E+00  2.801958595E+01  2.962117189E+01  4.768371582E-07  0.00000E+00  9.000E+00
</event>
<event>
      5  10001  3.52971E+09  7.86018E+00 -1.00000E+00  2.08672E-01
      21    -1     0     0   515   511  0.000000000E+00  0.000000000E+00  2.660084284E+00  2.660084284E+00  0.000000000E+00  0.00000E+00  9.000E+00
      21    -1     0     0   516   513  0.000000000E+00  0.000000000E+00 -1.770528302E+02  1.770528302E+02  0.000000000E+00  0.00000E+00  9.000E+00
      21     1     1     2   515   513 -8.716426575E+00 -8.936533297E+00 -1.481958498E+02  1.487207034E+02  1.907348633E-06  0.00000E+00  9.000E+00
      21     1     1     2   512   511  5.702611830E+00  1.947064499E+00 -3.314904290E+00  6.877458274E+00  2.149076030E-07  0.00000E+00  9.000E+00
      21     1     1     2   516   512  3.013814744E+00  6.989468798E+00 -2.288199177E+01  2.411475276E+01  0.000000000E+00  0.00000E+00  9.000E+00
</event>
<event>
      5  10001  3.52971E+09  6.02579E+00 -1.00000E+00  2.25177E-01
       2    -1     0     0   514     0  0.000000000E+00  0.000000000E+00  8.824942546E+02  8.824942546E+02  0.000000000E+00  0.00000E+00  9.000E+00
      -1    -1     0     0     0   514  0.000000000E+00  0.000000000E+00 -1.375733452E+00  1.375733452E+00  0.000000000E+00  0.00000E+00  9.000E+00
      21     1     1     2   513   511  1.733317718E+01 -2.273913743E+01  2.056751203E+02  2.076529858E+02  2.697398305E-06  0.00000E+00  9.000E+00
       2     1     1     2   511     0 -1.536660302E+01  2.094662577E+01  6.619561306E+02  6.624657888E+02  3.300000131E-01  0.00000E+00  9.000E+00
      -1     1     1     2     0   513 -1.966574158E+00  1.792511667E+00  1.348727019E+01  1.375121337E+01  3.300000131E-01  0.00000E+00  9.000E+00
</event>
<event>
      5  10001  3.52971E+09  6.19701E+01 -1.00000E+00  1.33956E-01
       2    -1     0     0   513     0  0.000000000E+00  0.000000000E+00  4.723476902E+01  4.723476902E+01  0.000000000E+00  0.00000E+00  9.000E+00
      21    -1     0     0   511   513  0.000000000E+00  0.000000000E+00 -4.902829129E+01  4.902829129E+01  0.000000000E+00  0.00000E+00  9.000E+00
      21     1     1     2   511   512 -9.988343454E+00  5.568049277E+00 -3.528198318E+01  3.708892712E+01  6.743495762E-07  0.00000E+00  9.000E+00
      21     1     1     2   512   514 -1.704764083E+01  7.585615509E+00  1.141494263E+01  2.187383221E+01  3.769728732E-07  0.00000E+00  9.000E+00
       2     1     1     2   514     0  2.703598428E+01 -1.315366479E+01  2.207351829E+01  3.730030098E+01  3.300000131E-01  0.00000E+00  9.000E+00
</event>
<event>
      5  10001  3.52971E+09  2.13344E+00 -1.00000E+00  3.50455E-01
      21    -1     0     0   515   511  0.000000000E+00  0.000000000E+00  2.183560611E+01  2.183560611E+01  0.000000000E+00  0.00000E+00  9.000E+00
      -4    -1     0     0     0   515  0.000000000E+00  0.000000000E+00 -2.732719828E+02  2.732719828E+02  0.000000000E+00  0.00000E+00  9.000E+00
      21     1     1     2   517   511  1.132019066E+01  4.308233857E+00 -1.657456429E+00  1.222516901E+01  2.904771073E-07  0.00000E+00  9.000E+00
      21     1     1     2   516   517 -9.189019573E+00 -4.401897651E+00  1.497668639E+01  1.811397027E+01  4.768371582E-07  0.00000E+00  9.000E+00
      -4     1     1     2     0   516 -2.131171090E+00  9.366379446E-02 -2.647556067E+02  2.647684496E+02  1.500000000E+00  0.00000E+00  9.000E+00
</event>
<event>
      5  10001  3.52971E+09  4.81014E+00 -1.00000E+00  2.45914E-01
      21    -1     0     0   513   514  0.000000000E+00  0.000000000E+00  8.707597457E-01  8.707597457E-01  0.000000000E+00  0.00000E+00  9.000E+00
      21    -1     0     0   512   513  0.000000000E+00  0.000000000E+00 -2.179624160E+02  2.179624160E+02  0.000000000E+00  0.00000E+00  9.000E+00
      -2     1     1     2     0   511 -6.100109535E+00  6.978634823E+00 -4.198918483E+01  4.300131653E+01  3.300000131E-01  0.00000E+00  9.000E+00
       2     1     1     2   512     0  3.880499153E+00 -8.695536083E+00 -1.667226433E+02  1.669946686E+02  3.300000131E-01  0.00000E+00  9.000E+00
      21     1     1     2   511   514  2.219610382E+00  1.716901260E+00 -8.379828044E+00  8.837190630E+00  1.192092896E-07  0.00000E+00  9.000E+00
</event>
<event>
      5  10001  3.52971E+09  1.26546E+01 -1.00000E+00  1.84631E-01
      21    -1     0     0   515   511  0.000000000E+00  0.000000000E+00  1.288361064E+02  1.288361064E+02  0.000000000E+00  0.00000E+00  9.000E+00
      21    -1     0     0   512   515  0.000000000E+00  0.000000000E+00 -1.544536557E+01  1.544536557E+01  0.000000000E+00  0.00000E+00  9.000E+00
      21     1     1     2   514   516  5.218020228E+00 -1.146185859E+01 -6.663418155E+00  1.424791489E+01  6.364034565E-07  0.00000E+00  9.000E+00
      21     1     1     2   516   511  7.216478296E+00  1.381184669E+01  1.155578860E+02  1.166039008E+02  2.336015456E-06  0.00000E+00  9.000E+00
      21     1     1     2   512   514 -1.243449852E+01 -2.349988104E+00  4.496273037E+00  1.342965632E+01  2.528810911E-07  0.00000E+00  9.000E+00
</event>
<event>
      5  10001  3.52971E+09  4.77619E+00 -1.00000E+00  2.46543E-01
      21    -1     0     0   512   511  0.000000000E+00  0.000000000E+00  1.076273260E+01  1.076273260E+01  0.000000000E+00  0.00000E+00  9.000E+00
       2    -1     0     0   513     0  0.000000000E+00  0.000000000E+00 -3.317095661E+02  3.317095661E+02  0.000000000E+00  0.00000E+00  9.000E+00
      21     1     1     2   513   511  1.003521366E+01 -2.372632039E+00  7.982504028E+00  1.304052401E+01  6.136673773E-07  0.00000E+00  9.000E+00
       2     1     1     2   515     0 -6.649282090E+00 -7.161422299E-01 -3.046545368E+02  3.047281108E+02  3.300000131E-01  0.00000E+00  9.000E+00
      21     1     1     2   512   515 -3.385931570E+00  3.088774269E+00 -2.427480077E+01  2.470366393E+01  3.371747881E-07  0.00000E+00  9.000E+00
</event>
<event>
      5  10001  3.52971E+09  1.20947E+01 -1.00000E+00  1.86666E-01
      21    -1     0     0   514   513  0.000000000E+00  0.000000000E+00  1.232022218E+00  1.232022218E+00  0.000000000E+00  0.00000E+00  9.000E+00
      21    -1     0     0   516   514  0.000000000E+00  0.000000000E+00 -1.602841711E+02  1.602841711E+02  0.000000000E+00  0.00000E+00  9.000E+00
      21     1     1     2   515   513 -1.008535357E+01 -1.833853346E-01 -2.687976776E+01  2.871010104E+01  3.371747881E-07  0.00000E+00  9.000E+00
      21     1     1     2   516   511  4.243440960E+00  2.059651001E+00 -2.395914169E+01  2.441903814E+01  3.371747881E-07  0.00000E+00  9.000E+00
      21     1     1     2   511   515  5.841912608E+00 -1.876265667E+00 -1.082132394E+02  1.083870541E+02  1.907348633E-06  0.00000E+00  9.000E+00
</event>
<event>
      5  10001  3.52971E+09  3.28230E+00 -1.00000E+00  2.85488E-01
      21    -1     0     0   512   516  0.000000000E+00  0.000000000E+00  1.475094123E+02  1.475094123E+02  0.000000000E+00  0.00000E+00  9.000E+00
      21    -1     0     0   513   514  0.000000000E+00  0.000000000E+00 -4.299088143E+00  4.299088143E+00  0.000000000E+00  0.00000E+00  9.000E+00
      21     1     1     2   512   515  7.426454211E+00  1.249755069E+01  9.959423691E+01  1.006496548E+02  0.000000000E+00  0.00000E+00  9.000E+00
      21     1     1     2   513   516 -1.058340706E+01 -1.339597721E+01  4.458062934E+01  4.773775469E+01  0.000000000E+00  0.00000E+00  9.000E+00
      21     1     1     2   515   514  3.156952851E+00  8.984265218E-01 -9.645420940E-01  3.421090903E+00  1.769414855E-07  0.00000E+00  9.000E+00
</event>
<event>
      5  10001  3.52971E+09  4.61682E+00 -1.00000E+00  2.49601E-01
      -1    -1     0     0     0   511  0.000000000E+00  0.000000000E+00  4.759236182E+00  4.759236182E+00  0.000000000E+00  0.00000E+00  9.000E+00
      -2    -1     0     0     0   512  0.000000000E+00  0.000000000E+00 -8.534584346E+01  8.534584346E+01  0.000000000E+00  0.00000E+00  9.000E+00
      -2     1     1     2     0   513  9.320270919E+00  7.249267505E+00 -3.176989285E+01  3.389475359E+01  3.300000131E-01  0.00000E+00  9.000E+00
      -1     1     1     2     0   512 -1.667626992E+01 -1.052359706E+01 -3.667469574E+01  4.164116090E+01  3.300000131E-01  0.00000E+00  9.000E+00
      21     1     1     2   513   511  7.355999001E+00  3.274329557E+00 -1.214201870E+01  1.456916516E+01  2.384185791E-07  0.00000E+00  9.000E+00
</event>
<event>
      5  10001  3.52971E+09  5.09675E+00 -1.00000E+00  2.37064E-01
      21    -1     0     0   514   515  0.000000000E+00  0.000000000E+00  1.233039074E+00  1.233039074E+00  0.000000000E+00  0.00000E+00  9.000E+00
      21    -1     0     0   513   511  0.000000000E+00  0.000000000E+00 -2.047621173E+02  2.047621173E+02  0.000000000E+00  0.00000E+00  9.000E+00
      21     1     1     2   514   511  8.591848117E+00 -8.425760242E+00 -1.578880109E+02  1.583459417E+02  1.907348633E-06  0.00000E+00  9.000E+00
      21     1     1     2   512   515 -5.705515769E+00  3.006511540E+00 -1.394711781E+01  1.536600524E+01  2.384185791E-07  0.00000E+00  9.000E+00
      21     1     1     2   513   512 -2.886332348E+00  5.419248701E+00 -3.169394960E+01  3.228320944E+01  7.539457465E-07  0.00000E+00  9.000E+00
</event>
<event>
      5  10001  3.52971E+09  2.00347E+01 -1.00000E+00  1.66304E-01
      21    -1     0     0   516   511  0.000000000E+00  0.000000000E+00  1.427791612E+00  1.427791612E+00  0.000000000E+00  0.00000E+00  9.000E+00
      21    -1     0     0   513   517  0.000000000E+00  0.000000000E+00 -1.660134321E+02  1.660134321E+02  0.000000000E+00  0.00000E+00  9.000E+00
      21     1     1     2   516   517  6.362169733E+00  4.743473425E+00 -3.281254655E+01  3.375856862E+01  0.000000000E+00  0.00000E+00  9.000E+00
      21     1     1     2   514   511 -3.905305008E+00  2.198926071E-01 -1.243990202E+02  1.244604997E+02  0.000000000E+00  0.00000E+00  9.000E+00
      21     1     1     2   513   514 -2.456864725E+00 -4.963366032E+00 -7.374073756E+00  9.222155410E+00  2.064765462E-07  0.00000E+00  9.000E+00
</event>
<event>
      5  10001  3.52971E+09  7.07723E+00 -1.00000E+00  2.14877E-01
       2    -1     0     0   513     0  0.000000000E+00  0.000000000E+00  8.253748734E+01  8.253748734E+01  0.000000000E+00  0.00000E+00  9.000E+00
      21    -1     0     0   512   514  0.000000000E+00  0.000000000E+00 -1.277719420E+00  1.277719420E+00  0.000000000E+00  0.00000E+00  9.000E+00
      21     1     1     2   513   514 -4.989914028E+00 -6.908279811E+00  3.154100904E+01  3.267198836E+01  6.743495762E-07  0.00000E+00  9.000E+00
       2     1     1     2   511     0  3.847018081E+00  3.943453397E+00  4.564182999E+01  4.597429628E+01  3.300000131E-01  0.00000E+00  9.000E+00
      21     1     1     2   512   511  1.142895947E+00  2.964826413E+00  4.076928880E+00  5.168922122E+00  1.032382731E-07  0.00000E+00  9.000E+00
</event>
<event>
      5  10001  3.52971E+09  1.19847E+01 -1.00000E+00  1.87082E-01
      21    -1     0     0   515   511  0.000000000E+00  0.000000000E+00  7.315534031E-01  7.315534031E-01  0.000000000E+00  0.00000E+00  9.000E+00
      21    -1     0     0   512   515  0.000000000E+00  0.000000000E+00 -5.255450480E+02  5.255450480E+02  0.000000000E+00  0.00000E+00  9.000E+00
      21     1     1     2   512   516  1.160330962E+00  1.032862693E+01 -4.667338046E+02  4.668495167E+02  5.394796609E-06  0.00000E+00  9.000E+00
      21     1     1     2   516   513 -9.210004474E-01 -4.798178313E+00 -4.442691352E+01  4.469475810E+01  9.536743164E-07  0.00000E+00  9.000E+00
      21     1     1     2   513   511 -2.393305148E-01 -5.530448620E+00 -1.365277648E+01  1.473232658E+01  6.078504936E-07  0.00000E+00  9.000E+00
</event>
<event>
      5  10001  3.52971E+09  8.98924E+00 -1.00000E+00  2.01259E-01
      21    -1     0     0   514   511  0.000000000E+00  0.000000000E+00  3.041774623E+02  3.041774623E+02  0.000000000E+00  0.00000E+00  9.000E+00
      21    -1     0     0   513   514  0.000000000E+00  0.000000000E+00 -4.342549361E-01  4.342549361E-01  0.000000000E+00  0.00000E+00  9.000E+00
      -2     1     1     2     0   511 -9.822754981E-01 -9.621432179E+00  1.550355561E+02  1.553372762E+02  3.300000131E-01  0.00000E+00  9.000E+00
      21     1     1     2   513   512  4.767735847E+00  4.088923042E+00  7.354384557E+01  7.381156968E+01  9.536743164E-07  0.00000E+00  9.000E+00
       2     1     1     2   512     0 -3.785460349E+00  5.532509136E+00  7.516380567E+01  7.546287134E+01  3.300000131E-01  0.00000E+00  9.000E+00
</event>
<event>
      5  10001  3.52971E+09  3.42774E+00 -1.00000E+00  2.80331E-01
      21    -1     0     0   515   512  0.000000000E+00  0.000000000E+00  1.625095347E+01  1.625095347E+01  0.000000000E+00  0.00000E+00  9.000E+00
      21    -1     0     0   516   515  0.000000000E+00  0.000000000E+00 -9.880950851E+00  9.880950851E+00  0.000000000E+00  0.00000E+00  9.000E+00
      21     1     1     2   513   512  9.329589076E+00  4.727847014E+00  1.031753504E+01  1.469167448E+01  0.000000000E+00  0.00000E+00  9.000E+00
      21     1     1     2   511   513 -2.311321217E+00 -2.205896535E+00 -1.855437480E+00  3.694703443E+00  6.664001875E-08  0.00000E+00  9.000E+00
      21     1     1     2   516   511 -7.018267859E+00 -2.521950478E+00 -2.092094941E+00  7.745526399E+00  7.884953353E-08  0.00000E+00  9.000E+00
</event>
<event>
      5  10001  3.52971E+09  5.67831E+00 -1.00000E+00  2.29248E-01
      21    -1     0     0   514   511  0.000000000E+00  0.000000000E+00  1.185138196E+01  1.185138196E+01  0.000000000E+00  0.00000E+00  9.000E+00
      21    -1     0     0   512   517  0.000000000E+00  0.000000000E+00 -1.048564754E+02  1.048564754E+02  0.000000000E+00  0.00000E+00  9.000E+00
      21     1     1     2   514   517  1.030025350E+01 -1.828139515E+00 -1.021496842E+02  1.026839583E+02  1.348699152E-06  0.00000E+00  9.000E+00
      21     1     1     2   513   511 -1.384833476E+00  6.034771168E-01  6.354383593E-01  1.638819787E+00  7.989857565E-08  0.00000E+00  9.000E+00
      21     1     1     2   512   513 -8.915420026E+00  1.224662398E+00  8.509152420E+00  1.238507921E+01  5.196212463E-07  0.00000E+00  9.000E+00
</event>
<event>
      5  10001  3.52971E+09  2.90774E+00 -1.00000E+00  3.01035E-01
      21    -1     0     0   512   511  0.000000000E+00  0.000000000E+00  2.867923639E-01  2.867923639E-01  0.000000000E+00  0.00000E+00  9.000E+00
       2    -1     0     0   513     0  0.000000000E+00  0.000000000E+00 -7.620596931E+02  7.620596931E+02  0.000000000E+00  0.00000E+00  9.000E+00
      21     1     1     2   514   511 -7.012699240E+00  2.683206517E+00 -7.530183734E+01  7.567525523E+01  2.132480600E-06  0.00000E+00  9.000E+00
       2     1     1     2   512     0  8.568559421E+00 -6.055066506E+00 -6.249720529E+02  6.250602050E+02  3.300000131E-01  0.00000E+00  9.000E+00
      21     1     1     2   513   514 -1.555860180E+00  3.371859990E+00 -6.149901052E+01  6.161102528E+01  9.536743164E-07  0.00000E+00  9.000E+00
</event>
<event>
      5  10001  3.52971E+09  1.74461E+01 -1.00000E+00  1.71414E-01
      21    -1     0     0   515   514  0.000000000E+00  0.000000000E+00  4.696578223E+01  4.696578223E+01  0.000000000E+00  0.00000E+00  9.000E+00
      21    -1     0     0   513   515  0.000000000E+00  0.000000000E+00 -1.466016129E+02  1.466016129E+02  0.000000000E+00  0.00000E+00  9.000E+00
      21     1     1     2   516   514  1.118280688E+00  1.117585829E+01  4.578180699E+01  4.713941250E+01  6.743495762E-07  0.00000E+00  9.000E+00
      21     1     1     2   511   516 -5.647662244E+00 -7.226322524E+00 -5.091387251E+01  5.173333780E+01  1.168007728E-06  0.00000E+00  9.000E+00
      21     1     1     2   513   511  4.529381556E+00 -3.949535768E+00 -9.450376516E+01  9.469464483E+01  1.348699152E-06  0.00000E+00  9.000E+00
</event>
<event>
      5  10001  3.52971E+09  3.16043E+00 -1.00000E+00  2.90157E-01
       4    -1     0     0   515     0  0.000000000E+00  0.000000000E+00  3.940309569E+00  3.940309569E+00  0.000000000E+00  0.00000E+00  9.000E+00
      21    -1     0     0   514   515  0.000000000E+00  0.000000000E+00 -1.791534230E+02  1.791534230E+02  0.000000000E+00  0.00000E+00  9.000E+00
      21     1     1     2   511   512  1.344802078E+01 -2.560467740E+00 -1.466056482E+02  1.472434085E+02  1.907348633E-06  0.00000E+00  9.000E+00
       4     1     1     2   512     0 -1.374863204E+01 -5.830024759E-01 -1.025277489E+01  1.722597364E+01  1.500000000E+00  0.00000E+00  9.000E+00
      21     1     1     2   514   511  3.006112582E-01  3.143470216E+00 -1.835469038E+01  1.862435048E+01  2.384185791E-07  0.00000E+00  9.000E+00
</event>
<event>
      5  10001  3.52971E+09  1.11704E+01 -1.00000E+00  1.90355E-01
      -1    -1     0     0     0   511  0.000000000E+00  0.000000000E+00  1.625081134E+01  1.625081134E+01  0.000000000E+00  0.00000E+00  9.000E+00
      21    -1     0     0   511   513  0.000000000E+00  0.000000000E+00 -9.692986324E+01  9.692986324E+01  0.000000000E+00  0.00000E+00  9.000E+00
      -1     1     1     2     0   514 -2.404381461E+00 -1.019127510E+01  1.398785031E+01  1.747604059E+01  3.300000131E-01  0.00000E+00  9.000E+00
      21     1     1     2   514   512  5.327250099E+00  2.619724454E+00 -3.906153189E+01  3.951007243E+01  4.768371582E-07  0.00000E+00  9.000E+00
      21     1     1     2   512   513 -2.922868638E+00  7.571550647E+00 -5.560537032E+01  5.619456156E+01  1.168007728E-06  0.00000E+00  9.000E+00
</event>
<event>
      5  10001  3.52971E+09  5.85112E+00 -1.00000E+00  2.27174E-01
      21    -1     0     0   515   513  0.000000000E+00  0.000000000E+00  1.290932594E+02  1.290932594E+02  0.000000000E+00  0.00000E+00  9.000E+00
      21    -1     0     0   511   514  0.000000000E+00  0.000000000E+00 -2.886047043E+01  2.886047043E+01  0.000000000E+00  0.00000E+00  9.000E+00
      21     1     1     2   515   516 -3.659638340E+00  1.223406093E+01  1.443966591E+00  1.285107930E+01  2.811545471E-07  0.00000E+00  9.000E+00
      21     1     1     2   511   513 -1.335238485E+00 -9.186643545E+00  1.213960697E+02  1.217504949E+02  1.348699152E-06  0.00000E+00  9.000E+00
      21     1     1     2   516   514  4.994876825E+00 -3.047417388E+00 -2.260724723E+01  2.335215568E+01  4.768371582E-07  0.00000E+00  9.000E+00
</event>
<event>
      5  10001  3.52971E+09  3.86131E+00 -1.00000E+00  2.67126E-01
      21    -1     0     0   511   513  0.000000000E+00  0.000000000E+00  4.641972396E-01  4.641972396E-01  0.000000000E+00  0.00000E+00  9.000E+00
       4    -1     0     0   513     0  0.000000000E+00  0.000000000E+00 -3.880269454E+02  3.880269454E+02  0.000000000E+00  0.00000E+00  9.000E+00
      21     1     1     2   511   515  8.871471494E+00  6.384561699E+00 -9.123937263E+01  9.189172298E+01  1.348699152E-06  0.00000E+00  9.000E+00
       4     1     1     2   512     0 -7.868352741E+00 -4.731019430E+00 -2.810714759E+02  2.812253867E+02  1.500000000E+00  0.00000E+00  9.000E+00
      21     1     1     2   515   512 -1.003118753E+00 -1.653542270E+00 -1.525189966E+01  1.537403306E+01  1.685873940E-07  0.00000E+00  9.000E+00
</event>
<event>
      5  10001  3.52971E+09  6.71047E+00 -1.00000E+00  2.18174E-01
      21    -1     0     0   514   512  0.000000000E+00  0.000000000E+00  1.899026982E+02  1.899026982E+02  0.000000000E+00  0.00000E+00  9.000E+00
      21    -1     0     0   513   511  0.000000000E+00  0.000000000E+00 -4.665135340E+01  4.665135340E+01  0.000000000E+00  0.00000E+00  9.000E+00
      21     1     1     2   513   516  8.128845607E+00 -2.923207943E+01 -2.495806241E+01  3.928737046E+01  8.259061849E-07  0.00000E+00  9.000E+00
      21     1     1     2   516   512 -3.481733487E+00  2.439113421E+01  1.810817402E+02  1.827502299E+02  3.814697266E-06  0.00000E+00  9.000E+00
      21     1     1     2   514   511 -4.647112119E+00  4.840945217E+00 -1.287233296E+01  1.451645127E+01  3.371747881E-07  0.00000E+00  9.000E+00
</event>
<event>
      5  10001  3.52971E+09  6.99890E+00 -1.00000E+00  2.15558E-01
      21    -1     0     0   515   513  0.000000000E+00  0.000000000E+00  2.995185167E+00  2.995185167E+00  0.000000000E+00  0.00000E+00  9.000E+00
       1    -1     0     0   514     0  0.000000000E+00  0.000000000E+00 -4.864201485E+02  4.864201485E+02  0.000000000E+00  0.00000E+00  9.000E+00
      21     1     1     2   514   512 -1.203755323E+01 -1.309757445E+01 -3.905789951E+02  3.909838879E+02  9.344061824E-06  0.00000E+00  9.000E+00
       1     1     1     2   515     0  1.874013169E+01  1.108334638E+01 -8.572385067E+01  8.844614506E+01  3.300000131E-01  0.00000E+00  9.000E+00
      21     1     1     2   512   513 -6.702578462E+00  2.014228074E+00 -7.122117594E+00  9.985300786E+00  2.920019320E-07  0.00000E+00  9.000E+00
</event>
<event>
      5  10001  3.52971E+09  2.13128E+00 -1.00000E+00  3.50645E-01
      21    -1     0     0   511   514  0.000000000E+00  0.000000000E+00  1.035420206E+01  1.035420206E+01  0.000000000E+00  0.00000E+00  9.000E+00
      21    -1     0     0   515   513  0.000000000E+00  0.000000000E+00 -9.231824514E+01  9.231824514E+01  0.000000000E+00  0.00000E+00  9.000E+00
      21     1     1     2   511   513 -7.306444569E+00 -8.215978259E+00  6.681046600E+00  1.286556702E+01  4.460403188E-07  0.00000E+00  9.000E+00
      21     1     1     2   512   514  8.216152356E+00  6.288602113E+00 -4.783508595E+01  4.894126197E+01  9.536743164E-07  0.00000E+00  9.000E+00
      21     1     1     2   515   512 -9.097077866E-01  1.927376146E+00 -4.081000374E+01  4.086561821E+01  4.768371582E-07  0.00000E+00  9.000E+00
</event>
<event>
      5  10001  3.52971E+09  8.04559E+00 -1.00000E+00  2.07343E-01
      21    -1     0     0   516   512  0.000000000E+00  0.000000000E+00  2.011198784E+01  2.011198784E+01  0.000000000E+00  0.00000E+00  9.000E+00
      21    -1     0     0   515   516  0.000000000E+00  0.000000000E+00 -1.023741996E+01  1.023741996E+01  0.000000000E+00  0.00000E+00  9.000E+00
      21     1     1     2   515   517  1.243906706E+01  1.687525895E+00  3.974148631E+00  1.316707979E+01  1.032382731E-07  0.00000E+00  9.000E+00
      21     1     1     2   517   511 -8.552919090E+00 -2.608452192E-01  8.685784335E+00  1.219275665E+01  1.685873940E-07  0.00000E+00  9.000E+00
      21     1     1     2   511   512 -3.886147968E+00 -1.426680676E+00 -2.785365085E+00  4.989571368E+00  8.429369702E-08  0.00000E+00  9.000E+00
</event>
<event>
      5  10001  3.52971E+09  7.57584E+00 -1.00000E+00  2.10807E-01
      21    -1     0     0   513   511  0.000000000E+00  0.000000000E+00  1.192508843E+01  1.192508843E+01  0.000000000E+00  0.00000E+00  9.000E+00
      21    -1     0     0   512   513  0.000000000E+00  0.000000000E+00 -3.856416223E+01  3.856416223E+01  0.000000000E+00  0.00000E+00  9.000E+00
      21     1     1     2   514   511  4.781942084E+00 -1.220562672E+01  6.127397349E+00  1.447028997E+01  1.884864366E-07  0.00000E+00  9.000E+00
      21     1     1     2   515   514 -5.532989614E+00  4.283924484E+00 -1.566784935E+01  1.715947220E+01  2.920019320E-07  0.00000E+00  9.000E+00
      21     1     1     2   512   515  7.510475299E-01  7.921702233E+00 -1.709862180E+01  1.885948849E+01  3.371747881E-07  0.00000E+00  9.000E+00
</event>
<event>
      5  10001  3.52971E+09  1.00766E+01 -1.00000E+00  1.95370E-01
      21    -1     0     0   516   514  0.000000000E+00  0.000000000E+00  3.309980173E+02  3.309980173E+02  0.000000000E+00  0.00000E+00  9.000E+00
      21    -1     0     0   512   511  0.000000000E+00  0.000000000E+00 -1.661684521E+02  1.661684521E+02  0.000000000E+00  0.00000E+00  9.000E+00
      21     1     1     2   515   514  9.923785091E+00  5.120430711E+00  3.177943570E+02  3.179904931E+02  6.607249480E-06  0.00000E+00  9.000E+00
      21     1     1     2   512   515 -1.162990576E+01  4.810706769E+00  9.891971036E+00  1.600776994E+01  1.215700987E-06  0.00000E+00  9.000E+00
      21     1     1     2   516   511  1.706120668E+00 -9.931137480E+00 -1.628567629E+02  1.631682063E+02  1.907348633E-06  0.00000E+00  9.000E+00
</event>
<event>
      5  10001  3.52971E+09  8.75328E+00 -1.00000E+00  2.02684E-01
      21    -1     0     0   513   515  0.000000000E+00  0.000000000E+00  1.608140464E+02  1.608140464E+02  0.000000000E+00  0.00000E+00  9.000E+00
      21    -1     0     0   515   511  0.000000000E+00  0.000000000E+00 -1.685651532E+00  1.685651532E+00  0.000000000E+00  0.00000E+00  9.000E+00
      -1     1     1     2     0   511  9.528945480E+00  1.461015148E+00  1.553449519E+01  1.828564486E+01  3.300000131E-01  0.00000E+00  9.000E+00
       1     1     1     2   512     0 -1.751614887E+00 -2.696640272E+00  8.862588489E+01  8.868481491E+01  3.300000131E-01  0.00000E+00  9.000E+00
      21     1     1     2   513   512 -7.777330593E+00  1.235625125E+00  5.496801478E+01  5.552923815E+01  6.743495762E-07  0.00000E+00  9.000E+00
</event>
<event>
      5  10001  3.52971E+09  3.27894E+01 -1.00000E+00  1.50403E-01
      21    -1     0     0   514   511  0.000000000E+00  0.000000000E+00  1.852334553E+01  1.852334553E+01  0.000000000E+00  0.00000E+00  9.000E+00
      21    -1     0     0   515   516  0.000000000E+00  0.000000000E+00 -2.607070596E+01  2.607070596E+01  0.000000000E+00  0.00000E+00  9.000E+00
      21     1     1     2   514   516  8.745019190E-01 -7.719870138E+00 -5.613411926E+00  9.584964371E+00  2.795705652E-07  0.00000E+00  9.000E+00
      21     1     1     2   517   511 -7.230742480E+00  1.288886286E+01 -1.404454569E+01  2.038763562E+01  2.384185791E-07  0.00000E+00  9.000E+00
      21     1     1     2   515   517  6.356240561E+00 -5.168992724E+00  1.211059718E+01  1.462145150E+01  2.920019320E-07  0.00000E+00  9.000E+00
</event>
<event>
      5  10001  3.52971E+09  7.33317E+00 -1.00000E+00  2.12733E-01
      -1    -1     0     0     0   511  0.000000000E+00  0.000000000E+00  4.547740253E+01  4.547740253E+01  0.000000000E+00  0.00000E+00  9.000E+00
      21    -1     0     0   513   512  0.000000000E+00  0.000000000E+00 -4.739591000E+01  4.739591000E+01  0.000000000E+00  0.00000E+00  9.000E+00
      21     1     1     2   515   511 -9.592365189E+00  5.491635130E+00 -8.869379689E-01  1.108865119E+01  2.400428607E-07  0.00000E+00  9.000E+00
      21     1     1     2   513   515  1.067070102E+01 -1.274497556E+01 -3.937770037E+01  4.274226888E+01  4.768371582E-07  0.00000E+00  9.000E+00
      -1     1     1     2     0   512 -1.078335829E+00  7.253340434E+00  3.834613087E+01  3.904239245E+01  3.300000131E-01  0.00000E+00  9.000E+00
</event>
<event>
      5  10001  3.52971E+09  4.54112E+00 -1.00000E+00  2.51120E-01
      21    -1     0     0   514   511  0.000000000E+00  0.000000000E+00  7.967720574E+01  7.967720574E+01  0.000000000E+00  0.00000E+00  9.000E+00
      21    -1     0     0   513   514  0.000000000E+00  0.000000000E+00 -8.091013552E+01  8.091013552E+01  0.000000000E+00  0.00000E+00  9.000E+00
      21     1     1     2   516   512  1.145501082E+01  4.138256204E+00 -6.408234043E+01  6.522950860E+01  0.000000000E+00  0.00000E+00  9.000E+00
      21     1     1     2   512   511 -9.518864213E+00 -3.056564279E-02  7.849319606E+01  7.906827137E+01  1.348699152E-06  0.00000E+00  9.000E+00
      21     1     1     2   513   516 -1.936146606E+00 -4.107690561E+00 -1.564378540E+01  1.628956129E+01  1.685873940E-07  0.00000E+00  9.000E+00
</event>
<event>
      5  10001  3.52971E+09  6.86473E+00 -1.00000E+00  2.16753E-01
       2    -1     0     0   513     0  0.000000000E+00  0.000000000E+00  6.462613055E+02  6.462613055E+02  0.000000000E+00  0.00000E+00  9.000E+00
      -5    -1     0     0     0   515  0.000000000E+00  0.000000000E+00 -4.947977699E+01  4.947977699E+01  0.000000000E+00  0.00000E+00  9.000E+00
      -5     1     1     2     0   511 -1.271979856E+01  9.851360831E+00 -3.736758802E+01  4.096607404E+01  4.800000191E+00  0.00000E+00  9.000E+00
      21     1     1     2   513   515  5.863550081E+00 -1.015941135E+01 -6.953082413E+00  1.363598964E+01  3.953724850E-07  0.00000E+00  9.000E+00
       2     1     1     2   511     0  6.856248480E+00  3.080505174E-01  6.411021989E+02  6.411390188E+02  3.300000131E-01  0.00000E+00  9.000E+00
</event>
<event>
      5  10001  3.52971E+09  7.30855E+00 -1.00000E+00  2.12934E-01
      21    -1     0     0   512   516  0.000000000E+00  0.000000000E+00  1.965835656E+02  1.965835656E+02  0.000000000E+00  0.00000E+00  9.000E+00
      21    -1     0     0   511   514  0.000000000E+00  0.000000000E+00 -5.693868455E-01  5.693868455E-01  0.000000000E+00  0.00000E+00  9.000E+00
      21     1     1     2   512   514 -3.857457869E+00  8.786094808E+00  1.210024012E+02  1.213822744E+02  0.000000000E+00  0.00000E+00  9.000E+00
      21     1     1     2   511   513  2.724949369E+00 -1.211931505E+00  1.770064283E+01  1.795012211E+01  2.384185791E-07  0.00000E+00  9.000E+00
      21     1     1     2   513   516  1.132508499E+00 -7.574163304E+00  5.731113466E+01  5.782055587E+01  9.536743164E-07  0.00000E+00  9.000E+00
</event>
<event>
      5  10001  3.52971E+09  4.33463E+00 -1.00000E+00  2.55503E-01
      21    -1     0     0   515   511  0.000000000E+00  0.000000000E+00  9.519058022E+00  9.519058022E+00  0.000000000E+00  0.00000E+00  9.000E+00
      21    -1     0     0   517   516  0.000000000E+00  0.000000000E+00 -1.488637990E+01  1.488637990E+01  0.000000000E+00  0.00000E+00  9.000E+00
      21     1     1     2   515   516 -1.190126791E+00 -9.185648603E+00  3.591448927E+00  9.934336788E+00  1.737759082E-07  0.00000E+00  9.000E+00
      21     1     1     2   512   511 -5.143461152E-04  8.646401576E+00 -4.346908683E+00  9.677596581E+00  5.960464478E-08  0.00000E+00  9.000E+00
      21     1     1     2   517   512  1.190641137E+00  5.392470263E-01 -4.611862124E+00  4.793504556E+00  1.032382731E-07  0.00000E+00  9.000E+00
</event>
<event>
      5  10001  3.52971E+09  6.63424E+00 -1.00000E+00  2.18895E-01
      21    -1     0     0   513   512  0.000000000E+00  0.000000000E+00  9.102694733E+00  9.102694733E+00  0.000000000E+00  0.00000E+00  9.000E+00
      21    -1     0     0   517   514  0.000000000E+00  0.000000000E+00 -1.263720950E+01  1.263720950E+01  0.000000000E+00  0.00000E+00  9.000E+00
      21     1     1     2   513   514 -8.317774824E+00  4.686636959E+00 -8.780118598E-01  9.587536119E+00  1.628936165E-07  0.00000E+00  9.000E+00
      21     1     1     2   517   511  4.543087993E+00 -2.025578229E+00 -4.931157896E+00  7.004208298E+00  1.460009660E-07  0.00000E+00  9.000E+00
      21     1     1     2   511   512  3.774686831E+00 -2.661058730E+00  2.274654984E+00  5.148159820E+00  0.000000000E+00  0.00000E+00  9.000E+00
</event>
<event>
      5  10001  3.52971E+09  4.92480E+00 -1.00000E+00  2.43848E-01
       2    -1     0     0   511     0  0.000000000E+00  0.000000000E+00  5.380400015E+02  5.380400015E+02  0.000000000E+00  0.00000E+00  9.000E+00
      -4    -1     0     0     0   513  0.000000000E+00  0.000000000E+00 -1.173186662E+00  1.173186662E+00  0.000000000E+00  0.00000E+00  9.000E+00
      -4     1     1     2     0   512  3.099998619E-01  1.559493182E+01  6.823499298E+01  7.001115815E+01  1.500000000E+00  0.00000E+00  9.000E+00
       2     1     1     2   512     0  1.012744815E+00 -1.085649958E+01  4.410514747E+02  4.411863568E+02  3.300000131E-01  0.00000E+00  9.000E+00
      21     1     1     2   511   513 -1.322744677E+00 -4.738432231E+00  2.758034717E+01  2.801567317E+01  3.371747881E-07  0.00000E+00  9.000E+00
</event>
<event>
      5  10001  3.52971E+09  7.78883E+00 -1.00000E+00  2.09196E-01
       2    -1     0     0   513     0  0.000000000E+00  0.000000000E+00  5.660212262E+00  5.660212262E+00  0.000000000E+00  0.00000E+00  9.000E+00
      21    -1     0     0   512   513  0.000000000E+00  0.000000000E+00 -1.602358447E+02  1.602358447E+02  0.000000000E+00  0.00000E+00  9.000E+00
      21     1     1     2   512   514  6.214974933E+00 -2.123632009E+00 -1.162029661E+02  1.163884232E+02  1.907348633E-06  0.00000E+00  9.000E+00
       2     1     1     2   511     0 -9.539268664E+00 -4.139281717E+00  8.256568802E-02  1.040418266E+01  3.300000131E-01  0.00000E+00  9.000E+00
      21     1     1     2   514   511  3.324293731E+00  6.262913726E+00 -3.845523208E+01  3.910345115E+01  6.743495762E-07  0.00000E+00  9.000E+00
</event>
<event>
      5  10001  3.52971E+09  1.02975E+01 -1.00000E+00  1.94292E-01
       1    -1     0     0   513     0  0.000000000E+00  0.000000000E+00  1.213352017E+03  1.213352017E+03  0.000000000E+00  0.00000E+00  9.000E+00
      -3    -1     0     0     0   513  0.000000000E+00  0.000000000E+00 -1.736468849E+01  1.736468849E+01  0.000000000E+00  0.00000E+00  9.000E+00
      -3     1     1     2     0   512  2.788382893E+00  1.337145949E+01 -1.456158234E+01  1.997149689E+01  5.000000000E-01  0.00000E+00  9.000E+00
       1     1     1     2   515     0 -2.541864688E+00 -1.728800984E+01  8.842260846E+02  8.843987868E+02  3.300000131E-01  0.00000E+00  9.000E+00
      21     1     1     2   512   515 -2.465182058E-01  3.916550357E+00  3.263228258E+02  3.263464215E+02  3.814697266E-06  0.00000E+00  9.000E+00
</event>
<event>
      5  10001  3.52971E+09  1.60123E+01 -1.00000E+00  1.74749E-01
      21    -1     0     0   511   512  0.000000000E+00  0.000000000E+00  1.153675926E+02  1.153675926E+02  0.000000000E+00  0.00000E+00  9.000E+00
      21    -1     0     0   514   511  0.000000000E+00  0.000000000E+00 -8.860611855E+01  8.860611855E+01  0.000000000E+00  0.00000E+00  9.000E+00
      21     1     1     2   514   516  3.102034527E+01  2.822845657E+01 -7.719551434E+01  8.785359990E+01  9.536743164E-07  0.00000E+00  9.000E+00
      21     1     1     2   516   513 -1.392538406E+01 -2.723655852E+01  8.613152269E+01  9.140232843E+01  2.132480600E-06  0.00000E+00  9.000E+00
      21     1     1     2   513   512 -1.709496121E+01 -9.918980492E-01  1.782546573E+01  2.471778285E+01  3.371747881E-07  0.00000E+00  9.000E+00
</event>
<event>
      5  10001  3.52971E+09  2.88926E+00 -1.00000E+00  3.01903E-01
       1    -1     0     0   515     0  0.000000000E+00  0.000000000E+00  6.262844652E+02  6.262844652E+02  0.000000000E+00  0.00000E+00  9.000E+00
      21    -1     0     0   514   511  0.000000000E+00  0.000000000E+00 -1.470634494E+01  1.470634494E+01  0.000000000E+00  0.00000E+00  9.000E+00
      21     1     1     2   515   511  9.164113330E+00 -3.403658293E+00  4.259913269E+01  4.370642938E+01  1.784161275E-06  0.00000E+00  9.000E+00
       1     1     1     2   513     0 -1.106377656E+01  1.226720853E+00  5.829304851E+02  5.830368525E+02  3.300000131E-01  0.00000E+00  9.000E+00
      21     1     1     2   514   513  1.899663227E+00  2.176937439E+00 -1.395149756E+01  1.424752824E+01  1.390207266E-06  0.00000E+00  9.000E+00
</event>
<event>
      5  10001  3.52971E+09  1.29856E+00 -1.00000E+00  5.00283E-01
       2    -1     0     0   511     0  0.000000000E+00  0.000000000E+00  6.256891998E+02  6.256891998E+02  0.000000000E+00  0.00000E+00  9.000E+00
      -1    -1     0     0     0   513  0.000000000E+00  0.000000000E+00 -8.755334544E-01  8.755334544E-01  0.000000000E+00  0.00000E+00  9.000E+00
      21     1     1     2   511   513  1.165002133E+00 -1.140739183E+01  2.859130576E+02  2.861429054E+02  1.009274029E-05  0.00000E+00  9.000E+00
       2     1     1     2   512     0  1.068097808E-01  1.114609004E+01  3.388987478E+02  3.390821683E+02  3.300000131E-01  0.00000E+00  9.000E+00
      -1     1     1     2     0   512 -1.271811914E+00  2.613017885E-01  1.860987970E-03  1.339659524E+00  3.300000131E-01  0.00000E+00  9.000E+00
</event>
<event>
      5  10001  3.52971E+09  2.63903E+00 -1.00000E+00  3.14841E-01
      21    -1     0     0   514   512  0.000000000E+00  0.000000000E+00  1.142799114E+01  1.142799114E+01  0.000000000E+00  0.00000E+00  9.000E+00
      21    -1     0     0   516   511  0.000000000E+00  0.000000000E+00 -4.294509542E+02  4.294509542E+02  0.000000000E+00  0.00000E+00  9.000E+00
      21     1     1     2   514   515 -9.109864689E-01 -9.992223227E+00  7.448985559E+00  1.249647179E+01  2.920019320E-07  0.00000E+00  9.000E+00
      21     1     1     2   516   512 -3.337264029E-01  1.231927891E+01 -2.471803472E+01  2.761987050E+01  3.371747881E-07  0.00000E+00  9.000E+00
      21     1     1     2   515   511  1.244712872E+00 -2.327055686E+00 -4.007539139E+02  4.007626031E+02  5.394796609E-06  0.00000E+00  9.000E+00
</event>
<event>
      5  10001  3.52971E+09  1.69142E+01 -1.00000E+00  1.72603E-01
      21    -1     0     0   513   511  0.000000000E+00  0.000000000E+00  3.167649841E+00  3.167649841E+00  0.000000000E+00  0.00000E+00  9.000E+00
      21    -1     0     0   515   517  0.000000000E+00  0.000000000E+00 -4.848919143E+01  4.848919143E+01  0.000000000E+00  0.00000E+00  9.000E+00
      21     1     1     2   513   517 -1.446852461E+00  5.324026920E+00 -4.459997252E+00  7.094379478E+00  5.960464478E-08  0.00000E+00  9.000E+00
      21     1     1     2   515   512 -4.419671719E+00  1.619380402E-01 -3.309660614E+01  3.339079304E+01  6.743495762E-07  0.00000E+00  9.000E+00
      21     1     1     2   512   511  5.866524181E+00 -5.485964960E+00 -7.764938205E+00  1.117166876E+01  8.429369702E-08  0.00000E+00  9.000E+00
</event>
<event>
      5  10001  3.52971E+09  3.27691E+00 -1.00000E+00  2.85688E-01
      -2    -1     0     0     0   511  0.000000000E+00  0.000000000E+00  1.468246950E+00  1.468246950E+00  0.000000000E+00  0.00000E+00  9.000E+00
      21    -1     0     0   512   514  0.000000000E+00  0.000000000E+00 -3.844433447E+02  3.844433447E+02  0.000000000E+00  0.00000E+00  9.000E+00
      -2     1     1     2     0   513  7.558790825E+00  9.649079563E+00 -2.648829995E+01  2.918867913E+01  3.300000131E-01  0.00000E+00  9.000E+00
      21     1     1     2   512   511 -4.848746895E+00 -7.807136996E+00 -3.003420025E+02  3.004825789E+02  3.814697266E-06  0.00000E+00  9.000E+00
      21     1     1     2   513   514 -2.710043930E+00 -1.841942568E+00 -5.614479531E+01  5.624033367E+01  9.536743164E-07  0.00000E+00  9.000E+00
</event>
<event>
      5  10001  3.52971E+09  8.27557E+00 -1.00000E+00  2.05761E-01
      21    -1     0     0   515   512  0.000000000E+00  0.000000000E+00  2.185154867E+01  2.185154867E+01  0.000000000E+00  0.00000E+00  9.000E+00
      21    -1     0     0   516   515  0.000000000E+00  0.000000000E+00 -4.748399638E+01  4.748399638E+01  0.000000000E+00  0.00000E+00  9.000E+00
      21     1     1     2   516   514  4.200871536E+00 -8.512091882E+00 -4.321866230E+01  4.424879435E+01  1.168007728E-06  0.00000E+00  9.000E+00
      21     1     1     2   514   511  1.949709736E+00  9.693977319E+00  1.568456929E+01  1.854131274E+01  6.307962682E-07  0.00000E+00  9.000E+00
      21     1     1     2   511   512 -6.150581272E+00 -1.181885437E+00  1.901645296E+00  6.545437953E+00  2.138718977E-07  0.00000E+00  9.000E+00
</event>
<event>
      5  10001  3.52971E+09  9.94749E+00 -1.00000E+00  1.96017E-01
      -5    -1     0     0     0   512  0.000000000E+00  0.000000000E+00  1.262467357E+01  1.262467357E+01  0.000000000E+00  0.00000E+00  9.000E+00
      21    -1     0     0   512   513  0.000000000E+00  0.000000000E+00 -6.146777420E+02  6.146777420E+02  0.000000000E+00  0.00000E+00  9.000E+00
      -5     1     1     2     0   511  1.049172397E+01  1.136044652E+01  7.203682270E+00  1.772199359E+01  4.800000191E+00  0.00000E+00  9.000E+00
      21     1     1     2   511   514 -1.062279096E+01 -2.570720118E+00 -3.733601464E+02  3.735200814E+02  0.000000000E+00  0.00000E+00  9.000E+00
      21     1     1     2   514   513  1.310669919E-01 -8.789726399E+00 -2.358966043E+02  2.360603406E+02  2.697398305E-06  0.00000E+00  9.000E+00
</event>
<event>
      5  10001  3.52971E+09  2.62546E+01 -1.00000E+00  1.57171E-01
      21    -1     0     0   515   511  0.000000000E+00  0.000000000E+00  2.573031505E+02  2.573031505E+02  0.000000000E+00  0.00000E+00  9.000E+00
      21    -1     0     0   512   515  0.000000000E+00  0.000000000E+00 -4.710527495E+00  4.710527495E+00  0.000000000E+00  0.00000E+00  9.000E+00
      21     1     1     2   512   513  1.737248920E+01  1.417229711E+01  4.474963033E+01  5.005184113E+01  6.743495762E-07  0.00000E+00  9.000E+00
      21     1     1     2   516   511 -9.135552597E+00 -8.142086142E+00  1.957673263E+02  1.961494276E+02  0.000000000E+00  0.00000E+00  9.000E+00
      21     1     1     2   513   516 -8.236936599E+00 -6.030210966E+00  1.207566631E+01  1.581240923E+01  3.371747881E-07  0.00000E+00  9.000E+00
</event>
<event>
      5  10001  3.52971E+09  1.74195E+01 -1.00000E+00  1.71473E-01
      -1    -1     0     0     0   514  0.000000000E+00  0.000000000E+00  5.325124374E+02  5.325124374E+02  0.000000000E+00  0.00000E+00  9.000E+00
      21    -1     0     0   514   515  0.000000000E+00  0.000000000E+00 -3.182021711E+01  3.182021711E+01  0.000000000E+00  0.00000E+00  9.000E+00
      -1     1     1     2     0   511 -1.313923029E+01  1.776279282E+00  5.296419826E+02  5.298080153E+02  3.300000131E-01  0.00000E+00  9.000E+00
      21     1     1     2   511   512  9.348287052E+00  3.927594045E+00 -9.463671134E+00  1.387002297E+01  6.307962682E-07  0.00000E+00  9.000E+00
      21     1     1     2   512   515  3.790943238E+00 -5.703873327E+00 -1.948609114E+01  2.065461618E+01  2.023048729E-06  0.00000E+00  9.000E+00
</event>
<event>
      5  10001  3.52971E+09  5.47739E+00 -1.00000E+00  2.31793E-01
       2    -1     0     0   511     0  0.000000000E+00  0.000000000E+00  4.406999264E+01  4.406999264E+01  0.000000000E+00  0.00000E+00  9.000E+00
       2    -1     0     0   512     0  0.000000000E+00  0.000000000E+00 -3.677035448E+01  3.677035448E+01  0.000000000E+00  0.00000E+00  9.000E+00
       2     1     1     2   512     0  5.414514990E+00  5.903965060E+00  3.572431191E+01  3.661296406E+01  3.300000131E-01  0.00000E+00  9.000E+00
       2     1     1     2   513     0 -6.233042175E+00 -1.131964013E+01 -3.402269042E+01  3.639556884E+01  3.300000131E-01  0.00000E+00  9.000E+00
      21     1     1     2   511   513  8.185271855E-01  5.415675074E+00  5.598016676E+00  7.831814219E+00  5.960464478E-08  0.00000E+00  9.000E+00
</event>
<event>
      5  10001  3.52971E+09  2.64517E+01 -1.00000E+00  1.56933E-01
      -4    -1     0     0     0   512  0.000000000E+00  0.000000000E+00  1.428872996E+01  1.428872996E+01  0.000000000E+00  0.00000E+00  9.000E+00
      21    -1     0     0   515   514  0.000000000E+00  0.000000000E+00 -3.861899101E+02  3.861899101E+02  0.000000000E+00  0.00000E+00  9.000E+00
      21     1     1     2   513   512  1.092180743E+01  1.421307989E+01 -3.335176812E+01  3.786341181E+01  1.581489940E-06  0.00000E+00  9.000E+00
      21     1     1     2   515   513  1.252381003E+01 -2.645341357E+01 -3.345455185E+02  3.358233655E+02  6.607249480E-06  0.00000E+00  9.000E+00
      -4     1     1     2     0   514 -2.344561745E+01  1.224033367E+01 -4.003893583E+00  2.679186276E+01  1.500000000E+00  0.00000E+00  9.000E+00
</event>
<event>
      5  10001  3.52971E+09  7.03152E+00 -1.00000E+00  2.15273E-01
      21    -1     0     0   511   514  0.000000000E+00  0.000000000E+00  2.243283404E+01  2.243283404E+01  0.000000000E+00  0.00000E+00  9.000E+00
      -2    -1     0     0     0   512  0.000000000E+00  0.000000000E+00 -1.028157815E+02  1.028157815E+02  0.000000000E+00  0.00000E+00  9.000E+00
      -2     1     1     2     0   513 -8.619639631E+00 -4.736252814E+00 -8.539113065E+01  8.595629338E+01  3.300000131E-01  0.00000E+00  9.000E+00
      21     1     1     2   513   514  1.452056631E+01  9.126502051E-01  1.882335025E+01  2.379071859E+01  0.000000000E+00  0.00000E+00  9.000E+00
      21     1     1     2   511   512 -5.900926678E+00  3.823602609E+00 -1.381516709E+01  1.550160361E+01  0.000000000E+00  0.00000E+00  9.000E+00
</event>
<event>
      5  10001  3.52971E+09  3.94480E+00 -1.00000E+00  2.64892E-01
      21    -1     0     0   515   514  0.000000000E+00  0.000000000E+00  8.133640359E+01  8.133640359E+01  0.000000000E+00  0.00000E+00  9.000E+00
      21    -1     0     0   516   515  0.000000000E+00  0.000000000E+00 -6.760738266E+00  6.760738266E+00  0.000000000E+00  0.00000E+00  9.000E+00
      21     1     1     2   512   514 -1.074618400E+01 -1.228674072E+00  7.556932975E+01  7.633946365E+01  0.000000000E+00  0.00000E+00  9.000E+00
      21     1     1     2   513   512  4.806659933E+00 -9.411639456E-01 -2.115863165E+00  5.335414344E+00  3.039252468E-07  0.00000E+00  9.000E+00
      21     1     1     2   516   513  5.939524065E+00  2.169838017E+00  1.122198734E+00  6.422263864E+00  1.737759082E-07  0.00000E+00  9.000E+00
</event>
<event>
      5  10001  3.52971E+09  8.87574E+00 -1.00000E+00  2.01937E-01
       4    -1     0     0   512     0  0.000000000E+00  0.000000000E+00  5.547455977E+01  5.547455977E+01  0.000000000E+00  0.00000E+00  9.000E+00
      21    -1     0     0   513   512  0.000000000E+00  0.000000000E+00 -2.574850079E+00  2.574850079E+00  0.000000000E+00  0.00000E+00  9.000E+00
      21     1     1     2   513   511  5.923395066E+00 -8.412547821E+00  1.549117759E+01  1.859661671E+01  2.920019320E-07  0.00000E+00  9.000E+00
      21     1     1     2   511   514 -8.388058343E-01  4.630356738E+00  7.581744014E+00  8.923376101E+00  1.685873940E-07  0.00000E+00  9.000E+00
       4     1     1     2   514     0 -5.084589232E+00  3.782191084E+00  2.982678809E+01  3.052941704E+01  1.500000000E+00  0.00000E+00  9.000E+00
</event>
<event>
      5  10001  3.52971E+09  1.30677E+01 -1.00000E+00  1.83214E-01
      21    -1     0     0   515   513  0.000000000E+00  0.000000000E+00  6.134426660E+00  6.134426660E+00  0.000000000E+00  0.00000E+00  9.000E+00
      21    -1     0     0   516   515  0.000000000E+00  0.000000000E+00 -4.030291005E+01  4.030291005E+01  0.000000000E+00  0.00000E+00  9.000E+00
      21     1     1     2   517   513 -4.203423713E+00 -1.146860876E+01 -7.828334809E+00  1.450794898E+01  3.039252468E-07  0.00000E+00  9.000E+00
      21     1     1     2   516   511  2.785159926E+00  3.456548927E+00 -2.249708981E+01  2.293085032E+01  5.840038640E-07  0.00000E+00  9.000E+00
      21     1     1     2   511   517  1.418263786E+00  8.012059828E+00 -3.843058768E+00  8.998537412E+00  2.384185791E-07  0.00000E+00  9.000E+00
</event>
<event>
      5  10001  3.52971E+09  3.46744E+00 -1.00000E+00  2.78994E-01
      21    -1     0     0   512   516  0.000000000E+00  0.000000000E+00  1.408978283E+02  1.408978283E+02  0.000000000E+00  0.00000E+00  9.000E+00
      21    -1     0     0   513   514  0.000000000E+00  0.000000000E+00 -4.097588879E+00  4.097588879E+00  0.000000000E+00  0.00000E+00  9.000E+00
      21     1     1     2   512   514 -6.922884385E+00 -8.664834070E+00  4.276660378E+00  1.188677844E+01  4.214684851E-07  0.00000E+00  9.000E+00
      21     1     1     2   515   516  5.076149003E+00  8.760221451E+00  9.465715313E+01  9.519708718E+01  0.000000000E+00  0.00000E+00  9.000E+00
      21     1     1     2   513   515  1.846735382E+00 -9.538738125E-02  3.786642587E+01  3.791155152E+01  8.259061849E-07  0.00000E+00  9.000E+00
</event>
<event>
      5  10001  3.52971E+09  5.09962E+00 -1.00000E+00  2.37022E-01
      21    -1     0     0   511   514  0.000000000E+00  0.000000000E+00  7.418721334E+00  7.418721334E+00  0.000000000E+00  0.00000E+00  9.000E+00
       2    -1     0     0   513     0  0.000000000E+00  0.000000000E+00 -9.651142998E+02  9.651142998E+02  0.000000000E+00  0.00000E+00  9.000E+00
      21     1     1     2   511   517  1.335021073E+01 -2.951338747E+00 -7.624340370E+00  1.565468278E+01  2.230201594E-07  0.00000E+00  9.000E+00
      21     1     1     2   513   514 -8.264646375E+00  2.573207156E+00 -2.117997590E+00  8.911323614E+00  2.811545471E-07  0.00000E+00  9.000E+00
       2     1     1     2   517     0 -5.085564352E+00  3.781315913E-01 -9.479532405E+02  9.479670147E+02  3.300000131E-01  0.00000E+00  9.000E+00
</event>
<event>
      5  10001  3.52971E+09  1.11030E+01 -1.00000E+00  1.90642E-01
      21    -1     0     0   513   514  0.000000000E+00  0.000000000E+00  6.030372562E+02  6.030372562E+02  0.000000000E+00  0.00000E+00  9.000E+00
       1    -1     0     0   511     0  0.000000000E+00  0.000000000E+00 -2.068514181E+02  2.068514181E+02  0.000000000E+00  0.00000E+00  9.000E+00
      21     1     1     2   513   512  1.864346652E+01  2.366024458E+00  5.968905616E+02  5.971863356E+02  7.629394531E-06  0.00000E+00  9.000E+00
       1     1     1     2   512     0 -7.766913591E+00 -4.597072233E+00 -2.013765910E+02  2.015790126E+02  3.300000131E-01  0.00000E+00  9.000E+00
      21     1     1     2   511   514 -1.087655293E+01  2.231047774E+00  6.718674552E-01  1.112332610E+01  5.372690075E-08  0.00000E+00  9.000E+00
</event>
<event>
      5  10001  3.52971E+09  5.18264E+00 -1.00000E+00  2.35819E-01
      21    -1     0     0   515   512  0.000000000E+00  0.000000000E+00  4.854358911E+01  4.854358911E+01  0.000000000E+00  0.00000E+00  9.000E+00
      21    -1     0     0   511   514  0.000000000E+00  0.000000000E+00 -1.819101598E+01  1.819101598E+01  0.000000000E+00  0.00000E+00  9.000E+00
      21     1     1     2   515   514  1.300481256E+00  9.974470031E+00 -1.597211077E+01  1.887563579E+01  2.384185791E-07  0.00000E+00  9.000E+00
      21     1     1     2   513   512 -1.606279171E+00 -3.294857157E+00  2.992271017E+01  3.014638951E+01  4.768371582E-07  0.00000E+00  9.000E+00
      21     1     1     2   511   513  3.057979141E-01 -6.679612874E+00  1.640197373E+01  1.771257979E+01  0.000000000E+00  0.00000E+00  9.000E+00
</event>
<event>
      5  10001  3.52971E+09  1.57554E+01 -1.00000E+00  1.75393E-01
       2    -1     0     0   514     0  0.000000000E+00  0.000000000E+00  1.100538556E+03  1.100538556E+03  0.000000000E+00  0.00000E+00  9.000E+00
      21    -1     0     0   513   514  0.000000000E+00  0.000000000E+00 -1.646309282E+00  1.646309282E+00  0.000000000E+00  0.00000E+00  9.000E+00
      21     1     1     2   513   512  5.644197426E+00  6.196777167E+00  3.938985253E+01  4.027179527E+01  9.536743164E-07  0.00000E+00  9.000E+00
       2     1     1     2   516     0 -9.309873561E+00 -1.008401757E+01  1.054513993E+03  1.054603353E+03  3.300000131E-01  0.00000E+00  9.000E+00
      21     1     1     2   512   516  3.665676135E+00  3.887240403E+00  4.988400854E+00  7.309716996E+00  1.180111758E-06  0.00000E+00  9.000E+00
</event>
<event>
      5  10001  3.52971E+09  1.65932E+01 -1.00000E+00  1.73347E-01
      21    -1     0     0   511   513  0.000000000E+00  0.000000000E+00  1.369639313E+02  1.369639313E+02  0.000000000E+00  0.00000E+00  9.000E+00
      21    -1     0     0   512   515  0.000000000E+00  0.000000000E+00 -7.398361497E-01  7.398361497E-01  0.000000000E+00  0.00000E+00  9.000E+00
      21     1     1     2   511   515 -1.210680252E+00 -3.463510894E+00  2.424509415E+01  2.452113874E+01  5.840038640E-07  0.00000E+00  9.000E+00
      21     1     1     2   512   514 -2.076304359E+00  1.176230976E+00  1.057534615E+02  1.057803818E+02  1.348699152E-06  0.00000E+00  9.000E+00
      21     1     1     2   514   513  3.286984612E+00  2.287279918E+00  6.225539596E+00  7.402246992E+00  1.685873940E-07  0.00000E+00  9.000E+00
</event>
<event>
      5  10001  3.52971E+09  2.43043E+00 -1.00000E+00  3.27676E-01
      21    -1     0     0   511   512  0.000000000E+00  0.000000000E+00  3.417524132E+01  3.417524132E+01  0.000000000E+00  0.00000E+00  9.000E+00
      21    -1     0     0   513   516  0.000000000E+00  0.000000000E+00 -2.191097692E+01  2.191097692E+01  0.000000000E+00  0.00000E+00  9.000E+00
      21     1     1     2   513   517 -1.631054746E+00 -1.143045968E+01 -1.883968230E+01  2.209636571E+01  4.768371582E-07  0.00000E+00  9.000E+00
      21     1     1     2   517   512 -2.429572073E-01  9.882857191E+00  1.689670929E+01  1.957622740E+01  4.129530925E-07  0.00000E+00  9.000E+00
      21     1     1     2   511   516  1.874011953E+00  1.547602489E+00  1.420723741E+01  1.441362512E+01  0.000000000E+00  0.00000E+00  9.000E+00
</event>
<event>
      5  10001  3.52971E+09  2.28952E+01 -1.00000E+00  1.61663E-01
      21    -1     0     0   514   512  0.000000000E+00  0.000000000E+00  1.680023250E+02  1.680023250E+02  0.000000000E+00  0.00000E+00  9.000E+00
       2    -1     0     0   511     0  0.000000000E+00  0.000000000E+00 -6.204644163E+02  6.204644163E+02  0.000000000E+00  0.00000E+00  9.000E+00
      21     1     1     2   511   513  2.294446960E+00 -1.237752588E+01  1.049860027E+02  1.057380178E+02  3.568322551E-06  0.00000E+00  9.000E+00
       2     1     1     2   514     0  1.806169606E+01  2.659572068E+01 -6.171928551E+02  6.180296810E+02  3.300000131E-01  0.00000E+00  9.000E+00
      21     1     1     2   513   512 -2.035614302E+01 -1.421819480E+01  5.974476112E+01  6.469904252E+01  9.536743164E-07  0.00000E+00  9.000E+00
</event>
<event>
      5  10001  3.52971E+09  1.19481E+01 -1.00000E+00  1.87222E-01
       3    -1     0     0   514     0  0.000000000E+00  0.000000000E+00  1.001833542E+02  1.001833542E+02  0.000000000E+00  0.00000E+00  9.000E+00
      21    -1     0     0   513   514  0.000000000E+00  0.000000000E+00 -4.538320928E+00  4.538320928E+00  0.000000000E+00  0.00000E+00  9.000E+00
      21     1     1     2   513   511 -3.064989912E+00  5.252373208E+00  6.525600583E+00  8.919924352E+00  1.192092896E-07  0.00000E+00  9.000E+00
       3     1     1     2   515     0  1.057509481E+00 -9.717842150E+00  9.024813963E+01  9.077737322E+01  5.000000000E-01  0.00000E+00  9.000E+00
      21     1     1     2   511   515  2.007480431E+00  4.465468943E+00 -1.128706932E+00  5.024377563E+00  2.075491589E-07  0.00000E+00  9.000E+00
</event>
<event>
      5  10001  3.52971E+09  1.99804E+01 -1.00000E+00  1.66401E-01
      -1    -1     0     0     0   515  0.000000000E+00  0.000000000E+00  1.745400653E+02  1.745400653E+02  0.000000000E+00  0.00000E+00  9.000E+00
       2    -1     0     0   511     0  0.000000000E+00  0.000000000E+00 -6.485600500E+02  6.485600500E+02  0.000000000E+00  0.00000E+00  9.000E+00
      21     1     1     2   511   515 -2.214452538E+01 -2.972144508E+01 -9.094345840E+01  9.820619597E+01  2.336015456E-06  0.00000E+00  9.000E+00
       2     1     1     2   512     0  2.332689929E+01  9.776063290E+00 -5.531110702E+02  5.536891551E+02  3.300000131E-01  0.00000E+00  9.000E+00
      -1     1     1     2     0   512 -1.182373909E+00  1.994538178E+01  1.700345439E+02  1.712047642E+02  3.300000131E-01  0.00000E+00  9.000E+00
</event>
<event>
      5  10001  3.52971E+09  1.39053E+01 -1.00000E+00  1.80537E-01
      21    -1     0     0   513   512  0.000000000E+00  0.000000000E+00  4.346924884E+02  4.346924884E+02  0.000000000E+00  0.00000E+00  9.000E+00
      21    -1     0     0   514   515  0.000000000E+00  0.000000000E+00 -2.386464367E+01  2.386464367E+01  0.000000000E+00  0.00000E+00  9.000E+00
      21     1     1     2   514   511 -1.981026899E+01 -1.287812375E+00  3.009418411E+02  3.015959167E+02  3.814697266E-06  0.00000E+00  9.000E+00
      21     1     1     2   511   512  6.719792291E+00 -3.402155079E+00  1.312524827E+02  1.314684163E+02  1.907348633E-06  0.00000E+00  9.000E+00
      21     1     1     2   513   515  1.309047670E+01  4.689967454E+00 -2.136647911E+01  2.549279907E+01  9.233911863E-07  0.00000E+00  9.000E+00
</event>
<event>
      5  10001  3.52971E+09  7.33084E+00 -1.00000E+00  2.12752E-01
      21    -1     0     0   516   511  0.000000000E+00  0.000000000E+00  2.454220021E+00  2.454220021E+00  0.000000000E+00  0.00000E+00  9.000E+00
      21    -1     0     0   514   517  0.000000000E+00  0.000000000E+00 -1.472672823E+02  1.472672823E+02  0.000000000E+00  0.00000E+00  9.000E+00
      21     1     1     2   516   517  1.049905165E+01 -7.853856574E+00 -1.207984264E+02  1.215079132E+02  0.000000000E+00  0.00000E+00  9.000E+00
      21     1     1     2   512   511 -5.492371188E+00  6.283354295E+00 -1.978787630E+01  2.147572423E+01  4.129530925E-07  0.00000E+00  9.000E+00
      21     1     1     2   514   512 -5.006680466E+00  1.570502279E+00 -4.226759544E+00  6.737864865E+00  3.475518164E-07  0.00000E+00  9.000E+00
</event>
<event>
      5  10001  3.52971E+09  3.25113E+00 -1.00000E+00  2.86651E-01
      21    -1     0     0   513   512  0.000000000E+00  0.000000000E+00  1.577930983E+01  1.577930983E+01  0.000000000E+00  0.00000E+00  9.000E+00
      21    -1     0     0   514   513  0.000000000E+00  0.000000000E+00 -9.262064604E+01  9.262064604E+01  0.000000000E+00  0.00000E+00  9.000E+00
      21     1     1     2   514   515 -2.904554932E+00  1.266371096E+01 -8.905701596E+01  8.999976725E+01  9.536743164E-07  0.00000E+00  9.000E+00
      21     1     1     2   515   511  1.136872057E+00 -1.028959504E+01  7.318093245E+00  1.267764698E+01  0.000000000E+00  0.00000E+00  9.000E+00
      21     1     1     2   511   512  1.767682875E+00 -2.374115927E+00  4.897586508E+00  5.722541636E+00  1.685873940E-07  0.00000E+00  9.000E+00
</event>
<event>
      5  10001  3.52971E+09  4.98200E+00 -1.00000E+00  2.42849E-01
      21    -1     0     0   516   515  0.000000000E+00  0.000000000E+00  2.453929923E+00  2.453929923E+00  0.000000000E+00  0.00000E+00  9.000E+00
      21    -1     0     0   514   512  0.000000000E+00  0.000000000E+00 -8.268137029E+01  8.268137029E+01  0.000000000E+00  0.00000E+00  9.000E+00
      21     1     1     2   516   512  1.000234371E+01 -6.337198249E+00 -6.069115950E+01  6.183545749E+01  0.000000000E+00  0.00000E+00  9.000E+00
      -4     1     1     2     0   515 -1.893129768E+00  2.371195868E+00 -3.738472854E+00  5.043083327E+00  1.500000000E+00  0.00000E+00  9.000E+00
       4     1     1     2   514     0 -8.109213946E+00  3.966002381E+00 -1.579780802E+01  1.825675940E+01  1.500000000E+00  0.00000E+00  9.000E+00
</event>
<event>
      5  10001  3.52971E+09  6.53652E+00 -1.00000E+00  2.19840E-01
      21    -1     0     0   511   512  0.000000000E+00  0.000000000E+00  1.663259126E+02  1.663259126E+02  0.000000000E+00  0.00000E+00  9.000E+00
      21    -1     0     0   513   511  0.000000000E+00  0.000000000E+00 -2.667459928E+02  2.667459928E+02  0.000000000E+00  0.00000E+00  9.000E+00
      21     1     1     2   513   514 -6.819192285E+00  7.323998395E+00 -2.664334574E+02  2.666213224E+02  3.814697266E-06  0.00000E+00  9.000E+00
      21     1     1     2   514   515  6.835110523E+00 -4.209203126E+00  8.523031490E+01  8.560749210E+01  1.651812370E-06  0.00000E+00  9.000E+00
      21     1     1     2   515   512 -1.591823783E-02 -3.114795269E+00  8.078306231E+01  8.084309098E+01  0.000000000E+00  0.00000E+00  9.000E+00
</event>
<event>
      5  10001  3.52971E+09  9.66477E+00 -1.00000E+00  1.97480E-01
      21    -1     0     0   516   514  0.000000000E+00  0.000000000E+00  1.089913725E+02  1.089913725E+02  0.000000000E+00  0.00000E+00  9.000E+00
      21    -1     0     0   513   512  0.000000000E+00  0.000000000E+00 -1.915265214E+00  1.915265214E+00  0.000000000E+00  0.00000E+00  9.000E+00
      21     1     1     2   516   512 -8.325180980E+00  4.288410901E+00  7.633320682E+01  7.690551066E+01  0.000000000E+00  0.00000E+00  9.000E+00
      21     1     1     2   513   511  4.893814480E+00 -7.606226793E+00  2.467836100E+01  2.628356155E+01  3.371747881E-07  0.00000E+00  9.000E+00
      21     1     1     2   511   514  3.431366500E+00  3.317815892E+00  6.064539464E+00  7.717565501E+00  2.665600750E-07  0.00000E+00  9.000E+00
</event>
<event>
      5  10001  3.52971E+09  2.85999E+00 -1.00000E+00  3.03301E-01
      21    -1     0     0   512   513  0.000000000E+00  0.000000000E+00  2.238365778E+01  2.238365778E+01  0.000000000E+00  0.00000E+00  9.000E+00
       2    -1     0     0   514     0  0.000000000E+00  0.000000000E+00 -9.638437195E+02  9.638437195E+02  0.000000000E+00  0.00000E+00  9.000E+00
      21     1     1     2   514   513 -7.158871764E+00 -1.027481551E+01 -6.525796066E+02  6.526997504E+02  7.629394531E-06  0.00000E+00  9.000E+00
       2     1     1     2   511     0  5.475143528E+00  1.258664027E+01 -3.109603333E+02  3.112632945E+02  3.300000131E-01  0.00000E+00  9.000E+00
      21     1     1     2   512   511  1.683728236E+00 -2.311824755E+00  2.207987818E+01  2.226433235E+01  2.622604370E-06  0.00000E+00  9.000E+00
</event>
<event>
      5  10001  3.52971E+09  3.78900E+00 -1.00000E+00  2.69133E-01
       2    -1     0     0   515     0  0.000000000E+00  0.000000000E+00  9.249983599E+01  9.249983599E+01  0.000000000E+00  0.00000E+00  9.000E+00
      21    -1     0     0   512   511  0.000000000E+00  0.000000000E+00 -4.135029440E+01  4.135029440E+01  0.000000000E+00  0.00000E+00  9.000E+00
      21     1     1     2   515   511 -1.077019854E+01 -2.662995238E+00 -4.016972742E+01  4.167368140E+01  6.743495762E-07  0.00000E+00  9.000E+00
       2     1     1     2   513     0  4.995057222E+00  2.239572333E+00  6.483503985E+01  6.506656264E+01  3.300000131E-01  0.00000E+00  9.000E+00
      21     1     1     2   512   513  5.775141315E+00  4.234229046E-01  2.648422916E+01  2.710988636E+01  3.371747881E-07  0.00000E+00  9.000E+00
</event>
<event>
      5  10001  3.52971E+09  1.35353E+01 -1.00000E+00  1.81689E-01
       3    -1     0     0   511     0  0.000000000E+00  0.000000000E+00  3.933823612E+01  3.933823612E+01  0.000000000E+00  0.00000E+00  9.000E+00
      21    -1     0     0   513   511  0.000000000E+00  0.000000000E+00 -3.379946211E+01  3.379946211E+01  0.000000000E+00  0.00000E+00  9.000E+00
      21     1     1     2   513   514 -2.289811531E+01  1.145317547E+01 -2.286013339E+01  3.432323720E+01  6.743495762E-07  0.00000E+00  9.000E+00
      21     1     1     2   514   515  5.750333318E+00 -3.145628465E+00  3.417833671E+00  7.392083517E+00  1.264405455E-07  0.00000E+00  9.000E+00
       3     1     1     2   515     0  1.714778199E+01 -8.307547001E+00  2.498107372E+01  3.142237752E+01  5.000000000E-01  0.00000E+00  9.000E+00
</event>
<event>
      5  10001  3.52971E+09  1.01488E+01 -1.00000E+00  1.95014E-01
      21    -1     0     0   512   514  0.000000000E+00  0.000000000E+00  1.207155505E+01  1.207155505E+01  0.000000000E+00  0.00000E+00  9.000E+00
      21    -1     0     0   513   516  0.000000000E+00  0.000000000E+00 -7.818894866E+01  7.818894866E+01  0.000000000E+00  0.00000E+00  9.000E+00
      21     1     1     2   512   516 -9.897798033E+00  1.382412648E+00 -7.493222981E+01  7.559574416E+01  0.000000000E+00  0.00000E+00  9.000E+00
      21     1     1     2   511   514  4.999930561E+00  4.045184260E-01  7.653412256E-01  5.074316502E+00  1.369772577E-07  0.00000E+00  9.000E+00
      21     1     1     2   513   511  4.897867472E+00 -1.786931074E+00  8.049494974E+00  9.590443043E+00  1.192092896E-07  0.00000E+00  9.000E+00
</event>
<event>
      5  10001  3.52971E+09  2.48191E+00 -1.00000E+00  3.24304E-01
      21    -1     0     0   515   511  0.000000000E+00  0.000000000E+00  5.804411531E-01  5.804411531E-01  0.000000000E+00  0.00000E+00  9.000E+00
      21    -1     0     0   511   512  0.000000000E+00  0.000000000E+00 -1.883707546E+02  1.883707546E+02  0.000000000E+00  0.00000E+00  9.000E+00
      -3     1     1     2     0   514  1.657131409E+00  7.391444314E+00 -9.959989391E+01  9.988878015E+01  5.000000000E-01  0.00000E+00  9.000E+00
       3     1     1     2   515     0 -2.516948138E-01 -9.704979768E+00 -6.799910773E+01  6.869045520E+01  5.000000000E-01  0.00000E+00  9.000E+00
      21     1     1     2   514   512 -1.405436596E+00  2.313535455E+00 -2.019131177E+01  2.037196037E+01  4.768371582E-07  0.00000E+00  9.000E+00
</event>
<event>
      5  10001  3.52971E+09  8.49333E+00 -1.00000E+00  2.04325E-01
      21    -1     0     0   513   514  0.000000000E+00  0.000000000E+00  4.893087838E-01  4.893087838E-01  0.000000000E+00  0.00000E+00  9.000E+00
      21    -1     0     0   511   513  0.000000000E+00  0.000000000E+00 -9.099319651E+02  9.099319651E+02  0.000000000E+00  0.00000E+00  9.000E+00
      21     1     1     2   511   512 -9.708801437E+00 -7.068367655E+00 -7.072229976E+02  7.073249543E+02  7.629394531E-06  0.00000E+00  9.000E+00
      21     1     1     2   515   514  6.186190129E+00  2.649955304E+00 -2.846283734E+01  2.924763787E+01  1.261592536E-06  0.00000E+00  9.000E+00
      21     1     1     2   512   515  3.522611308E+00  4.418412350E+00 -1.737568214E+02  1.738486817E+02  3.303624740E-06  0.00000E+00  9.000E+00
</event>
<event>
      5  10001  3.52971E+09  1.63378E+01 -1.00000E+00  1.73955E-01
      21    -1     0     0   516   514  0.000000000E+00  0.000000000E+00  4.548828007E-01  4.548828007E-01  0.000000000E+00  0.00000E+00  9.000E+00
       2    -1     0     0   512     0  0.000000000E+00  0.000000000E+00 -8.555062589E+02  8.555062589E+02  0.000000000E+00  0.00000E+00  9.000E+00
      21     1     1     2   512   514 -5.175962789E+00 -9.326904889E+00 -7.361981544E+02  7.362754269E+02  1.868812365E-05  0.00000E+00  9.000E+00
       2     1     1     2   511     0  2.888133950E+00  4.030816112E+00 -9.554417270E+01  9.567333293E+01  3.300000131E-01  0.00000E+00  9.000E+00
      21     1     1     2   516   511  2.287828839E+00  5.296088777E+00 -2.330904906E+01  2.401238192E+01  1.118282261E-06  0.00000E+00  9.000E+00
</event>
<event>
      5  10001  3.52971E+09  5.92226E+00 -1.00000E+00  2.26349E-01
      21    -1     0     0   513   511  0.000000000E+00  0.000000000E+00  3.219408960E+01  3.219408960E+01  0.000000000E+00  0.00000E+00  9.000E+00
       2    -1     0     0   514     0  0.000000000E+00  0.000000000E+00 -1.143682882E+01  1.143682882E+01  0.000000000E+00  0.00000E+00  9.000E+00
      21     1     1     2   512   511 -2.090403933E-01  5.099256184E+00  2.220953221E+01  2.278836178E+01  0.000000000E+00  0.00000E+00  9.000E+00
       2     1     1     2   513     0 -4.462692294E+00 -8.494187222E+00 -7.720199072E+00  1.231978948E+01  3.300000131E-01  0.00000E+00  9.000E+00
      21     1     1     2   514   512  4.671732688E+00  3.394931038E+00  6.267927642E+00  8.522767156E+00  2.064765462E-07  0.00000E+00  9.000E+00
</event>
<event>
      5  10001  3.52971E+09  7.46602E+00 -1.00000E+00  2.11667E-01
      21    -1     0     0   515   512  0.000000000E+00  0.000000000E+00  1.777913660E+02  1.777913660E+02  0.000000000E+00  0.00000E+00  9.000E+00
      21    -1     0     0   514   515  0.000000000E+00  0.000000000E+00 -1.791807032E+02  1.791807032E+02  0.000000000E+00  0.00000E+00  9.000E+00
      21     1     1     2   516   512 -5.626162928E+00  8.234786994E+00  1.746209151E+02  1.749054871E+02  1.907348633E-06  0.00000E+00  9.000E+00
      21     1     1     2   514   511  4.423042351E+00 -3.797443292E+00 -1.772173485E+02  1.773132045E+02  2.697398305E-06  0.00000E+00  9.000E+00
      21     1     1     2   511   516  1.203120576E+00 -4.437343702E+00  1.207096128E+00  4.753377674E+00  9.305772183E-08  0.00000E+00  9.000E+00
</event>
<event>
      5  10001  3.52971E+09  5.50623E+00 -1.00000E+00  2.31418E-01
      21    -1     0     0   511   513  0.000000000E+00  0.000000000E+00  4.938755226E-01  4.938755226E-01  0.000000000E+00  0.00000E+00  9.000E+00
       2    -1     0     0   512     0  0.000000000E+00  0.000000000E+00 -6.712844537E+02  6.712844537E+02  0.000000000E+00  0.00000E+00  9.000E+00
       2     1     1     2   511     0 -1.101527913E+01  9.175487515E+00 -3.352443970E+02  3.355509507E+02  3.300000131E-01  0.00000E+00  9.000E+00
       5     1     1     2   512     0  1.003960214E+01 -4.109359679E+00 -2.777473536E+02  2.780005628E+02  4.800000191E+00  0.00000E+00  9.000E+00
      -5     1     1     2     0   513  9.756769857E-01 -5.066127836E+00 -5.779882755E+01  5.822681569E+01  4.800000191E+00  0.00000E+00  9.000E+00
</event>
<event>
      5  10001  3.52971E+09  9.87895E+00 -1.00000E+00  1.96366E-01
      21    -1     0     0   515   512  0.000000000E+00  0.000000000E+00  2.219046930E+00  2.219046930E+00  0.000000000E+00  0.00000E+00  9.000E+00
      21    -1     0     0   511   514  0.000000000E+00  0.000000000E+00 -1.492732984E+03  1.492732984E+03  0.000000000E+00  0.00000E+00  9.000E+00
      -3     1     1     2     0   512  1.046368763E+01 -5.444769001E-02 -1.109072622E+01  1.525601296E+01  5.000000000E-01  0.00000E+00  9.000E+00
      21     1     1     2   515   514 -1.554518052E+01  8.525610442E+00 -7.713785480E+02  7.715822723E+02  0.000000000E+00  0.00000E+00  9.000E+00
       3     1     1     2   511     0  5.081492894E+00 -8.471162752E+00 -7.080446632E+02  7.081137459E+02  5.000000000E-01  0.00000E+00  9.000E+00
</event>
<event>
      5  10001  3.52971E+09  2.56668E+01 -1.00000E+00  1.57896E-01
      21    -1     0     0   513   512  0.000000000E+00  0.000000000E+00  1.310975666E+01  1.310975666E+01  0.000000000E+00  0.00000E+00  9.000E+00
      21    -1     0     0   511   516  0.000000000E+00  0.000000000E+00 -1.131582539E+02  1.131582539E+02  0.000000000E+00  0.00000E+00  9.000E+00
      21     1     1     2   513   516  2.296463301E+00 -1.206885260E+01 -1.088203132E+02  1.095116045E+02  1.348699152E-06  0.00000E+00  9.000E+00
      21     1     1     2   511   514 -1.936899973E+00  8.514618174E-01 -5.282398868E-01  2.180735222E+00  6.495265579E-08  0.00000E+00  9.000E+00
      21     1     1     2   514   512 -3.595633274E-01  1.121739078E+01  9.300055867E+00  1.457567085E+01  8.085167388E-07  0.00000E+00  9.000E+00
</event>
<event>
      5  10001  3.52971E+09  1.12091E+01 -1.00000E+00  1.90192E-01
       3    -1     0     0   513     0  0.000000000E+00  0.000000000E+00  4.949107495E+01  4.949107495E+01  0.000000000E+00  0.00000E+00  9.000E+00
      21    -1     0     0   515   513  0.000000000E+00  0.000000000E+00 -9.376163542E+00  9.376163542E+00  0.000000000E+00  0.00000E+00  9.000E+00
      21     1     1     2   515   514 -2.897079733E+00  1.217135210E+01 -8.690349907E-01  1.254153518E+01  1.173318606E-07  0.00000E+00  9.000E+00
       3     1     1     2   511     0 -2.022392057E+00 -7.820536354E+00  3.844008347E+01  3.928283182E+01  5.000000000E-01  0.00000E+00  9.000E+00
      21     1     1     2   514   511  4.919471790E+00 -4.350815741E+00  2.543862930E+00  7.042871496E+00  1.032382731E-07  0.00000E+00  9.000E+00
</event>
<event>
      5  10001  3.52971E+09  3.82687E+00 -1.00000E+00  2.68073E-01
      21    -1     0     0   512   511  0.000000000E+00  0.000000000E+00  9.075751461E+01  9.075751461E+01  0.000000000E+00  0.00000E+00  9.000E+00
       1    -1     0     0   514     0  0.000000000E+00  0.000000000E+00 -2.187262833E+02  2.187262833E+02  0.000000000E+00  0.00000E+00  9.000E+00
      21     1     1     2   512   516  7.393201797E+00  1.150530313E+01  1.754398717E+01  2.224461550E+01  2.384185791E-07  0.00000E+00  9.000E+00
      21     1     1     2   514   511 -7.439767545E+00 -1.533188784E+01  6.982126923E+01  7.187090206E+01  0.000000000E+00  0.00000E+00  9.000E+00
       1     1     1     2   516     0  4.656574727E-02  3.826584716E+00 -2.153340250E+02  2.153682803E+02  3.300000131E-01  0.00000E+00  9.000E+00
</event>
<event>
      5  10001  3.52971E+09  1.58757E+01 -1.00000E+00  1.75090E-01
      21    -1     0     0   513   514  0.000000000E+00  0.000000000E+00  8.664041510E+00  8.664041510E+00  0.000000000E+00  0.00000E+00  9.000E+00
      21    -1     0     0   515   513  0.000000000E+00  0.000000000E+00 -2.991258095E+01  2.991258095E+01  0.000000000E+00  0.00000E+00  9.000E+00
      21     1     1     2   515   517  7.395819154E+00 -1.204852129E+01 -3.365697151E+00  1.453247823E+01  1.397852826E-07  0.00000E+00  9.000E+00
      21     1     1     2   517   511 -2.409622665E+00  1.358362755E+00 -1.808265079E-01  2.772026152E+00  5.512926201E-08  0.00000E+00  9.000E+00
      21     1     1     2   511   514 -4.986196489E+00  1.069015853E+01 -1.770201579E+01  2.127211808E+01  2.384185791E-07  0.00000E+00  9.000E+00
</event>
<event>
      5  10001  3.52971E+09  9.94964E+00 -1.00000E+00  1.96006E-01
      21    -1     0     0   512   516  0.000000000E+00  0.000000000E+00  6.954958676E+01  6.954958676E+01  0.000000000E+00  0.00000E+00  9.000E+00
      21    -1     0     0   515   513  0.000000000E+00  0.000000000E+00 -2.551742304E+01  2.551742304E+01  0.000000000E+00  0.00000E+00  9.000E+00
      21     1     1     2   512   514 -8.728919244E+00  3.920896282E+00 -1.978877170E+01  2.198096777E+01  5.331201500E-07  0.00000E+00  9.000E+00
      21     1     1     2   515   516  1.110550987E+01 -1.358253125E+01  5.985793866E+01  6.237619999E+01  6.743495762E-07  0.00000E+00  9.000E+00
      21     1     1     2   514   513 -2.376590629E+00  9.661634963E+00  3.962996761E+00  1.070984204E+01  0.000000000E+00  0.00000E+00  9.000E+00
</event>
<event>
      5  10001  3.52971E+09  5.71288E+00 -1.00000E+00  2.28824E-01
      21    -1     0     0   511   513  0.000000000E+00  0.000000000E+00  2.051822919E+02  2.051822919E+02  0.000000000E+00  0.00000E+00  9.000E+00
       1    -1     0     0   514     0  0.000000000E+00  0.000000000E+00 -1.058340028E+03  1.058340028E+03  0.000000000E+00  0.00000E+00  9.000E+00
      21     1     1     2   511   517 -4.803743679E+00 -9.317368989E+00 -4.936576448E+01  5.046650395E+01  1.651812370E-06  0.00000E+00  9.000E+00
      21     1     1     2   514   513  9.764814404E+00  6.484573514E+00  2.044559321E+02  2.047916733E+02  0.000000000E+00  0.00000E+00  9.000E+00
       1     1     1     2   517     0 -4.961070725E+00  2.832795475E+00 -1.008247904E+03  1.008264143E+03  3.300000131E-01  0.00000E+00  9.000E+00
</event>
<event>
      5  10001  3.52971E+09  1.88897E+01 -1.00000E+00  1.68439E-01
      21    -1     0     0   512   514  0.000000000E+00  0.000000000E+00  5.931779072E+02  5.931779072E+02  0.000000000E+00  0.00000E+00  9.000E+00
      21    -1     0     0   511   512  0.000000000E+00  0.000000000E+00 -3.239334127E+01  3.239334127E+01  0.000000000E+00  0.00000E+00  9.000E+00
      21     1     1     2   515   516  1.606296533E+01  1.590031039E+01  4.280928430E+01  4.840943656E+01  1.581489940E-06  0.00000E+00  9.000E+00
      21     1     1     2   516   514  2.632739956E+00 -1.320021841E+01  5.444625049E+02  5.446288611E+02  7.629394531E-06  0.00000E+00  9.000E+00
      21     1     1     2   511   515 -1.869570529E+01 -2.700091985E+00 -2.648722327E+01  3.253295083E+01  1.545128989E-06  0.00000E+00  9.000E+00
</event>
<event>
      5  10001  3.52971E+09  7.62046E+00 -1.00000E+00  2.10464E-01
      21    -1     0     0   513   516  0.000000000E+00  0.000000000E+00  1.283218279E+01  1.283218279E+01  0.000000000E+00  0.00000E+00  9.000E+00
      21    -1     0     0   511   513  0.000000000E+00  0.000000000E+00 -1.377800262E+01  1.377800262E+01  0.000000000E+00  0.00000E+00  9.000E+00
      21     1     1     2   511   515 -3.459095035E+00 -1.078909197E+01 -4.873297828E+00  1.233364811E+01  2.528810911E-07  0.00000E+00  9.000E+00
       3     1     1     2   515     0 -1.214496198E+00  7.144981711E+00  2.197312392E-01  7.268015306E+00  5.000000000E-01  0.00000E+00  9.000E+00
      -3     1     1     2     0   516  4.673591234E+00  3.644110258E+00  3.707746755E+00  7.008521997E+00  5.000000000E-01  0.00000E+00  9.000E+00
</event>
<event>
      5  10001  3.52971E+09  8.02069E+00 -1.00000E+00  2.07519E-01
      21    -1     0     0   512   515  0.000000000E+00  0.000000000E+00  7.297904477E+01  7.297904477E+01  0.000000000E+00  0.00000E+00  9.000E+00
      21    -1     0     0   511   514  0.000000000E+00  0.000000000E+00 -7.574824043E+00  7.574824043E+00  0.000000000E+00  0.00000E+00  9.000E+00
      21     1     1     2   512   514  5.275528162E+00  1.287403375E+01  1.318749823E+00  1.397537275E+01  4.636153336E-07  0.00000E+00  9.000E+00
      -2     1     1     2     0   515 -1.366145482E-01 -6.807953973E+00  4.946870888E+01  4.993624895E+01  3.300000131E-01  0.00000E+00  9.000E+00
       2     1     1     2   511     0 -5.138913614E+00 -6.066079775E+00  1.461676202E+01  1.664224711E+01  3.300000131E-01  0.00000E+00  9.000E+00
</event>
<event>
      5  10001  3.52971E+09  5.15837E+00 -1.00000E+00  2.36167E-01
      21    -1     0     0   511   512  0.000000000E+00  0.000000000E+00  4.433711090E+01  4.433711090E+01  0.000000000E+00  0.00000E+00  9.000E+00
      21    -1     0     0   513   516  0.000000000E+00  0.000000000E+00 -1.854863708E+01  1.854863708E+01  0.000000000E+00  0.00000E+00  9.000E+00
      21     1     1     2   511   516 -1.161649216E+01  8.151479588E+00 -1.841248872E+00  1.431012603E+01  1.228781231E-07  0.00000E+00  9.000E+00
       5     1     1     2   513     0  7.434602873E+00 -1.099091042E+01 -5.181577603E+00  1.503203845E+01  4.800000191E+00  0.00000E+00  9.000E+00
      -5     1     1     2     0   512  4.181889284E+00  2.839430835E+00  3.281130030E+01  3.354358350E+01  4.800000191E+00  0.00000E+00  9.000E+00
</event>
<event>
      5  10001  3.52971E+09  2.28485E+00 -1.00000E+00  3.38064E-01
      21    -1     0     0   514   512  0.000000000E+00  0.000000000E+00  2.644473395E+00  2.644473395E+00  0.000000000E+00  0.00000E+00  9.000E+00
       2    -1     0     0   513     0  0.000000000E+00  0.000000000E+00 -5.353645647E+01  5.353645647E+01  0.000000000E+00  0.00000E+00  9.000E+00
      21     1     1     2   513   512  2.521169105E+00  1.126876077E+01 -2.074104970E+01  2.373883749E+01  3.371747881E-07  0.00000E+00  9.000E+00
       2     1     1     2   511     0 -3.049164836E+00 -7.128700402E+00 -2.086050302E+01  2.225725189E+01  3.300000131E-01  0.00000E+00  9.000E+00
      21     1     1     2   514   511  5.279957308E-01 -4.140060367E+00 -9.290430361E+00  1.018484048E+01  1.192092896E-07  0.00000E+00  9.000E+00
</event>
<event>
      5  10001  3.52971E+09  4.72647E+00 -1.00000E+00  2.47477E-01
      -1    -1     0     0     0   512  0.000000000E+00  0.000000000E+00  3.004574041E+00  3.004574041E+00  0.000000000E+00  0.00000E+00  9.000E+00
      21    -1     0     0   515   514  0.000000000E+00  0.000000000E+00 -2.352975102E+02  2.352975102E+02  0.000000000E+00  0.00000E+00  9.000E+00
      -1     1     1     2     0   513  1.012443197E+01  7.577387808E-01 -9.397984015E+00  1.383868832E+01  3.300000131E-01  0.00000E+00  9.000E+00
      21     1     1     2   513   514 -1.154934489E+01  3.748589127E+00 -2.143890462E+02  2.147326301E+02  2.697398305E-06  0.00000E+00  9.000E+00
      21     1     1     2   515   512  1.424912916E+00 -4.506327908E+00 -8.505905914E+00  9.730765821E+00  0.000000000E+00  0.00000E+00  9.000E+00
</event>
<event>
      5  10001  3.52971E+09  2.55885E+01 -1.00000E+00  1.57995E-01
      21    -1     0     0   511   513  0.000000000E+00  0.000000000E+00  2.204729383E+01  2.204729383E+01  0.000000000E+00  0.00000E+00  9.000E+00
      21    -1     0     0   515   512  0.000000000E+00  0.000000000E+00 -2.189732738E+01  2.189732738E+01  0.000000000E+00  0.00000E+00  9.000E+00
      21     1     1     2   511   512  8.890949855E+00 -1.911991873E+00  1.249888491E+01  1.545725804E+01  0.000000000E+00  0.00000E+00  9.000E+00
      21     1     1     2   514   513 -1.082948400E+01 -7.762650877E+00 -8.729923889E-01  1.335284944E+01  1.228781231E-07  0.00000E+00  9.000E+00
      21     1     1     2   515   514  1.938534148E+00  9.674642750E+00 -1.147592606E+01  1.513451373E+01  3.769728732E-07  0.00000E+00  9.000E+00
</event>
<event>
      5  10001  3.52971E+09  3.86874E+01 -1.00000E+00  1.45742E-01
      21    -1     0     0   515   513  0.000000000E+00  0.000000000E+00  2.658592635E+00  2.658592635E+00  0.000000000E+00  0.00000E+00  9.000E+00
       2    -1     0     0   514     0  0.000000000E+00  0.000000000E+00 -3.699545761E+02  3.699545761E+02  0.000000000E+00  0.00000E+00  9.000E+00
      21     1     1     2   511   513  2.936660544E+00  5.674920707E+00 -4.697682940E+01  4.740939992E+01  0.000000000E+00  0.00000E+00  9.000E+00
       2     1     1     2   515     0 -4.050842106E+00 -1.257461493E+01 -3.173254701E+02  3.176005244E+02  3.300000131E-01  0.00000E+00  9.000E+00
      21     1     1     2   514   511  1.114181562E+00  6.899694221E+00 -2.993683947E+00  7.603244339E+00  3.449868233E-07  0.00000E+00  9.000E+00
</event>
<event>
      5  10001  3.52971E+09  7.45824E+00 -1.00000E+00  2.11728E-01
      21    -1     0     0   512   514  0.000000000E+00  0.000000000E+00  8.521151858E+01  8.521151858E+01  0.000000000E+00  0.00000E+00  9.000E+00
       2    -1     0     0   513     0  0.000000000E+00  0.000000000E+00 -3.828268596E+02  3.828268596E+02  0.000000000E+00  0.00000E+00  9.000E+00
      21     1     1     2   512   511  7.762679853E+00 -3.029987946E+00  2.214455968E+01  2.366054836E+01  2.384185791E-07  0.00000E+00  9.000E+00
      21     1     1     2   513   514 -1.423111180E+01  6.742760411E+00  6.127681764E+01  6.326798354E+01  9.536743164E-07  0.00000E+00  9.000E+00
       2     1     1     2   511     0  6.468431951E+00 -3.712772465E+00 -3.810367184E+02  3.811098463E+02  3.300000131E-01  0.00000E+00  9.000E+00
</event>
<event>
      5  10001  3.52971E+09  2.79204E+00 -1.00000E+00  3.06657E-01
      21    -1     0     0   512   514  0.000000000E+00  0.000000000E+00  2.960528785E+00  2.960528785E+00  0.000000000E+00  0.00000E+00  9.000E+00
      21    -1     0     0   516   515  0.000000000E+00  0.000000000E+00 -1.468029647E+02  1.468029647E+02  0.000000000E+00  0.00000E+00  9.000E+00
      21     1     1     2   513   514 -3.422972929E+00  8.801265226E+00 -1.707198466E+01  1.950978404E+01  4.129530925E-07  0.00000E+00  9.000E+00
      21     1     1     2   516   513  2.190801095E+00 -1.130670845E+01 -1.269353958E+02  1.274568004E+02  0.000000000E+00  0.00000E+00  9.000E+00
      21     1     1     2   512   515  1.232171834E+00  2.505443219E+00  1.649445838E-01  2.796908985E+00  1.402684343E-07  0.00000E+00  9.000E+00
</event>
<event>
      5  10001  3.52971E+09  4.90614E+00 -1.00000E+00  2.44179E-01
      21    -1     0     0   511   513  0.000000000E+00  0.000000000E+00  3.768295731E+01  3.768295731E+01  0.000000000E+00  0.00000E+00  9.000E+00
       4    -1     0     0   517     0  0.000000000E+00  0.000000000E+00 -6.162060279E+02  6.162060279E+02  0.000000000E+00  0.00000E+00  9.000E+00
      21     1     1     2   515   513  2.642656370E+00  1.188606609E+01  3.650494396E+01  3.848211446E+01  6.743495762E-07  0.00000E+00  9.000E+00
      21     1     1     2   517   515 -4.294596252E+00 -7.266551464E+00 -1.006608166E+02  1.010140897E+02  1.348699152E-06  0.00000E+00  9.000E+00
       4     1     1     2   511     0  1.651939882E+00 -4.619514630E+00 -5.143671980E+02  5.143927811E+02  1.500000000E+00  0.00000E+00  9.000E+00
</event>
<event>
      5  10001  3.52971E+09  8.11674E+00 -1.00000E+00  2.06846E-01
      21    -1     0     0   514   513  0.000000000E+00  0.000000000E+00  1.268108077E+01  1.268108077E+01  0.000000000E+00  0.00000E+00  9.000E+00
       3    -1     0     0   513     0  0.000000000E+00  0.000000000E+00 -1.050800631E+02  1.050800631E+02  0.000000000E+00  0.00000E+00  9.000E+00
      21     1     1     2   514   515  2.852052323E+00  4.053989080E+00  9.160021465E+00  1.041513433E+01  4.915124924E-07  0.00000E+00  9.000E+00
       3     1     1     2   512     0 -7.926124747E+00 -1.057545989E+01 -9.702234697E+01  9.791960793E+01  5.000000000E-01  0.00000E+00  9.000E+00
      21     1     1     2   515   512  5.074072424E+00  6.521470814E+00 -4.536656860E+00  9.426401647E+00  8.429369702E-08  0.00000E+00  9.000E+00
</event>
<event>
      5  10001  3.52971E+09  7.37944E+00 -1.00000E+00  2.12358E-01
       2    -1     0     0   511     0  0.000000000E+00  0.000000000E+00  2.573460710E+02  2.573460710E+02  0.000000000E+00  0.00000E+00  9.000E+00
       1    -1     0     0   513     0  0.000000000E+00  0.000000000E+00 -3.598649550E+00  3.598649550E+00  0.000000000E+00  0.00000E+00  9.000E+00
       1     1     1     2   511     0 -7.739614273E+00 -1.173236258E+01  1.225971821E+01  1.865367394E+01  3.300000131E-01  0.00000E+00  9.000E+00
       2     1     1     2   514     0  7.839221676E+00  4.950713463E+00  2.028879036E+02  2.030999096E+02  3.300000131E-01  0.00000E+00  9.000E+00
      21     1     1     2   513   514 -9.960740290E-02  6.781649120E+00  3.859979965E+01  3.919113700E+01  4.768371582E-07  0.00000E+00  9.000E+00
</event>
<event>
      5  10001  3.52971E+09  1.97690E+00 -1.00000E+00  3.65426E-01
      21    -1     0     0   511   514  0.000000000E+00  0.000000000E+00  9.288525074E+00  9.288525074E+00  0.000000000E+00  0.00000E+00  9.000E+00
      21    -1     0     0   513   515  0.000000000E+00  0.000000000E+00 -2.610855493E+01  2.610855493E+01  0.000000000E+00  0.00000E+00  9.000E+00
      21     1     1     2   512   515  1.099577537E+01 -6.225891225E+00 -1.669052310E+01  2.093423891E+01  3.371747881E-07  0.00000E+00  9.000E+00
      21     1     1     2   513   514 -9.582452337E+00  4.843626342E+00 -2.841612693E+00  1.110670390E+01  1.884864366E-07  0.00000E+00  9.000E+00
      21     1     1     2   511   512 -1.413323028E+00  1.382264883E+00  2.712105939E+00  3.356137186E+00  7.884953353E-08  0.00000E+00  9.000E+00
</event>
<event>
      5  10001  3.52971E+09  5.96693E+00 -1.00000E+00  2.25839E-01
      21    -1     0     0   514   512  0.000000000E+00  0.000000000E+00  2.496603456E+01  2.496603456E+01  0.000000000E+00  0.00000E+00  9.000E+00
       1    -1     0     0   512     0  0.000000000E+00  0.000000000E+00 -9.680247865E+02  9.680247865E+02  0.000000000E+00  0.00000E+00  9.000E+00
      21     1     1     2   513   516 -1.098083448E+01  1.802282100E+01 -1.046958199E+01  2.355871282E+01  2.323816858E-06  0.00000E+00  9.000E+00
       1     1     1     2   516     0  1.450568476E+01 -2.283734625E+01 -9.503298025E+02  9.507148898E+02  3.300000131E-01  0.00000E+00  9.000E+00
      21     1     1     2   514   513 -3.524850274E+00  4.814525256E+00  1.774063255E+01  1.871721844E+01  4.129530925E-07  0.00000E+00  9.000E+00
</event>
<event>
      5  10001  3.52971E+09  6.98318E+00 -1.00000E+00  2.15696E-01
      21    -1     0     0   511   515  0.000000000E+00  0.000000000E+00  6.319538315E+01  6.319538315E+01  0.000000000E+00  0.00000E+00  9.000E+00
      21    -1     0     0   512   513  0.000000000E+00  0.000000000E+00 -8.421840548E+01  8.421840548E+01  0.000000000E+00  0.00000E+00  9.000E+00
      21     1     1     2   511   513  9.062843762E+00  6.913176991E+00  6.200740095E+01  6.304637124E+01  1.168007728E-06  0.00000E+00  9.000E+00
      21     1     1     2   516   515 -8.413125317E+00 -6.699243991E-01 -5.492041893E+01  5.556511398E+01  6.743495762E-07  0.00000E+00  9.000E+00
      21     1     1     2   512   516 -6.497184449E-01 -6.243252592E+00 -2.811000435E+01  2.880230341E+01  3.371747881E-07  0.00000E+00  9.000E+00
</event>
<event>
      5  10001  3.52971E+09  3.30645E+00 -1.00000E+00  2.84602E-01
      21    -1     0     0   514   513  0.000000000E+00  0.000000000E+00  1.322843323E+02  1.322843323E+02  0.000000000E+00  0.00000E+00  9.000E+00
      21    -1     0     0   512   517  0.000000000E+00  0.000000000E+00 -1.825054194E+00  1.825054194E+00  0.000000000E+00  0.00000E+00  9.000E+00
      21     1     1     2   514   517 -7.687200709E+00 -7.309562223E+00  1.658193830E+01  1.968459886E+01  6.743495762E-07  0.00000E+00  9.000E+00
      21     1     1     2   512   511  2.597288079E+00  4.195239401E+00  6.444174154E+01  6.463036432E+01  9.536743164E-07  0.00000E+00  9.000E+00
      21     1     1     2   511   513  5.089912630E+00  3.114322822E+00  4.943559828E+01  4.979442333E+01  6.743495762E-07  0.00000E+00  9.000E+00
</event>
<event>
      5  10001  3.52971E+09  2.13308E+00 -1.00000E+00  3.50486E-01
       2    -1     0     0   514     0  0.000000000E+00  0.000000000E+00  9.288365893E+02  9.288365893E+02  0.000000000E+00  0.00000E+00  9.000E+00
      21    -1     0     0   512   514  0.000000000E+00  0.000000000E+00 -9.850176085E+00  9.850176085E+00  0.000000000E+00  0.00000E+00  9.000E+00
      21     1     1     2   515   511 -7.562089213E+00 -7.378674486E+00  5.843122839E+01  5.937877130E+01  3.234066955E-06  0.00000E+00  9.000E+00
       2     1     1     2   511     0  8.450997624E+00  9.317711014E+00  8.697641697E+02  8.698551943E+02  3.300000131E-01  0.00000E+00  9.000E+00
      21     1     1     2   512   515 -8.889084110E-01 -1.939036528E+00 -9.208984933E+00  9.452799814E+00  9.461944024E-07  0.00000E+00  9.000E+00
</event>
<event>
      5  10001  3.52971E+09  4.97387E+00 -1.00000E+00  2.42990E-01
      21    -1     0     0   514   511  0.000000000E+00  0.000000000E+00  2.661026837E+01  2.661026837E+01  0.000000000E+00  0.00000E+00  9.000E+00
      21    -1     0     0   512   515  0.000000000E+00  0.000000000E+00 -2.767446588E+01  2.767446588E+01  0.000000000E+00  0.00000E+00  9.000E+00
      21     1     1     2   513   515  1.164311032E+01  8.317257281E-01 -5.580920038E-01  1.168611365E+01  3.954426798E-07  0.00000E+00  9.000E+00
      21     1     1     2   512   511 -1.149093910E+01 -5.803270442E+00 -1.927683663E+01  2.318007894E+01  5.331201500E-07  0.00000E+00  9.000E+00
      21     1     1     2   514   513 -1.521712226E-01  4.971544714E+00  1.877073112E+01  1.941854165E+01  2.384185791E-07  0.00000E+00  9.000E+00
</event>
<event>
      5  10001  3.52971E+09  5.04358E+00 -1.00000E+00  2.37853E-01
      21    -1     0     0   516   511  0.000000000E+00  0.000000000E+00  3.082741107E+02  3.082741107E+02  0.000000000E+00  0.00000E+00  9.000E+00
       3    -1     0     0   515     0  0.000000000E+00  0.000000000E+00 -9.829237495E+00  9.829237495E+00  0.000000000E+00  0.00000E+00  9.000E+00
      21     1     1     2   512   511  3.752931344E+00  8.334060361E+00  2.983556760E+02  2.984956456E+02  5.394796609E-06  0.00000E+00  9.000E+00
       3     1     1     2   516     0 -2.130103222E+00 -1.310923470E+01  3.215385187E+00  1.367399269E+01  5.000000000E-01  0.00000E+00  9.000E+00
      21     1     1     2   515   512 -1.622828122E+00  4.775174336E+00 -3.126188018E+00  5.933709849E+00  2.021291847E-07  0.00000E+00  9.000E+00
</event>
<event>
      5  10001  3.52971E+09  2.13137E+01 -1.00000E+00  1.64118E-01
      21    -1     0     0   514   511  0.000000000E+00  0.000000000E+00  1.462755526E+01  1.462755526E+01  0.000000000E+00  0.00000E+00  9.000E+00
       1    -1     0     0   511     0  0.000000000E+00  0.000000000E+00 -1.103024451E+02  1.103024451E+02  0.000000000E+00  0.00000E+00  9.000E+00
      21     1     1     2   516   513  1.533597651E+00 -1.593420653E+00  1.162615463E-01  2.214594292E+00  4.493571103E-08  0.00000E+00  9.000E+00
       1     1     1     2   513     0 -1.222171365E+01 -1.783417225E+00 -1.064993387E+02  1.072136600E+02  3.300000131E-01  0.00000E+00  9.000E+00
      21     1     1     2   514   516  1.068811600E+01  3.376837878E+00  1.070818723E+01  1.550174608E+01  1.004475328E-06  0.00000E+00  9.000E+00
</event>
<event>
      5  10001  3.52971E+09  7.39569E+00 -1.00000E+00  2.12227E-01
      21    -1     0     0   513   515  0.000000000E+00  0.000000000E+00  3.879114457E+00  3.879114457E+00  0.000000000E+00  0.00000E+00  9.000E+00
       2    -1     0     0   511     0  0.000000000E+00  0.000000000E+00 -3.735815390E+02  3.735815390E+02  0.000000000E+00  0.00000E+00  9.000E+00
      21     1     1     2   513   512  3.940686757E+00 -9.559160229E+00 -8.332313935E+01  8.396220642E+01  1.348699152E-06  0.00000E+00  9.000E+00
       2     1     1     2   512     0  3.099067879E+00  1.182534176E+01 -2.858203350E+02  2.860818340E+02  3.300000131E-01  0.00000E+00  9.000E+00
      21     1     1     2   511   515 -7.039754635E+00 -2.266181534E+00 -5.589501999E-01  7.416613068E+00  2.802646588E-07  0.00000E+00  9.000E+00
</event>
<event>
      5  10001  3.52971E+09  7.54240E+00 -1.00000E+00  2.11067E-01
      -4    -1     0     0     0   515  0.000000000E+00  0.000000000E+00  1.664847055E+01  1.664847055E+01  0.000000000E+00  0.00000E+00  9.000E+00
      -2    -1     0     0     0   514  0.000000000E+00  0.000000000E+00 -2.582251036E+01  2.582251036E+01  0.000000000E+00  0.00000E+00  9.000E+00
      -2     1     1     2     0   515 -4.784897201E+00 -8.079658574E+00 -4.096704167E+00  1.025026872E+01  3.300000131E-01  0.00000E+00  9.000E+00
      21     1     1     2   511   514  1.187918397E+01  5.562604711E+00 -1.483731219E+01  1.980412623E+01  2.384185791E-07  0.00000E+00  9.000E+00
      -4     1     1     2     0   511 -7.094286765E+00  2.517053863E+00  9.759976543E+00  1.241658596E+01  1.500000000E+00  0.00000E+00  9.000E+00
</event>
<event>
      5  10001  3.52971E+09  3.58476E+00 -1.00000E+00  2.75206E-01
      21    -1     0     0   512   511  0.000000000E+00  0.000000000E+00  6.154388905E+01  6.154388905E+01  0.000000000E+00  0.00000E+00  9.000E+00
      21    -1     0     0   515   513  0.000000000E+00  0.000000000E+00 -3.347846614E+00  3.347846614E+00  0.000000000E+00  0.00000E+00  9.000E+00
      21     1     1     2   512   513 -2.511189123E+00  1.051466225E+01  7.869257858E+00  1.337121581E+01  2.665600750E-07  0.00000E+00  9.000E+00
       3     1     1     2   515     0  9.455960779E-01 -1.614967874E+00  1.064233801E+01  1.081719148E+01  5.000000000E-01  0.00000E+00  9.000E+00
      -3     1     1     2     0   511  1.565593045E+00 -8.899694373E+00  3.968444657E+01  4.070332838E+01  5.000000000E-01  0.00000E+00  9.000E+00
</event>
<event>
      5  10001  3.52971E+09  4.74167E+00 -1.00000E+00  2.47190E-01
      21    -1     0     0   514   516  0.000000000E+00  0.000000000E+00  1.689245770E+00  1.689245770E+00  0.000000000E+00  0.00000E+00  9.000E+00
       2    -1     0     0   511     0  0.000000000E+00  0.000000000E+00 -5.768678061E+02  5.768678061E+02  0.000000000E+00  0.00000E+00  9.000E+00
      21     1     1     2   515   516 -7.694637852E+00 -4.387565074E+00 -2.162522418E+01  2.336896445E+01  7.152557373E-07  0.00000E+00  9.000E+00
      21     1     1     2   511   515  1.237777733E+01  3.645796701E+00 -5.082907917E+01  5.244136244E+01  9.536743164E-07  0.00000E+00  9.000E+00
       2     1     1     2   514     0 -4.683139481E+00  7.417683733E-01 -5.027242570E+02  5.027467250E+02  3.300000131E-01  0.00000E+00  9.000E+00
</event>
<event>
      5  10001  3.52971E+09  4.56458E+00 -1.00000E+00  2.50645E-01
      21    -1     0     0   512   511  0.000000000E+00  0.000000000E+00  7.193768121E+02  7.193768121E+02  0.000000000E+00  0.00000E+00  9.000E+00
       4    -1     0     0   513     0  0.000000000E+00  0.000000000E+00 -3.149583603E+01  3.149583603E+01  0.000000000E+00  0.00000E+00  9.000E+00
      21     1     1     2   515   511  9.116948583E+00 -5.984652093E+00  7.045511998E+02  7.046355994E+02  1.078959322E-05  0.00000E+00  9.000E+00
       4     1     1     2   512     0 -1.282838974E+01  4.875490362E+00 -2.964203893E+01  3.269921194E+01  1.500000000E+00  0.00000E+00  9.000E+00
      21     1     1     2   513   515  3.711441152E+00  1.109161730E+00  1.297181517E+01  1.353783676E+01  2.920019320E-07  0.00000E+00  9.000E+00
</event>
<event>
      5  10001  3.52971E+09  1.08034E+01 -1.00000E+00  1.91951E-01
      21    -1     0     0   514   515  0.000000000E+00  0.000000000E+00  2.722853863E+01  2.722853863E+01  0.000000000E+00  0.00000E+00  9.000E+00
      21    -1     0     0   513   514  0.000000000E+00  0.000000000E+00 -4.124216635E+02  4.124216635E+02  0.000000000E+00  0.00000E+00  9.000E+00
      21     1     1     2   516   515 -4.730085566E+00 -1.201166304E+01  2.557892991E+01  2.865197051E+01  1.390207266E-06  0.00000E+00  9.000E+00
      21     1     1     2   513   511 -7.769447603E-01  1.208784985E+00 -5.817322091E+01  5.819096524E+01  9.536743164E-07  0.00000E+00  9.000E+00
      21     1     1     2   511   516  5.507030327E+00  1.080287806E+01 -3.525988339E+02  3.528072664E+02  3.814697266E-06  0.00000E+00  9.000E+00
</event>
<event>
      5  10001  3.52971E+09  8.13379E+00 -1.00000E+00  2.06728E-01
      21    -1     0     0   512   513  0.000000000E+00  0.000000000E+00  2.053733606E+01  2.053733606E+01  0.000000000E+00  0.00000E+00  9.000E+00
      21    -1     0     0   515   516  0.000000000E+00  0.000000000E+00 -3.347661984E+02  3.347661984E+02  0.000000000E+00  0.00000E+00  9.000E+00
      21     1     1     2   512   516 -1.810843981E+01 -1.217776215E+00  1.575202574E+01  2.403174746E+01  9.684608465E-07  0.00000E+00  9.000E+00
      21     1     1     2   514   513  1.090486191E+01 -2.230291374E+00 -3.011387016E+02  3.013443343E+02  3.814697266E-06  0.00000E+00  9.000E+00
      21     1     1     2   515   514  7.203577902E+00  3.448067589E+00 -2.884218641E+01  2.992745264E+01  3.371747881E-07  0.00000E+00  9.000E+00
</event>
<event>
      5  10001  3.52971E+09  2.26427E+01 -1.00000E+00  1.62038E-01
      21    -1     0     0   511   513  0.000000000E+00  0.000000000E+00  2.111558948E+00  2.111558948E+00  0.000000000E+00  0.00000E+00  9.000E+00
       2    -1     0     0   514     0  0.000000000E+00  0.000000000E+00 -1.105760577E+02  1.105760577E+02  0.000000000E+00  0.00000E+00  9.000E+00
      21     1     1     2   514   513 -2.591512586E+00 -6.092886788E+00 -3.307999552E+01  3.373611285E+01  4.768371582E-07  0.00000E+00  9.000E+00
      21     1     1     2   511   512  4.243248011E+00 -2.015292769E+00 -2.007193701E+00  5.108364237E+00  7.300048300E-08  0.00000E+00  9.000E+00
       2     1     1     2   512     0 -1.651735425E+00  8.108179557E+00 -7.337730954E+01  7.384313957E+01  3.300000131E-01  0.00000E+00  9.000E+00
</event>
<event>
      5  10001  3.52971E+09  1.10580E+01 -1.00000E+00  1.90836E-01
      -2    -1     0     0     0   515  0.000000000E+00  0.000000000E+00  2.062014111E+00  2.062014111E+00  0.000000000E+00  0.00000E+00  9.000E+00
      21    -1     0     0   512   511  0.000000000E+00  0.000000000E+00 -9.327909341E+01  9.327909341E+01  0.000000000E+00  0.00000E+00  9.000E+00
      -2     1     1     2     0   513 -7.018825599E-01  4.903563225E+00 -2.021178144E+00  5.360189598E+00  3.300000131E-01  0.00000E+00  9.000E+00
      21     1     1     2   512   515 -3.811638755E+00 -6.097499400E+00 -5.438621372E+01  5.485953273E+01  9.536743164E-07  0.00000E+00  9.000E+00
      21     1     1     2   513   511  4.513521314E+00  1.193936175E+00 -3.480968743E+01  3.512138518E+01  4.768371582E-07  0.00000E+00  9.000E+00
</event>
<event>
      5  10001  3.52971E+09  5.31065E+00 -1.00000E+00  2.34025E-01
       1    -1     0     0   514     0  0.000000000E+00  0.000000000E+00  5.899604311E+01  5.899604311E+01  0.000000000E+00  0.00000E+00  9.000E+00
      21    -1     0     0   513   516  0.000000000E+00  0.000000000E+00 -9.165953899E+01  9.165953899E+01  0.000000000E+00  0.00000E+00  9.000E+00
      21     1     1     2   514   516 -9.136270016E+00 -1.159004942E+01 -3.889041032E+01  4.159645045E+01  6.743495762E-07  0.00000E+00  9.000E+00
      21     1     1     2   513   511  4.149275368E+00  1.341558711E+01 -5.033008716E+01  5.225238881E+01  6.743495762E-07  0.00000E+00  9.000E+00
       1     1     1     2   511     0  4.986994648E+00 -1.825537691E+00  5.655700158E+01  5.680674284E+01  3.300000131E-01  0.00000E+00  9.000E+00
</event>
<event>
      5  10001  3.52971E+09  6.79618E+00 -1.00000E+00  2.17378E-01
      21    -1     0     0   512   511  0.000000000E+00  0.000000000E+00  5.981437628E+02  5.981437628E+02  0.000000000E+00  0.00000E+00  9.000E+00
      21    -1     0     0   515   512  0.000000000E+00  0.000000000E+00 -3.908817759E-01  3.908817759E-01  0.000000000E+00  0.00000E+00  9.000E+00
      21     1     1     2   513   511  8.221089325E+00  3.713426430E+00  4.555652615E+02  4.556545658E+02  7.629394531E-06  0.00000E+00  9.000E+00
      21     1     1     2   515   514 -4.748264722E+00 -7.016051374E+00  6.593883246E+01  6.648082897E+01  1.348699152E-06  0.00000E+00  9.000E+00
      21     1     1     2   514   513 -3.472824603E+00  3.302624944E+00  7.624878702E+01  7.639924976E+01  1.348699152E-06  0.00000E+00  9.000E+00
</event>
<event>
      5  10001  3.52971E+09  7.71394E+00 -1.00000E+00  2.09755E-01
      21    -1     0     0   516   515  0.000000000E+00  0.000000000E+00  2.689913175E+01  2.689913175E+01  0.000000000E+00  0.00000E+00  9.000E+00
      21    -1     0     0   511   513  0.000000000E+00  0.000000000E+00 -3.941342114E+00  3.941342114E+00  0.000000000E+00  0.00000E+00  9.000E+00
      21     1     1     2   516   513 -1.741201591E+00  7.601847111E+00  7.967426648E+00  1.114897977E+01  2.528810911E-07  0.00000E+00  9.000E+00
      21     1     1     2   511   512  2.636375276E+00 -5.935687313E+00  1.619516256E+01  1.744895839E+01  2.384185791E-07  0.00000E+00  9.000E+00
      21     1     1     2   512   515 -8.951736846E-01 -1.666159798E+00 -1.204799571E+00  2.242535709E+00  1.365713982E-07  0.00000E+00  9.000E+00
</event>
<event>
      5  10001  3.52971E+09  1.43554E+01 -1.00000E+00  1.79196E-01
      21    -1     0     0   514   511  0.000000000E+00  0.000000000E+00  1.101951399E+01  1.101951399E+01  0.000000000E+00  0.00000E+00  9.000E+00
      21    -1     0     0   517   515  0.000000000E+00  0.000000000E+00 -5.189814792E+01  5.189814792E+01  0.000000000E+00  0.00000E+00  9.000E+00
      21     1     1     2   514   515  1.957503241E+01 -7.176911961E-01 -2.759750688E+01  3.384256729E+01  4.768371582E-07  0.00000E+00  9.000E+00
      21     1     1     2   517   513 -9.578955159E+00 -1.089175655E+00  2.813586002E+00  1.004285576E+01  2.648888355E-07  0.00000E+00  9.000E+00
      21     1     1     2   513   511 -9.996077252E+00  1.806866851E+00 -1.609471305E+01  1.903223887E+01  2.384185791E-07  0.00000E+00  9.000E+00
</event>
<event>
      5  10001  3.52971E+09  4.82110E+01 -1.00000E+00  1.39982E-01
      21    -1     0     0   512   515  0.000000000E+00  0.000000000E+00  2.381185589E+01  2.381185589E+01  0.000000000E+00  0.00000E+00  9.000E+00
      21    -1     0     0   516   511  0.000000000E+00  0.000000000E+00 -1.676473258E+02  1.676473258E+02  0.000000000E+00  0.00000E+00  9.000E+00
      21     1     1     2   512   511 -1.895764410E+01 -1.176034205E+01 -1.545338383E+02  1.561358546E+02  1.907348633E-06  0.00000E+00  9.000E+00
      21     1     1     2   516   514 -4.384930307E+00 -3.385249859E+00  3.599839306E+00  6.606540201E+00  1.737759082E-07  0.00000E+00  9.000E+00
      21     1     1     2   514   515  2.334257440E+01  1.514559191E+01  7.098529082E+00  2.871678689E+01  1.338120956E-06  0.00000E+00  9.000E+00
</event>
<event>
      5  10001  3.52971E+09  4.26201E+00 -1.00000E+00  2.57134E-01
      21    -1     0     0   513   514  0.000000000E+00  0.000000000E+00  1.727974904E+01  1.727974904E+01  0.000000000E+00  0.00000E+00  9.000E+00
      21    -1     0     0   515   513  0.000000000E+00  0.000000000E+00 -7.433583318E+01  7.433583318E+01  0.000000000E+00  0.00000E+00  9.000E+00
      21     1     1     2   516   514 -5.154390108E+00 -1.305681027E+01  1.331392338E+01  1.934705631E+01  6.307962682E-07  0.00000E+00  9.000E+00
       3     1     1     2   515     0  1.475817874E+00  9.052047686E+00 -5.832033673E+01  5.903921817E+01  5.000000000E-01  0.00000E+00  9.000E+00
      -3     1     1     2     0   516  3.678572235E+00  4.004762589E+00 -1.204967080E+01  1.322930775E+01  5.000000000E-01  0.00000E+00  9.000E+00
</event>
<event>
      5  10001  3.52971E+09  5.11440E+00 -1.00000E+00  2.36805E-01
      21    -1     0     0   511   513  0.000000000E+00  0.000000000E+00  5.058614886E+02  5.058614886E+02  0.000000000E+00  0.00000E+00  9.000E+00
       2    -1     0     0   514     0  0.000000000E+00  0.000000000E+00 -4.691848732E+01  4.691848732E+01  0.000000000E+00  0.00000E+00  9.000E+00
      21     1     1     2   514   512  1.296201161E+01 -7.756271078E+00  2.058708552E+02  2.064242779E+02  3.814697266E-06  0.00000E+00  9.000E+00
       2     1     1     2   511     0 -8.434902048E+00  5.376715578E+00 -4.608277929E+01  4.715705769E+01  3.300000131E-01  0.00000E+00  9.000E+00
      21     1     1     2   512   513 -4.527109567E+00  2.379555500E+00  2.991549253E+02  2.991986403E+02  3.814697266E-06  0.00000E+00  9.000E+00
</event>
<event>
      5  10001  3.52971E+09  1.49017E+01 -1.00000E+00  1.77649E-01
      21    -1     0     0   515   514  0.000000000E+00  0.000000000E+00  8.621621983E+00  8.621621983E+00  0.000000000E+00  0.00000E+00  9.000E+00
      21    -1     0     0   513   515  0.000000000E+00  0.000000000E+00 -8.663458003E+01  8.663458003E+01  0.000000000E+00  0.00000E+00  9.000E+00
      21     1     1     2   516   514 -1.269084952E+00  9.557759955E+00  4.238818153E+00  1.053228044E+01  3.816559456E-07  0.00000E+00  9.000E+00
      21     1     1     2   511   516  9.428151219E+00 -7.051426114E+00 -4.888432167E+01  5.028209971E+01  9.536743164E-07  0.00000E+00  9.000E+00
      21     1     1     2   513   511 -8.159066267E+00 -2.506333841E+00 -3.336745453E+01  3.444182187E+01  0.000000000E+00  0.00000E+00  9.000E+00
</event>
<event>
      5  10001  3.52971E+09  1.28663E+01 -1.00000E+00  1.83896E-01
      21    -1     0     0   512   516  0.000000000E+00  0.000000000E+00  4.587798104E+01  4.587798104E+01  0.000000000E+00  0.00000E+00  9.000E+00
      21    -1     0     0   513   512  0.000000000E+00  0.000000000E+00 -1.629559134E+02  1.629559134E+02  0.000000000E+00  0.00000E+00  9.000E+00
      21     1     1     2   511   516  4.275026300E+00  2.625638973E+01  4.008097934E+01  4.810570399E+01  1.430511475E-06  0.00000E+00  9.000E+00
      21     1     1     2   514   511  3.432445470E+00 -2.548948056E+01 -1.124965237E+02  1.153991471E+02  2.336015456E-06  0.00000E+00  9.000E+00
      21     1     1     2   513   514 -7.707471769E+00 -7.669091682E-01 -4.466238803E+01  4.532904340E+01  6.743495762E-07  0.00000E+00  9.000E+00
</event>
<event>
      5  10001  3.52971E+09  1.26671E+01 -1.00000E+00  1.84587E-01
      21    -1     0     0   515   514  0.000000000E+00  0.000000000E+00  1.030324793E+01  1.030324793E+01  0.000000000E+00  0.00000E+00  9.000E+00
      21    -1     0     0   513   515  0.000000000E+00  0.000000000E+00 -6.411464108E+01  6.411464108E+01  0.000000000E+00  0.00000E+00  9.000E+00
      21     1     1     2   513   517  1.069833569E+01 -5.455313458E+00 -4.935457060E+01  5.079457127E+01  9.536743164E-07  0.00000E+00  9.000E+00
      21     1     1     2   517   511 -5.157333421E+00  1.174586336E+01  2.076429534E+00  1.299518963E+01  3.068336886E-07  0.00000E+00  9.000E+00
      21     1     1     2   511   514 -5.541002271E+00 -6.290549899E+00 -6.533252089E+00  1.062812811E+01  1.685873940E-07  0.00000E+00  9.000E+00
</event>
<event>
      5  10001  3.52971E+09  5.15611E+00 -1.00000E+00  2.36200E-01
      21    -1     0     0   513   511  0.000000000E+00  0.000000000E+00  4.987086138E+02  4.987086138E+02  0.000000000E+00  0.00000E+00  9.000E+00
      21    -1     0     0   514   512  0.000000000E+00  0.000000000E+00 -4.388076395E+00  4.388076395E+00  0.000000000E+00  0.00000E+00  9.000E+00
      21     1     1     2   516   511  1.278898040E+01  1.126573030E+00  1.680455315E+02  1.685352421E+02  2.697398305E-06  0.00000E+00  9.000E+00
      21     1     1     2   514   516 -9.914406274E+00  3.153876787E+00  2.441108833E+00  1.068650564E+01  6.114925304E-07  0.00000E+00  9.000E+00
      21     1     1     2   513   512 -2.874574128E+00 -4.280449817E+00  3.238338970E+02  3.238749424E+02  3.814697266E-06  0.00000E+00  9.000E+00
</event>
<event>
      5  10001  3.52971E+09  4.66205E+00 -1.00000E+00  2.48714E-01
      21    -1     0     0   514   511  0.000000000E+00  0.000000000E+00  1.516147136E+02  1.516147136E+02  0.000000000E+00  0.00000E+00  9.000E+00
       1    -1     0     0   511     0  0.000000000E+00  0.000000000E+00 -1.823946788E+01  1.823946788E+01  0.000000000E+00  0.00000E+00  9.000E+00
      21     1     1     2   514   515  6.998025832E+00  8.275696027E+00  1.493729229E+02  1.497655822E+02  2.697398305E-06  0.00000E+00  9.000E+00
       1     1     1     2   516     0 -1.621267487E+00 -5.952975289E+00 -9.583909424E+00  1.140292256E+01  3.300000131E-01  0.00000E+00  9.000E+00
      21     1     1     2   515   516 -5.376758345E+00 -2.322720739E+00 -6.413767810E+00  8.685676684E+00  1.884864366E-07  0.00000E+00  9.000E+00
</event>
<event>
      5  10001  3.52971E+09  3.33459E+00 -1.00000E+00  2.83585E-01
      21    -1     0     0   512   516  0.000000000E+00  0.000000000E+00  1.072437648E+02  1.072437648E+02  0.000000000E+00  0.00000E+00  9.000E+00
      21    -1     0     0   511   512  0.000000000E+00  0.000000000E+00 -5.415950812E+00  5.415950812E+00  0.000000000E+00  0.00000E+00  9.000E+00
      21     1     1     2   513   516  3.000329260E+00  1.098472621E+01  9.995132009E+01  1.005978756E+02  0.000000000E+00  0.00000E+00  9.000E+00
      21     1     1     2   514   513 -2.409398950E+00 -4.363077820E+00 -4.832037585E-01  5.007508086E+00  1.101325862E-07  0.00000E+00  9.000E+00
      21     1     1     2   511   514 -5.909303093E-01 -6.621648391E+00  2.359697659E+00  7.054331938E+00  1.264405455E-07  0.00000E+00  9.000E+00
</event>
<event>
      5  10001  3.52971E+09  8.64669E+00 -1.00000E+00  2.03347E-01
      21    -1     0     0   512   514  0.000000000E+00  0.000000000E+00  1.976713963E+02  1.976713963E+02  0.000000000E+00  0.00000E+00  9.000E+00
      21    -1     0     0   511   515  0.000000000E+00  0.000000000E+00 -1.942194852E+01  1.942194852E+01  0.000000000E+00  0.00000E+00  9.000E+00
      21     1     1     2   511   517 -7.854599873E+00  5.536954971E-01 -1.642056036E+01  1.821087918E+01  2.384185791E-07  0.00000E+00  9.000E+00
      21     1     1     2   517   514  1.508339611E+01  4.190755060E+00  2.873765234E+01  3.272497407E+01  3.371747881E-07  0.00000E+00  9.000E+00
      21     1     1     2   512   515 -7.228796233E+00 -4.744450557E+00  1.659323558E+02  1.661574915E+02  0.000000000E+00  0.00000E+00  9.000E+00
</event>
<event>
      5  10001  3.52971E+09  6.72516E+00 -1.00000E+00  2.18036E-01
      -1    -1     0     0     0   513  0.000000000E+00  0.000000000E+00  3.666093862E+01  3.666093862E+01  0.000000000E+00  0.00000E+00  9.000E+00
       1    -1     0     0   512     0  0.000000000E+00  0.000000000E+00 -8.121713328E+00  8.121713328E+00  0.000000000E+00  0.00000E+00  9.000E+00
      -1     1     1     2     0   514  1.083450721E+01 -8.415772145E+00  1.408828330E+01  1.966724164E+01  3.300000131E-01  0.00000E+00  9.000E+00
      21     1     1     2   512   513 -4.141360855E+00  7.779151101E+00  1.594662870E+01  1.821979770E+01  4.460403188E-07  0.00000E+00  9.000E+00
       1     1     1     2   514     0 -6.693146358E+00  6.366210442E-01 -1.495686701E+00  6.895612608E+00  3.300000131E-01  0.00000E+00  9.000E+00
</event>
<event>
      5  10001  3.52971E+09  8.27795E+00 -1.00000E+00  2.05745E-01
      21    -1     0     0   511   512  0.000000000E+00  0.000000000E+00  3.410786388E+02  3.410786388E+02  0.000000000E+00  0.00000E+00  9.000E+00
      21    -1     0     0   514   513  0.000000000E+00  0.000000000E+00 -3.621054032E+00  3.621054032E+00  0.000000000E+00  0.00000E+00  9.000E+00
      21     1     1     2   511   515  5.142824888E+00 -7.096623751E+00  3.994664734E+00  9.631617872E+00  1.119076214E-06  0.00000E+00  9.000E+00
      21     1     1     2   514   512  6.470918213E-01  1.301281368E+01  3.083675403E+02  3.086426607E+02  3.814697266E-06  0.00000E+00  9.000E+00
      21     1     1     2   515   513 -5.789916710E+00 -5.916189927E+00  2.509537973E+01  2.642541433E+01  4.768371582E-07  0.00000E+00  9.000E+00
</event>
<event>
      5  10001  3.52971E+09  1.32602E+01 -1.00000E+00  1.82577E-01
       2    -1     0     0   511     0  0.000000000E+00  0.000000000E+00  1.188666465E+03  1.188666465E+03  0.000000000E+00  0.00000E+00  9.000E+00
      21    -1     0     0   515   512  0.000000000E+00  0.000000000E+00 -5.076225565E+00  5.076225565E+00  0.000000000E+00  0.00000E+00  9.000E+00
      21     1     1     2   515   516  1.092116198E+01 -1.315547779E+01  1.935015972E+01  2.582183293E+01  2.185142372E-06  0.00000E+00  9.000E+00
       2     1     1     2   516     0 -2.298358578E+01  7.648321463E+00  1.140271667E+03  1.140528968E+03  3.300000131E-01  0.00000E+00  9.000E+00
      21     1     1     2   511   512  1.206242381E+01  5.507156328E+00  2.396841228E+01  2.739188979E+01  3.371747881E-07  0.00000E+00  9.000E+00
</event>
<event>
      5  10001  3.52971E+09  2.32624E+00 -1.00000E+00  3.34972E-01
      21    -1     0     0   513   514  0.000000000E+00  0.000000000E+00  1.567624938E+02  1.567624938E+02  0.000000000E+00  0.00000E+00  9.000E+00
      -2    -1     0     0     0   512  0.000000000E+00  0.000000000E+00 -1.151101965E+00  1.151101965E+00  0.000000000E+00  0.00000E+00  9.000E+00
      -2     1     1     2     0   514  8.899686505E+00 -9.698061071E+00  8.357382498E+01  8.460466849E+01  3.300000131E-01  0.00000E+00  9.000E+00
      21     1     1     2   515   512 -6.358566063E+00  6.730058036E+00  5.813784178E+01  5.887048234E+01  6.743495762E-07  0.00000E+00  9.000E+00
      21     1     1     2   513   515 -2.541120442E+00  2.968003035E+00  1.389972504E+01  1.443844491E+01  1.685873940E-07  0.00000E+00  9.000E+00
</event>
<event>
      5  10001  3.52971E+09  6.48531E+00 -1.00000E+00  2.20345E-01
      21    -1     0     0   512   515  0.000000000E+00  0.000000000E+00  1.297690212E+01  1.297690212E+01  0.000000000E+00  0.00000E+00  9.000E+00
      -4    -1     0     0     0   511  0.000000000E+00  0.000000000E+00 -6.548733672E+01  6.548733672E+01  0.000000000E+00  0.00000E+00  9.000E+00
      -4     1     1     2     0   515  1.216600599E+01 -9.908757520E-01 -6.092384686E+01  6.215270430E+01  1.500000000E+00  0.00000E+00  9.000E+00
      21     1     1     2   512   514 -8.051361384E+00  3.352698817E+00  3.270596087E+00  9.314601884E+00  2.731427965E-07  0.00000E+00  9.000E+00
      21     1     1     2   514   511 -4.114644602E+00 -2.361823065E+00  5.142816172E+00  6.996932655E+00  2.230201594E-07  0.00000E+00  9.000E+00
</event>
<event>
      5  10001  3.52971E+09  4.13254E+00 -1.00000E+00  2.60170E-01
      21    -1     0     0   513   512  0.000000000E+00  0.000000000E+00  1.708120758E+02  1.708120758E+02  0.000000000E+00  0.00000E+00  9.000E+00
      21    -1     0     0   515   516  0.000000000E+00  0.000000000E+00 -1.051004090E+02  1.051004090E+02  0.000000000E+00  0.00000E+00  9.000E+00
      21     1     1     2   513   516  1.342902507E+01  1.746621812E+00 -7.039124925E+01  7.168205754E+01  9.536743164E-07  0.00000E+00  9.000E+00
      21     1     1     2   515   511 -1.110867292E+01 -5.166248791E+00 -3.293612730E+01  3.514087680E+01  0.000000000E+00  0.00000E+00  9.000E+00
      21     1     1     2   511   512 -2.320352144E+00  3.419626979E+00  1.690390434E+02  1.690895504E+02  0.000000000E+00  0.00000E+00  9.000E+00
</event>
<event>
      5  10001  3.52971E+09  7.69145E+00 -1.00000E+00  2.09924E-01
       4    -1     0     0   513     0  0.000000000E+00  0.000000000E+00  3.160650204E+00  3.160650204E+00  0.000000000E+00  0.00000E+00  9.000E+00
      21    -1     0     0   514   513  0.000000000E+00  0.000000000E+00 -1.279850093E+03  1.279850093E+03  0.000000000E+00  0.00000E+00  9.000E+00
      21     1     1     2   514   515 -6.931007952E+00  1.354512803E+00 -1.039730253E+03  1.039754237E+03  0.000000000E+00  0.00000E+00  9.000E+00
       4     1     1     2   511     0  1.392274244E+01  3.036600609E+00 -1.363404982E+01  1.977880215E+01  1.500000000E+00  0.00000E+00  9.000E+00
      21     1     1     2   515   511 -6.991734487E+00 -4.391113412E+00 -2.233251397E+02  2.234777042E+02  2.697398305E-06  0.00000E+00  9.000E+00
</event>
<event>
      5  10001  3.52971E+09  5.91548E+00 -1.00000E+00  2.26427E-01
      21    -1     0     0   512   511  0.000000000E+00  0.000000000E+00  5.204343813E+00  5.204343813E+00  0.000000000E+00  0.00000E+00  9.000E+00
      21    -1     0     0   514   516  0.000000000E+00  0.000000000E+00 -6.331328364E+01  6.331328364E+01  0.000000000E+00  0.00000E+00  9.000E+00
      21     1     1     2   512   516 -2.019534861E-02  1.256558717E+01 -4.801314439E+00  1.345165452E+01  1.884864366E-07  0.00000E+00  9.000E+00
      21     1     1     2   514   513 -1.012315429E+00 -4.166521963E+00 -2.926803336E+01  2.958044058E+01  0.000000000E+00  0.00000E+00  9.000E+00
      21     1     1     2   513   511  1.032510778E+00 -8.399065211E+00 -2.403959203E+01  2.548553236E+01  4.768371582E-07  0.00000E+00  9.000E+00
</event>
<event>
      5  10001  3.52971E+09  6.31505E+00 -1.00000E+00  2.22069E-01
       1    -1     0     0   515     0  0.000000000E+00  0.000000000E+00  8.160216552E+02  8.160216552E+02  0.000000000E+00  0.00000E+00  9.000E+00
      21    -1     0     0   511   515  0.000000000E+00  0.000000000E+00 -1.295951152E+00  1.295951152E+00  0.000000000E+00  0.00000E+00  9.000E+00
      21     1     1     2   514   513 -6.674802594E-01 -1.401664297E+01  2.302962363E+02  2.307233587E+02  0.000000000E+00  0.00000E+00  9.000E+00
      21     1     1     2   511   514 -3.551131338E+00  9.317676473E+00  2.228427950E+01  2.441349507E+01  8.596304120E-07  0.00000E+00  9.000E+00
       1     1     1     2   513     0  4.218611597E+00  4.698966495E+00  5.621451882E+02  5.621807526E+02  3.300000131E-01  0.00000E+00  9.000E+00
</event>
<event>
      5  10001  3.52971E+09  7.65019E+00 -1.00000E+00  2.10237E-01
      -2    -1     0     0     0   511  0.000000000E+00  0.000000000E+00  2.119658463E+02  2.119658463E+02  0.000000000E+00  0.00000E+00  9.000E+00
      21    -1     0     0   516   512  0.000000000E+00  0.000000000E+00 -1.855887553E+01  1.855887553E+01  0.000000000E+00  0.00000E+00  9.000E+00
      21     1     1     2   516   517 -5.820861161E+00  5.978148194E+00 -1.647777557E+01  1.846991522E+01  5.331201500E-07  0.00000E+00  9.000E+00
      21     1     1     2   517   511  9.431241566E+00 -1.272273013E+01  6.263796746E+01  6.460906397E+01  9.536743164E-07  0.00000E+00  9.000E+00
      -2     1     1     2     0   512 -3.610380405E+00  6.744581940E+00  1.472467789E+02  1.474457426E+02  3.300000131E-01  0.00000E+00  9.000E+00
</event>
<event>
      5  10001  3.52971E+09  5.64104E+00 -1.00000E+00  2.29708E-01
      21    -1     0     0   513   512  0.000000000E+00  0.000000000E+00  7.553955623E+00  7.553955623E+00  0.000000000E+00  0.00000E+00  9.000E+00
      21    -1     0     0   515   514  0.000000000E+00  0.000000000E+00 -6.833461998E+01  6.833461998E+01  0.000000000E+00  0.00000E+00  9.000E+00
      21     1     1     2   513   514  4.710759530E+00  9.793136802E+00  2.587431021E+00  1.117101531E+01  2.327635788E-07  0.00000E+00  9.000E+00
       4     1     1     2   515     0  4.119389459E-01 -6.082352108E+00 -3.876452334E+01  3.926961892E+01  1.500000000E+00  0.00000E+00  9.000E+00
      -4     1     1     2     0   512 -5.122698476E+00 -3.710784694E+00 -2.460357204E+01  2.544794136E+01  1.500000000E+00  0.00000E+00  9.000E+00
</event>
<event>
      5  10001  3.52971E+09  1.40538E+01 -1.00000E+00  1.80088E-01
      21    -1     0     0   511   512  0.000000000E+00  0.000000000E+00  4.073422492E+01  4.073422492E+01  0.000000000E+00  0.00000E+00  9.000E+00
      21    -1     0     0   512   513  0.000000000E+00  0.000000000E+00 -1.203938127E+01  1.203938127E+01  0.000000000E+00  0.00000E+00  9.000E+00
      -5     1     1     2     0   514 -1.120087558E+01  6.087066626E+00  6.246573048E-01  1.363606221E+01  4.800000191E+00  0.00000E+00  9.000E+00
       5     1     1     2   511     0  8.635462333E+00 -8.826697046E-01  3.106339020E+01  3.260865726E+01  4.800000191E+00  0.00000E+00  9.000E+00
      21     1     1     2   514   513  2.565413250E+00 -5.204396921E+00 -2.993203856E+00  6.528886718E+00  1.115100797E-07  0.00000E+00  9.000E+00
</event>
<event>
      5  10001  3.52971E+09  6.61788E+00 -1.00000E+00  2.19052E-01
       3    -1     0     0   513     0  0.000000000E+00  0.000000000E+00  1.079962908E+02  1.079962908E+02  0.000000000E+00  0.00000E+00  9.000E+00
      -1    -1     0     0     0   511  0.000000000E+00  0.000000000E+00 -1.678578790E+02  1.678578790E+02  0.000000000E+00  0.00000E+00  9.000E+00
      -1     1     1     2     0   512 -7.108158473E+00 -5.886274757E+00 -1.379133219E+02  1.382221668E+02  3.300000131E-01  0.00000E+00  9.000E+00
       3     1     1     2   512     0  4.863834218E+00  1.211194240E+01  1.070724973E+02  1.078662399E+02  5.000000000E-01  0.00000E+00  9.000E+00
      21     1     1     2   513   511  2.244324256E+00 -6.225667642E+00 -2.902076357E+01  2.976576300E+01  3.371747881E-07  0.00000E+00  9.000E+00
</event>
<event>
      5  10001  3.52971E+09  8.40176E+00 -1.00000E+00  2.04921E-01
       2    -1     0     0   514     0  0.000000000E+00  0.000000000E+00  8.225097326E+02  8.225097326E+02  0.000000000E+00  0.00000E+00  9.000E+00
      21    -1     0     0   512   511  0.000000000E+00  0.000000000E+00 -1.411970455E+00  1.411970455E+00  0.000000000E+00  0.00000E+00  9.000E+00
      21     1     1     2   512   513 -1.119765032E+01 -8.732752335E+00  3.864080414E+01  4.116746385E+01  6.743495762E-07  0.00000E+00  9.000E+00
       2     1     1     2   513     0  3.704708952E+00  4.932580570E+00  6.508842825E+02  6.509135990E+02  3.300000131E-01  0.00000E+00  9.000E+00
      21     1     1     2   514   511  7.492941364E+00  3.800171765E+00  1.315726754E+02  1.318406402E+02  1.907348633E-06  0.00000E+00  9.000E+00
</event>
<event>
      5  10001  3.52971E+09  4.64170E+00 -1.00000E+00  2.49111E-01
      21    -1     0     0   515   511  0.000000000E+00  0.000000000E+00  1.101570017E+00  1.101570017E+00  0.000000000E+00  0.00000E+00  9.000E+00
       2    -1     0     0   512     0  0.000000000E+00  0.000000000E+00 -2.572862838E+02  2.572862838E+02  0.000000000E+00  0.00000E+00  9.000E+00
      21     1     1     2   515   516  1.275937397E+01 -4.397817462E+00 -7.978893343E+01  8.092228568E+01  2.132480600E-06  0.00000E+00  9.000E+00
      21     1     1     2   512   511 -1.317424858E+01 -2.241504550E-01 -9.166279884E+01  9.260496618E+01  1.348699152E-06  0.00000E+00  9.000E+00
       2     1     1     2   516     0  4.148746087E-01  4.621967917E+00 -8.473298155E+01  8.486060200E+01  3.300000131E-01  0.00000E+00  9.000E+00
</event>
<event>
      5  10001  3.52971E+09  1.51251E+01 -1.00000E+00  1.77041E-01
      21    -1     0     0   513   511  0.000000000E+00  0.000000000E+00  7.650060336E+01  7.650060336E+01  0.000000000E+00  0.00000E+00  9.000E+00
       2    -1     0     0   512     0  0.000000000E+00  0.000000000E+00 -4.785245310E+00  4.785245310E+00  0.000000000E+00  0.00000E+00  9.000E+00
      21     1     1     2   512   511 -6.493882551E+00  9.081322285E+00  5.582100021E+01  5.692648759E+01  0.000000000E+00  0.00000E+00  9.000E+00
      21     1     1     2   513   514 -2.346354010E+00 -2.274709724E+00 -1.575643774E+00  3.627993215E+00  1.460009660E-07  0.00000E+00  9.000E+00
       2     1     1     2   514     0  8.840236561E+00 -6.806612561E+00  1.747000161E+01  2.073136786E+01  3.300000131E-01  0.00000E+00  9.000E+00
</event>
<event>
      5  10001  3.52971E+09  3.94700E+00 -1.00000E+00  2.64834E-01
      21    -1     0     0   515   511  0.000000000E+00  0.000000000E+00  1.988705483E+00  1.988705483E+00  0.000000000E+00  0.00000E+00  9.000E+00
      21    -1     0     0   516   515  0.000000000E+00  0.000000000E+00 -1.835576171E+02  1.835576171E+02  0.000000000E+00  0.00000E+00  9.000E+00
      21     1     1     2   516   512  5.255563681E-02  1.175208255E+01 -1.611298185E+02  1.615578306E+02  0.000000000E+00  0.00000E+00  9.000E+00
      21     1     1     2   512   513 -2.129997905E+00 -6.073775545E+00 -9.229496549E+00  1.125216632E+01  3.371747881E-07  0.00000E+00  9.000E+00
      21     1     1     2   513   511  2.077442268E+00 -5.678307006E+00 -1.120959651E+01  1.273632564E+01  3.153981341E-07  0.00000E+00  9.000E+00
</event>
<event>
      5  10001  3.52971E+09  4.10348E+00 -1.00000E+00  2.60875E-01
      21    -1     0     0   514   512  0.000000000E+00  0.000000000E+00  2.711789623E+00  2.711789623E+00  0.000000000E+00  0.00000E+00  9.000E+00
      21    -1     0     0   515   511  0.000000000E+00  0.000000000E+00 -1.243414065E+02  1.243414065E+02  0.000000000E+00  0.00000E+00  9.000E+00
      21     1     1     2   514   511 -4.649995584E+00 -8.929962880E+00 -1.926199891E+01  2.173456459E+01  2.384185791E-07  0.00000E+00  9.000E+00
      21     1     1     2   516   512  8.524483291E+00  7.578329645E+00 -2.142418117E+01  2.427124707E+01  3.371747881E-07  0.00000E+00  9.000E+00
      21     1     1     2   515   516 -3.874487707E+00  1.351633235E+00 -8.094343680E+01  8.104738447E+01  9.536743164E-07  0.00000E+00  9.000E+00
</event>
<event>
      5  10001  3.52971E+09  3.82973E+00 -1.00000E+00  2.67994E-01
       2    -1     0     0   511     0  0.000000000E+00  0.000000000E+00  3.602342967E+02  3.602342967E+02  0.000000000E+00  0.00000E+00  9.000E+00
      21    -1     0     0   516   512  0.000000000E+00  0.000000000E+00 -1.295490738E+00  1.295490738E+00  0.000000000E+00  0.00000E+00  9.000E+00
      21     1     1     2   516   513  7.898520759E-01 -1.210048342E+01  3.400872563E+01  3.610594112E+01  8.259061849E-07  0.00000E+00  9.000E+00
       2     1     1     2   513     0 -3.608113269E+00  9.507737310E+00  3.023637005E+02  3.025348440E+02  3.300000131E-01  0.00000E+00  9.000E+00
      21     1     1     2   511   512  2.818261193E+00  2.592746114E+00  2.256637981E+01  2.288900230E+01  2.384185791E-07  0.00000E+00  9.000E+00
</event>
<event>
      5  10001  3.52971E+09  1.78951E+00 -1.00000E+00  3.87203E-01
      21    -1     0     0   514   512  0.000000000E+00  0.000000000E+00  6.213201390E+00  6.213201390E+00  0.000000000E+00  0.00000E+00  9.000E+00
      21    -1     0     0   516   515  0.000000000E+00  0.000000000E+00 -6.669465854E+01  6.669465854E+01  0.000000000E+00  0.00000E+00  9.000E+00
      21     1     1     2   514   515  1.210041836E+01  2.503853816E+00 -5.816998950E+01  5.946795008E+01  6.743495762E-07  0.00000E+00  9.000E+00
      21     1     1     2   516   513 -9.951753168E+00 -1.364131958E+00  5.704702608E-02  1.004497394E+01  5.482113078E-07  0.00000E+00  9.000E+00
      21     1     1     2   513   512 -2.148665193E+00 -1.139721858E+00 -2.368514671E+00  3.394935902E+00  0.000000000E+00  0.00000E+00  9.000E+00
</event>
<event>
      5  10001  3.52971E+09  1.93499E+01 -1.00000E+00  1.67559E-01
      21    -1     0     0   511   512  0.000000000E+00  0.000000000E+00  1.948896856E+01  1.948896856E+01  0.000000000E+00  0.00000E+00  9.000E+00
      -3    -1     0     0     0   511  0.000000000E+00  0.000000000E+00 -4.086062574E+01  4.086062574E+01  0.000000000E+00  0.00000E+00  9.000E+00
      -3     1     1     2     0   513 -1.346318087E+01  1.102135023E+01 -3.267210701E+01  3.701950806E+01  5.000000000E-01  0.00000E+00  9.000E+00
      21     1     1     2   513   514  6.168031550E+00 -2.461716372E+00 -9.400313956E-01  6.707333279E+00  2.107342426E-08  0.00000E+00  9.000E+00
      21     1     1     2   514   512  7.295149316E+00 -8.559633861E+00  1.224048123E+01  1.662275297E+01  3.769728732E-07  0.00000E+00  9.000E+00
</event>
<event>
      5  10001  3.52971E+09  4.25075E+00 -1.00000E+00  2.57392E-01
       1    -1     0     0   511     0  0.000000000E+00  0.000000000E+00  6.563942323E+01  6.563942323E+01  0.000000000E+00  0.00000E+00  9.000E+00
       3    -1     0     0   514     0  0.000000000E+00  0.000000000E+00 -1.779958907E+00  1.779958907E+00  0.000000000E+00  0.00000E+00  9.000E+00
       1     1     1     2   513     0 -1.656169350E+00 -5.721234981E+00  1.715364769E+01  1.816127627E+01  3.300000131E-01  0.00000E+00  9.000E+00
       3     1     1     2   511     0  8.095422864E-01  9.633779451E+00  4.189842428E+01  4.300224439E+01  5.000000000E-01  0.00000E+00  9.000E+00
      21     1     1     2   514   513  8.466270635E-01 -3.912544470E+00  4.807392350E+00  6.255861477E+00  1.788139343E-07  0.00000E+00  9.000E+00
</event>
<event>
      5  10001  3.52971E+09  5.21988E+00 -1.00000E+00  2.35289E-01
      21    -1     0     0   511   515  0.000000000E+00  0.000000000E+00  6.750421306E+02  6.750421306E+02  0.000000000E+00  0.00000E+00  9.000E+00
      21    -1     0     0   514   513  0.000000000E+00  0.000000000E+00 -5.188221343E+00  5.188221343E+00  0.000000000E+00  0.00000E+00  9.000E+00
      21     1     1     2   512   513  1.367168229E+00  8.257454577E+00 -1.491506768E+00  8.501723208E+00  8.948144195E-07  0.00000E+00  9.000E+00
      21     1     1     2   514   515  7.310268676E-01 -1.303706629E+01  2.423871289E+02  2.427385831E+02  0.000000000E+00  0.00000E+00  9.000E+00
      21     1     1     2   511   512 -2.098195097E+00  4.779611713E+00  4.289582871E+02  4.289900456E+02  0.000000000E+00  0.00000E+00  9.000E+00
</event>
<event>
      5  10001  3.52971E+09  5.53879E+00 -1.00000E+00  2.30999E-01
       2    -1     0     0   512     0  0.000000000E+00  0.000000000E+00  1.540860459E+03  1.540860459E+03  0.000000000E+00  0.00000E+00  9.000E+00
       3    -1     0     0   516     0  0.000000000E+00  0.000000000E+00 -1.030280526E+01  1.030280526E+01  0.000000000E+00  0.00000E+00  9.000E+00
      21     1     1     2   516   511  1.322379751E+01  8.367847229E+00  4.164104042E+02  4.167043489E+02  1.206313194E-05  0.00000E+00  9.000E+00
       2     1     1     2   511     0 -1.540991833E+01 -3.278770839E+00  1.123482331E+03  1.123592842E+03  3.300000131E-01  0.00000E+00  9.000E+00
       3     1     1     2   512     0  2.186120820E+00 -5.089076391E+00 -9.335081396E+00  1.086607415E+01  5.000000000E-01  0.00000E+00  9.000E+00
</event>
<event>
      5  10001  3.52971E+09  5.73012E+00 -1.00000E+00  2.28615E-01
      21    -1     0     0   513   511  0.000000000E+00  0.000000000E+00  1.411752526E+02  1.411752526E+02  0.000000000E+00  0.00000E+00  9.000E+00
      21    -1     0     0   515   514  0.000000000E+00  0.000000000E+00 -4.833351359E+00  4.833351359E+00  0.000000000E+00  0.00000E+00  9.000E+00
      21     1     1     2   513   514 -4.000193847E+00  9.331529625E+00  1.237118451E+02  1.241277552E+02  1.907348633E-06  0.00000E+00  9.000E+00
      21     1     1     2   516   511  2.207577832E+00 -6.538960062E+00 -1.752380800E+00  7.120550332E+00  3.613339559E-07  0.00000E+00  9.000E+00
      21     1     1     2   515   516  1.792616016E+00 -2.792569564E+00  1.438243696E+01  1.476029844E+01  1.685873940E-07  0.00000E+00  9.000E+00
</event>
<event>
      5  10001  3.52971E+09  5.97075E+00 -1.00000E+00  2.25796E-01
      -1    -1     0     0     0   511  0.000000000E+00  0.000000000E+00  3.952551835E+02  3.952551835E+02  0.000000000E+00  0.00000E+00  9.000E+00
       2    -1     0     0   511     0  0.000000000E+00  0.000000000E+00 -4.239380418E+02  4.239380418E+02  0.000000000E+00  0.00000E+00  9.000E+00
      21     1     1     2   515   512 -1.149781032E+01 -4.640961784E+00  7.971042744E+00  1.474027445E+01  1.130918620E-06  0.00000E+00  9.000E+00
       2     1     1     2   512     0  7.316428644E+00  8.903101263E+00 -4.204511248E+02  4.206091446E+02  3.300000131E-01  0.00000E+00  9.000E+00
      -1     1     1     2     0   515  4.181381675E+00 -4.262139479E+00  3.837972237E+02  3.838438062E+02  3.300000131E-01  0.00000E+00  9.000E+00
</event>
<event>
      5  10001  3.52971E+09  8.43956E+00 -1.00000E+00  2.04674E-01
      21    -1     0     0   513   512  0.000000000E+00  0.000000000E+00  2.710649144E+01  2.710649144E+01  0.000000000E+00  0.00000E+00  9.000E+00
      21    -1     0     0   511   513  0.000000000E+00  0.000000000E+00 -2.250942621E+02  2.250942621E+02  0.000000000E+00  0.00000E+00  9.000E+00
      21     1     1     2   511   514  4.598281090E+00 -1.130635399E+01 -2.198912054E+02  2.202296984E+02  2.697398305E-06  0.00000E+00  9.000E+00
      21     1     1     2   516   512 -1.770512781E+00  3.373675495E+00  2.314668473E+01  2.345816310E+01  5.840038640E-07  0.00000E+00  9.000E+00
      21     1     1     2   514   516 -2.827768309E+00  7.932678500E+00 -1.243250055E+00  8.512892134E+00  1.931411236E-07  0.00000E+00  9.000E+00
</event>
<event>
      5  10001  3.52971E+09  3.20581E+00 -1.00000E+00  2.88379E-01
      -1    -1     0     0     0   515  0.000000000E+00  0.000000000E+00  3.911411323E+02  3.911411323E+02  0.000000000E+00  0.00000E+00  9.000E+00
      21    -1     0     0   512   513  0.000000000E+00  0.000000000E+00 -8.088577369E-01  8.088577369E-01  0.000000000E+00  0.00000E+00  9.000E+00
      21     1     1     2   511   513 -1.257925759E+01  9.914154928E-01  2.242131643E+02  2.245679489E+02  0.000000000E+00  0.00000E+00  9.000E+00
      21     1     1     2   512   515  1.418386328E+01  4.102523381E-01  8.085586495E+01  8.209154147E+01  1.907348633E-06  0.00000E+00  9.000E+00
      -1     1     1     2     0   511 -1.604605689E+00 -1.401667831E+00  8.526324534E+01  8.529049970E+01  3.300000131E-01  0.00000E+00  9.000E+00
</event>
<event>
      5  10001  3.52971E+09  9.33281E+00 -1.00000E+00  1.99284E-01
      21    -1     0     0   514   513  0.000000000E+00  0.000000000E+00  4.905836803E+01  4.905836803E+01  0.000000000E+00  0.00000E+00  9.000E+00
      21    -1     0     0   516   514  0.000000000E+00  0.000000000E+00 -1.284828309E+02  1.284828309E+02  0.000000000E+00  0.00000E+00  9.000E+00
      21     1     1     2   512   511  8.418887561E+00  8.608655770E+00 -2.649428887E+01  2.910212990E+01  3.371747881E-07  0.00000E+00  9.000E+00
      21     1     1     2   516   512 -1.500080753E+01 -1.992040382E+00 -9.965190950E+01  1.007943228E+02  1.907348633E-06  0.00000E+00  9.000E+00
      21     1     1     2   511   513  6.581919964E+00 -6.616615389E+00  4.672173550E+01  4.764474617E+01  6.743495762E-07  0.00000E+00  9.000E+00
</event>
<event>
      5  10001  3.52971E+09  4.91595E+00 -1.00000E+00  2.44005E-01
      21    -1     0     0   515   511  0.000000000E+00  0.000000000E+00  4.851308085E+01  4.851308085E+01  0.000000000E+00  0.00000E+00  9.000E+00
      21    -1     0     0   513   515  0.000000000E+00  0.000000000E+00 -2.879645545E+00  2.879645545E+00  0.000000000E+00  0.00000E+00  9.000E+00
      21     1     1     2   513   517  2.018267487E+00  1.022938011E+01  1.218090250E+01  1.603396417E+01  1.685873940E-07  0.00000E+00  9.000E+00
      21     1     1     2   517   512 -3.295434092E+00 -4.508010887E+00  1.571690055E+01  1.667941878E+01  2.920019320E-07  0.00000E+00  9.000E+00
      21     1     1     2   512   511  1.277166605E+00 -5.721369220E+00  1.773563225E+01  1.867934345E+01  2.384185791E-07  0.00000E+00  9.000E+00
</event>
<event>
      5  10001  3.52971E+09  1.77989E+01 -1.00000E+00  1.70655E-01
      -1    -1     0     0     0   511  0.000000000E+00  0.000000000E+00  4.987761924E+02  4.987761924E+02  0.000000000E+00  0.00000E+00  9.000E+00
      21    -1     0     0   512   514  0.000000000E+00  0.000000000E+00 -1.371230564E+00  1.371230564E+00  0.000000000E+00  0.00000E+00  9.000E+00
      -1     1     1     2     0   513 -4.439628942E+00  6.139741090E+00  4.403418815E+02  4.404071846E+02  3.300000131E-01  0.00000E+00  9.000E+00
      21     1     1     2   512   511  9.534749182E+00 -6.197286392E-01  2.394699031E+01  2.578282084E+01  4.768371582E-07  0.00000E+00  9.000E+00
      21     1     1     2   513   514 -5.095120241E+00 -5.520012451E+00  3.311609001E+01  3.395741753E+01  6.743495762E-07  0.00000E+00  9.000E+00
</event>
<event>
      5  10001  3.52971E+09  5.25004E+00 -1.00000E+00  2.34865E-01
       2    -1     0     0   511     0  0.000000000E+00  0.000000000E+00  1.613402129E+03  1.613402129E+03  0.000000000E+00  0.00000E+00  9.000E+00
      21    -1     0     0   513   514  0.000000000E+00  0.000000000E+00 -1.643180489E+00  1.643180489E+00  0.000000000E+00  0.00000E+00  9.000E+00
      21     1     1     2   513   515 -5.803895107E+00  9.450124601E+00  1.808935651E+01  2.121826742E+01  1.118282261E-06  0.00000E+00  9.000E+00
       2     1     1     2   515     0  1.065060714E+01 -1.146797448E+01  1.395914166E+03  1.396001941E+03  3.300000131E-01  0.00000E+00  9.000E+00
      21     1     1     2   511   514 -4.846712031E+00  2.017849875E+00  1.977554256E+02  1.978251013E+02  2.697398305E-06  0.00000E+00  9.000E+00
</event>
<event>
      5  10001  3.52971E+09  8.24971E+00 -1.00000E+00  2.05935E-01
      21    -1     0     0   512   513  0.000000000E+00  0.000000000E+00  2.502067793E+01  2.502067793E+01  0.000000000E+00  0.00000E+00  9.000E+00
      21    -1     0     0   516   512  0.000000000E+00  0.000000000E+00 -2.058705769E+01  2.058705769E+01  0.000000000E+00  0.00000E+00  9.000E+00
      21     1     1     2   514   513  1.757726361E+00  1.205763365E+01  2.009587405E+01  2.350149538E+01  4.768371582E-07  0.00000E+00  9.000E+00
      -2     1     1     2     0   514 -1.582655625E+00 -3.242013520E+00 -1.203118901E+01  1.256478649E+01  3.300000131E-01  0.00000E+00  9.000E+00
       2     1     1     2   516     0 -1.750707356E-01 -8.815620133E+00 -3.631064792E+00  9.541453748E+00  3.300000131E-01  0.00000E+00  9.000E+00
</event>
<event>
      5  10001  3.52971E+09  8.31461E+00 -1.00000E+00  2.05499E-01
       3    -1     0     0   512     0  0.000000000E+00  0.000000000E+00  2.147902761E+02  2.147902761E+02  0.000000000E+00  0.00000E+00  9.000E+00
      21    -1     0     0   515   512  0.000000000E+00  0.000000000E+00 -5.879285671E-01  5.879285671E-01  0.000000000E+00  0.00000E+00  9.000E+00
      21     1     1     2   515   511 -7.104783014E+00 -5.131778550E+00  5.487865638E+01  5.557409485E+01  0.000000000E+00  0.00000E+00  9.000E+00
      21     1     1     2   511   513  6.248367193E+00  2.109983874E+00  4.986535897E+01  5.029958400E+01  6.743495762E-07  0.00000E+00  9.000E+00
       3     1     1     2   513     0  8.564158205E-01  3.021794677E+00  1.094583322E+02  1.095045258E+02  5.000000000E-01  0.00000E+00  9.000E+00
</event>
<event>
      5  10001  3.52971E+09  8.71410E+00 -1.00000E+00  2.02926E-01
       2    -1     0     0   512     0  0.000000000E+00  0.000000000E+00  1.780189952E+02  1.780189952E+02  0.000000000E+00  0.00000E+00  9.000E+00
      21    -1     0     0   511   512  0.000000000E+00  0.000000000E+00 -4.910108601E+00  4.910108601E+00  0.000000000E+00  0.00000E+00  9.000E+00
      21     1     1     2   511   513  1.204356851E+01  1.246527188E+00  3.532993115E+00  1.261282731E+01  4.214684851E-07  0.00000E+00  9.000E+00
       2     1     1     2   514     0 -2.997345367E+00 -3.046482342E+00  1.047314136E+02  1.048190967E+02  3.300000131E-01  0.00000E+00  9.000E+00
      21     1     1     2   513   514 -9.046223141E+00  1.799955154E+00  6.484447993E+01  6.549717985E+01  9.536743164E-07  0.00000E+00  9.000E+00
</event>
<event>
      5  10001  3.52971E+09  1.37690E+01 -1.00000E+00  1.80956E-01
      21    -1     0     0   515   511  0.000000000E+00  0.000000000E+00  1.010460640E+02  1.010460640E+02  0.000000000E+00  0.00000E+00  9.000E+00
      21    -1     0     0   516   515  0.000000000E+00  0.000000000E+00 -2.362152151E+00  2.362152151E+00  0.000000000E+00  0.00000E+00  9.000E+00
      21     1     1     2   514   511  6.039162311E+00  3.276600048E+00  5.661230457E+01  5.702771798E+01  0.000000000E+00  0.00000E+00  9.000E+00
      21     1     1     2   512   514 -2.099161595E+00 -4.662857397E-01 -1.448137561E+00  2.592489959E+00  1.349357536E-07  0.00000E+00  9.000E+00
      21     1     1     2   516   512 -3.940000715E+00 -2.810314309E+00  4.351974481E+01  4.378800819E+01  6.743495762E-07  0.00000E+00  9.000E+00
</event>
<event>
      5  10001  3.52971E+09  1.00335E+01 -1.00000E+00  1.95585E-01
      21    -1     0     0   513   512  0.000000000E+00  0.000000000E+00  4.694027793E+00  4.694027793E+00  0.000000000E+00  0.00000E+00  9.000E+00
      21    -1     0     0   511   517  0.000000000E+00  0.000000000E+00 -4.078828263E+01  4.078828263E+01  0.000000000E+00  0.00000E+00  9.000E+00
      21     1     1     2   513   517  2.213480216E+00 -9.686468392E+00 -3.052838153E+01  3.210466078E+01  3.371747881E-07  0.00000E+00  9.000E+00
      21     1     1     2   514   512  2.043453998E+00  4.200627700E+00 -4.239624116E+00  6.308358738E+00  5.960464478E-08  0.00000E+00  9.000E+00
      21     1     1     2   511   514 -4.256934215E+00  5.485840692E+00 -1.326249186E+00  7.069290906E+00  8.560065398E-08  0.00000E+00  9.000E+00
</event>
<event>
      5  10001  3.52971E+09  8.26534E+00 -1.00000E+00  2.05830E-01
      21    -1     0     0   515   514  0.000000000E+00  0.000000000E+00  2.853761132E+01  2.853761132E+01  0.000000000E+00  0.00000E+00  9.000E+00
      21    -1     0     0   511   516  0.000000000E+00  0.000000000E+00 -1.111861153E+01  1.111861153E+01  0.000000000E+00  0.00000E+00  9.000E+00
      21     1     1     2   515   516  4.717991414E+00 -8.958465065E+00 -6.202700872E+00  1.187379625E+01  1.460009660E-07  0.00000E+00  9.000E+00
      21     1     1     2   511   512 -1.468637893E+00  1.017267417E+01  1.278543237E+01  1.640449566E+01  1.685873940E-07  0.00000E+00  9.000E+00
      21     1     1     2   512   514 -3.249353521E+00 -1.214209102E+00  1.083626829E+01  1.137793095E+01  2.064765462E-07  0.00000E+00  9.000E+00
</event>
<event>
      5  10001  3.52971E+09  5.07317E+00 -1.00000E+00  2.37412E-01
      21    -1     0     0   513   511  0.000000000E+00  0.000000000E+00  6.761287565E+01  6.761287565E+01  0.000000000E+00  0.00000E+00  9.000E+00
      21    -1     0     0   514   513  0.000000000E+00  0.000000000E+00 -5.609706077E+00  5.609706077E+00  0.000000000E+00  0.00000E+00  9.000E+00
      21     1     1     2   514   517 -1.052848257E+01 -8.042951170E+00  4.784905436E+00  1.408663653E+01  5.960464478E-08  0.00000E+00  9.000E+00
      21     1     1     2   515   511  9.745617753E+00  4.705690898E+00  3.441522606E+01  3.607670130E+01  0.000000000E+00  0.00000E+00  9.000E+00
      21     1     1     2   517   515  7.828648134E-01  3.337260272E+00  2.280303808E+01  2.305924390E+01  3.371747881E-07  0.00000E+00  9.000E+00
</event>
<event>
      5  10001  3.52971E+09  6.07806E+00 -1.00000E+00  2.24597E-01
      -1    -1     0     0     0   513  0.000000000E+00  0.000000000E+00  1.504088868E+01  1.504088868E+01  0.000000000E+00  0.00000E+00  9.000E+00
       1    -1     0     0   511     0  0.000000000E+00  0.000000000E+00 -7.844365247E+02  7.844365247E+02  0.000000000E+00  0.00000E+00  9.000E+00
      -1     1     1     2     0   512  9.190418384E+00 -1.098944770E+01 -4.882978149E+00  1.513882844E+01  3.300000131E-01  0.00000E+00  9.000E+00
       1     1     1     2   512     0 -3.124656341E+00  1.137497960E+01 -7.734446993E+02  7.735347215E+02  3.300000131E-01  0.00000E+00  9.000E+00
      21     1     1     2   511   513 -6.065762043E+00 -3.855319054E-01  8.932041344E+00  1.080386350E+01  7.444617746E-07  0.00000E+00  9.000E+00
</event>
<event>
      5  10001  3.52971E+09  4.39147E+00 -1.00000E+00  2.54260E-01
      -2    -1     0     0     0   513  0.000000000E+00  0.000000000E+00  1.957725700E+02  1.957725700E+02  0.000000000E+00  0.00000E+00  9.000E+00
      21    -1     0     0   512   515  0.000000000E+00  0.000000000E+00 -2.164214677E+00  2.164214677E+00  0.000000000E+00  0.00000E+00  9.000E+00
      -2     1     1     2     0   515 -8.799924726E+00  8.916450655E+00  1.663431354E+02  1.668145359E+02  3.300000131E-01  0.00000E+00  9.000E+00
      21     1     1     2   514   513  6.808420514E+00 -5.002846829E+00  2.454107899E+01  2.595472258E+01  8.259061849E-07  0.00000E+00  9.000E+00
      21     1     1     2   512   514  1.991504212E+00 -3.913603826E+00  2.724140932E+00  5.167526270E+00  2.648888355E-07  0.00000E+00  9.000E+00
</event>
<event>
      5  10001  3.52971E+09  7.18259E+00 -1.00000E+00  2.13980E-01
      21    -1     0     0   511   514  0.000000000E+00  0.000000000E+00  1.600287656E+01  1.600287656E+01  0.000000000E+00  0.00000E+00  9.000E+00
      21    -1     0     0   512   516  0.000000000E+00  0.000000000E+00 -2.064916046E+01  2.064916046E+01  0.000000000E+00  0.00000E+00  9.000E+00
      21     1     1     2   511   516  6.127108948E+00  1.402762691E+01 -1.075507153E+01  1.870794869E+01  3.371747881E-07  0.00000E+00  9.000E+00
      21     1     1     2   512   513 -4.104145869E+00 -8.298608094E+00 -9.804343637E-02  9.258537796E+00  1.511786420E-07  0.00000E+00  9.000E+00
      21     1     1     2   513   514 -2.022963080E+00 -5.729018812E+00  6.206831062E+00  8.685550530E+00  1.192092896E-07  0.00000E+00  9.000E+00
</event>
<event>
      5  10001  3.52971E+09  1.36665E+01 -1.00000E+00  1.81275E-01
       1    -1     0     0   512     0  0.000000000E+00  0.000000000E+00  8.043057266E+00  8.043057266E+00  0.000000000E+00  0.00000E+00  9.000E+00
      21    -1     0     0   513   515  0.000000000E+00  0.000000000E+00 -8.178432645E+01  8.178432645E+01  0.000000000E+00  0.00000E+00  9.000E+00
      21     1     1     2   512   515 -1.492527866E+01  1.453742938E+00 -3.679171128E+00  1.544064804E+01  4.616955931E-07  0.00000E+00  9.000E+00
      21     1     1     2   513   511  1.118011813E+01  7.155857447E+00 -5.543782077E+01  5.700485338E+01  6.743495762E-07  0.00000E+00  9.000E+00
       1     1     1     2   511     0  3.745160527E+00 -8.609600385E+00 -1.462427728E+01  1.738188230E+01  3.300000131E-01  0.00000E+00  9.000E+00
</event>
<event>
      5  10001 -3.52971E+09  6.03739E+00 -1.00000E+00  2.25047E-01
      21    -1     0     0   514   511  0.000000000E+00  0.000000000E+00  1.226076737E+02  1.226076737E+02  0.000000000E+00  0.00000E+00  9.000E+00
      21    -1     0     0   516   512  0.000000000E+00  0.000000000E+00 -1.136626762E+02  1.136626762E+02  0.000000000E+00  0.00000E+00  9.000E+00
      21     1     1     2   513   511 -2.689547218E+00 -1.198446652E+01  1.217776968E+02  1.223955414E+02  1.348699152E-06  0.00000E+00  9.000E+00
      21     1     1     2   516   513  6.127160636E+00  7.021309631E+00 -7.084974933E+01  7.145997388E+01  2.523185073E-06  0.00000E+00  9.000E+00
      21     1     1     2   514   512 -3.437613418E+00  4.963156891E+00 -4.198294999E+01  4.241483469E+01  4.768371582E-07  0.00000E+00  9.000E+00
</event>
<event>
      5  10001  3.52971E+09  2.19859E+01 -1.00000E+00  1.63044E-01
      21    -1     0     0   513   515  0.000000000E+00  0.000000000E+00  4.999060841E+00  4.999060841E+00  0.000000000E+00  0.00000E+00  9.000E+00
      -1    -1     0     0     0   512  0.000000000E+00  0.000000000E+00 -1.760169681E+02  1.760169681E+02  0.000000000E+00  0.00000E+00  9.000E+00
      -1     1     1     2     0   511  1.080855366E+01 -1.928521313E+01 -3.521219707E+01  4.157826355E+01  3.300000131E-01  0.00000E+00  9.000E+00
      21     1     1     2   513   512 -1.276399696E+00  1.269487659E+01 -1.142873919E+02  1.149973784E+02  1.348699152E-06  0.00000E+00  9.000E+00
      21     1     1     2   511   515 -9.532153968E+00  6.590336538E+00 -2.151831829E+01  2.444038701E+01  5.840038640E-07  0.00000E+00  9.000E+00
</event>
<event>
      5  10001  3.52971E+09  5.49745E+00 -1.00000E+00  2.31532E-01
       2    -1     0     0   512     0  0.000000000E+00  0.000000000E+00  1.138576196E+03  1.138576196E+03  0.000000000E+00  0.00000E+00  9.000E+00
      21    -1     0     0   511   513  0.000000000E+00  0.000000000E+00 -2.693308887E+01  2.693308887E+01  0.000000000E+00  0.00000E+00  9.000E+00
      21     1     1     2   511   514 -1.569810845E+00 -1.037706459E+01  3.666311625E+02  3.667813478E+02  1.078959322E-05  0.00000E+00  9.000E+00
       2     1     1     2   514     0  6.706133047E+00  8.417465587E+00  7.715506722E+02  7.716257997E+02  3.300000131E-01  0.00000E+00  9.000E+00
      21     1     1     2   512   513 -5.136322202E+00  1.959598998E+00 -2.653872720E+01  2.710213784E+01  1.507891493E-06  0.00000E+00  9.000E+00
</event>
<event>
      5  10001  3.52971E+09  2.57389E+01 -1.00000E+00  1.57806E-01
      21    -1     0     0   515   513  0.000000000E+00  0.000000000E+00  1.839210656E+01  1.839210656E+01  0.000000000E+00  0.00000E+00  9.000E+00
      21    -1     0     0   511   516  0.000000000E+00  0.000000000E+00 -7.116871222E+01  7.116871222E+01  0.000000000E+00  0.00000E+00  9.000E+00
      21     1     1     2   515   516  1.023122276E+01 -2.965456626E+01 -2.419703884E+01  3.961777263E+01  4.768371582E-07  0.00000E+00  9.000E+00
      21     1     1     2   514   513  3.816654363E+00  1.823310132E+01 -3.409377339E+00  1.893770546E+01  6.391886052E-07  0.00000E+00  9.000E+00
      21     1     1     2   511   514 -1.404787712E+01  1.142146494E+01 -2.517018948E+01  3.100534070E+01  8.920806376E-07  0.00000E+00  9.000E+00
</event>
<event>
      5  10001  3.52971E+09  8.46866E+00 -1.00000E+00  2.04484E-01
      21    -1     0     0   512   513  0.000000000E+00  0.000000000E+00  3.465395198E+01  3.465395198E+01  0.000000000E+00  0.00000E+00  9.000E+00
      21    -1     0     0   511   512  0.000000000E+00  0.000000000E+00 -4.474529902E+01  4.474529902E+01  0.000000000E+00  0.00000E+00  9.000E+00
      21     1     1     2   514   513  1.043527646E+01 -1.309118992E+01  3.022626243E+01  3.455287526E+01  4.768371582E-07  0.00000E+00  9.000E+00
      21     1     1     2   515   514 -1.081016281E+01  5.757534766E+00 -2.366544856E+01  2.664699386E+01  4.768371582E-07  0.00000E+00  9.000E+00
      21     1     1     2   511   515  3.748863549E-01  7.333655154E+00 -1.665216091E+01  1.819938187E+01  3.371747881E-07  0.00000E+00  9.000E+00
</event>
<event>
      5  10001  3.52971E+09  3.90306E+00 -1.00000E+00  2.65997E-01
      21    -1     0     0   516   513  0.000000000E+00  0.000000000E+00  1.795205151E+02  1.795205151E+02  0.000000000E+00  0.00000E+00  9.000E+00
      21    -1     0     0   511   516  0.000000000E+00  0.000000000E+00 -6.518588074E+00  6.518588074E+00  0.000000000E+00  0.00000E+00  9.000E+00
      21     1     1     2   511   517  4.854043290E+00 -9.954637374E+00 -1.089247116E+00  1.112847702E+01  1.639127731E-07  0.00000E+00  9.000E+00
      21     1     1     2   512   513 -2.173103144E+00  1.111592752E+01  1.643731285E+02  1.647628951E+02  2.697398305E-06  0.00000E+00  9.000E+00
      21     1     1     2   517   512 -2.680940146E+00 -1.161290146E+00  9.718045645E+00  1.014773108E+01  1.685873940E-07  0.00000E+00  9.000E+00
</event>
<event>
      5  10001  3.52971E+09  5.53315E+00 -1.00000E+00  2.31071E-01
      21    -1     0     0   514   511  0.000000000E+00  0.000000000E+00  1.080013476E+02  1.080013476E+02  0.000000000E+00  0.00000E+00  9.000E+00
      21    -1     0     0   515   514  0.000000000E+00  0.000000000E+00 -2.434357900E+00  2.434357900E+00  0.000000000E+00  0.00000E+00  9.000E+00
      21     1     1     2   512   511 -1.191986998E+01  2.431866385E+00  7.949291990E+01  8.041841573E+01  9.536743164E-07  0.00000E+00  9.000E+00
      21     1     1     2   513   512  6.926603230E+00 -3.386031030E+00  7.484927367E+00  1.074556542E+01  8.429369702E-08  0.00000E+00  9.000E+00
      21     1     1     2   515   513  4.993266751E+00  9.541646445E-01  1.858914240E+01  1.927172432E+01  2.384185791E-07  0.00000E+00  9.000E+00
</event>
<event>
      5  10001  3.52971E+09  7.42979E+00 -1.00000E+00  2.11954E-01
      21    -1     0     0   516   512  0.000000000E+00  0.000000000E+00  2.406619694E+01  2.406619694E+01  0.000000000E+00  0.00000E+00  9.000E+00
      21    -1     0     0   515   516  0.000000000E+00  0.000000000E+00 -2.102791623E+02  2.102791623E+02  0.000000000E+00  0.00000E+00  9.000E+00
      21     1     1     2   513   512  1.309555754E+01 -1.654158595E+00  2.196857465E+01  2.562904875E+01  4.129530925E-07  0.00000E+00  9.000E+00
      21     1     1     2   511   513 -5.732487494E+00  4.234524359E+00 -9.754762498E+01  9.780762623E+01  1.348699152E-06  0.00000E+00  9.000E+00
      21     1     1     2   515   511 -7.363070046E+00 -2.580365764E+00 -1.106339150E+02  1.109086843E+02  1.348699152E-06  0.00000E+00  9.000E+00
</event>
<event>
      5  10001  3.52971E+09  2.11053E+01 -1.00000E+00  1.64461E-01
      21    -1     0     0   514   515  0.000000000E+00  0.000000000E+00  3.680869591E+02  3.680869591E+02  0.000000000E+00  0.00000E+00  9.000E+00
      -4    -1     0     0     0   514  0.000000000E+00  0.000000000E+00 -1.092923630E+02  1.092923630E+02  0.000000000E+00  0.00000E+00  9.000E+00
      21     1     1     2   512   513 -7.065743871E+00  1.658796295E+00 -2.402126085E+01  2.509377043E+01  1.545128989E-06  0.00000E+00  9.000E+00
      21     1     1     2   513   515  1.244107112E+01  2.012684810E+00  3.673108064E+02  3.675269509E+02  5.394796609E-06  0.00000E+00  9.000E+00
      -4     1     1     2     0   512 -5.375327247E+00 -3.671481104E+00 -8.449494942E+01  8.475860070E+01  1.500000000E+00  0.00000E+00  9.000E+00
</event>
<event>
      5  10001  3.52971E+09  2.47995E+01 -1.00000E+00  1.59010E-01
      21    -1     0     0   513   511  0.000000000E+00  0.000000000E+00  4.448089709E+01  4.448089709E+01  0.000000000E+00  0.00000E+00  9.000E+00
      21    -1     0     0   512   514  0.000000000E+00  0.000000000E+00 -3.863982037E+01  3.863982037E+01  0.000000000E+00  0.00000E+00  9.000E+00
      -1     1     1     2     0   514  1.097671699E+01  7.041077275E+00 -1.326812595E+01  1.860691138E+01  3.300000131E-01  0.00000E+00  9.000E+00
      21     1     1     2   512   511 -2.092539876E+01 -2.975595977E+01  7.551095971E+00  3.715250336E+01  2.064765462E-07  0.00000E+00  9.000E+00
       1     1     1     2   513     0  9.948681771E+00  2.271488250E+01  1.155810670E+01  2.736130272E+01  3.300000131E-01  0.00000E+00  9.000E+00
</event>
<event>
      5  10001  3.52971E+09  5.29708E+00 -1.00000E+00  2.34212E-01
      21    -1     0     0   515   512  0.000000000E+00  0.000000000E+00  1.448643625E+01  1.448643625E+01  0.000000000E+00  0.00000E+00  9.000E+00
       2    -1     0     0   517     0  0.000000000E+00  0.000000000E+00 -5.315113446E+01  5.315113446E+01  0.000000000E+00  0.00000E+00  9.000E+00
      21     1     1     2   515   516  1.330779340E+01  1.346416470E+00  5.689524252E+00  1.453550442E+01  1.192092896E-07  0.00000E+00  9.000E+00
      21     1     1     2   517   512 -8.693951944E+00  1.255355115E+00 -3.627292201E-01  8.791603344E+00  3.015875019E-07  0.00000E+00  9.000E+00
       2     1     1     2   516     0 -4.613841459E+00 -2.601771585E+00 -4.399149324E+01  4.431046294E+01  3.300000131E-01  0.00000E+00  9.000E+00
</event>
<event>
      5  10001  3.52971E+09  5.46111E+00 -1.00000E+00  2.32006E-01
      -2    -1     0     0     0   511  0.000000000E+00  0.000000000E+00  1.023696366E+03  1.023696366E+03  0.000000000E+00  0.00000E+00  9.000E+00
       2    -1     0     0   511     0  0.000000000E+00  0.000000000E+00 -3.552069750E+00  3.552069750E+00  0.000000000E+00  0.00000E+00  9.000E+00
      -2     1     1     2     0   512  1.150526168E+01  1.552033410E+00  9.981124921E+02  9.981800618E+02  3.300000131E-01  0.00000E+00  9.000E+00
       2     1     1     2   513     0 -6.136129061E+00 -2.815150696E+00  4.292275529E-01  6.772760855E+00  3.300000131E-01  0.00000E+00  9.000E+00
      21     1     1     2   512   513 -5.369132624E+00  1.263117287E+00  2.160257641E+01  2.229561298E+01  4.129530925E-07  0.00000E+00  9.000E+00
</event>
<event>
      5  10001  3.52971E+09  5.78543E+00 -1.00000E+00  2.27950E-01
      21    -1     0     0   514   511  0.000000000E+00  0.000000000E+00  2.247596289E+02  2.247596289E+02  0.000000000E+00  0.00000E+00  9.000E+00
       2    -1     0     0   512     0  0.000000000E+00  0.000000000E+00 -1.955305543E+02  1.955305543E+02  0.000000000E+00  0.00000E+00  9.000E+00
      21     1     1     2   512   511 -5.136866793E+00  9.895541048E+00  2.243604270E+02  2.246372862E+02  2.697398305E-06  0.00000E+00  9.000E+00
       2     1     1     2   515     0  5.297063403E+00 -3.261641469E+00 -1.374507748E+02  1.375918659E+02  3.300000131E-01  0.00000E+00  9.000E+00
      21     1     1     2   514   515 -1.601966098E-01 -6.633899578E+00 -5.768057767E+01  5.806103105E+01  0.000000000E+00  0.00000E+00  9.000E+00
</event>
<event>
      5  10001  3.52971E+09  5.85013E+00 -1.00000E+00  2.27185E-01
      21    -1     0     0   513   512  0.000000000E+00  0.000000000E+00  3.488814215E+02  3.488814215E+02  0.000000000E+00  0.00000E+00  9.000E+00
      21    -1     0     0   516   511  0.000000000E+00  0.000000000E+00 -1.657746765E+01  1.657746765E+01  0.000000000E+00  0.00000E+00  9.000E+00
      21     1     1     2   515   512 -3.645030236E+00 -1.475684814E+01  3.351765784E+02  3.355210717E+02  6.607249480E-06  0.00000E+00  9.000E+00
      21     1     1     2   516   515  6.147415668E+00  9.468927779E+00  1.045237288E+01  1.538516855E+01  2.665600750E-07  0.00000E+00  9.000E+00
      21     1     1     2   513   511 -2.502385431E+00  5.287920363E+00 -1.332499743E+01  1.455264894E+01  5.057621821E-07  0.00000E+00  9.000E+00
</event>
<event>
      5  10001  3.52971E+09  1.77102E+01 -1.00000E+00  1.70844E-01
      21    -1     0     0   514   516  0.000000000E+00  0.000000000E+00  8.325029087E+01  8.325029087E+01  0.000000000E+00  0.00000E+00  9.000E+00
       1    -1     0     0   512     0  0.000000000E+00  0.000000000E+00 -4.552056362E+00  4.552056362E+00  0.000000000E+00  0.00000E+00  9.000E+00
      21     1     1     2   512   516 -7.493131789E+00  1.020488770E+00  5.228355498E+01  5.282763049E+01  6.743495762E-07  0.00000E+00  9.000E+00
       1     1     1     2   515     0 -1.593110458E+00 -4.166581352E+00 -2.056944523E+00  4.923243024E+00  3.300000131E-01  0.00000E+00  9.000E+00
      21     1     1     2   514   515  9.086242248E+00  3.146092582E+00  2.847162404E+01  3.005147372E+01  6.743495762E-07  0.00000E+00  9.000E+00
</event>
<event>
      5  10001  3.52971E+09  7.80462E+00 -1.00000E+00  2.09079E-01
      21    -1     0     0   513   512  0.000000000E+00  0.000000000E+00  5.245610507E+01  5.245610507E+01  0.000000000E+00  0.00000E+00  9.000E+00
       5    -1     0     0   512     0  0.000000000E+00  0.000000000E+00 -2.612673240E+01  2.612673240E+01  0.000000000E+00  0.00000E+00  9.000E+00
      21     1     1     2   513   516 -1.996756678E+00  1.453325695E+00  1.304263791E+01  1.327439627E+01  2.384185791E-07  0.00000E+00  9.000E+00
       5     1     1     2   511     0  2.951733600E+00 -1.166308046E+01 -2.365537201E+01  2.696955328E+01  4.800000191E+00  0.00000E+00  9.000E+00
      21     1     1     2   516   511 -9.549769218E-01  1.020975476E+01  3.694210678E+01  3.833888791E+01  6.743495762E-07  0.00000E+00  9.000E+00
</event>
<event>
      5  10001  3.52971E+09  1.72176E+01 -1.00000E+00  1.71919E-01
      21    -1     0     0   514   515  0.000000000E+00  0.000000000E+00  6.158716723E+01  6.158716723E+01  0.000000000E+00  0.00000E+00  9.000E+00
      21    -1     0     0   512   514  0.000000000E+00  0.000000000E+00 -6.486017829E+00  6.486017829E+00  0.000000000E+00  0.00000E+00  9.000E+00
      21     1     1     2   511   515  6.830965703E+00 -4.108861964E+00  3.462612485E+01  3.553186403E+01  8.259061849E-07  0.00000E+00  9.000E+00
      21     1     1     2   512   513 -1.302001675E+00  4.287084203E+00 -4.859568428E+00  6.609818804E+00  3.576278687E-07  0.00000E+00  9.000E+00
      21     1     1     2   513   511 -5.528964028E+00 -1.782222393E-01  2.533459298E+01  2.593150223E+01  3.371747881E-07  0.00000E+00  9.000E+00
</event>
<event>
      5  10001  3.52971E+09  5.20649E+00 -1.00000E+00  2.35479E-01
      21    -1     0     0   512   514  0.000000000E+00  0.000000000E+00  6.604051047E+01  6.604051047E+01  0.000000000E+00  0.00000E+00  9.000E+00
       1    -1     0     0   511     0  0.000000000E+00  0.000000000E+00 -7.531182060E+02  7.531182060E+02  0.000000000E+00  0.00000E+00  9.000E+00
      21     1     1     2   512   513 -2.406980946E+00  1.026387843E+01 -1.246258604E+02  1.250709632E+02  1.907348633E-06  0.00000E+00  9.000E+00
       1     1     1     2   513     0  7.477457026E+00 -9.081599080E+00 -6.281116245E+02  6.282218633E+02  3.300000131E-01  0.00000E+00  9.000E+00
      21     1     1     2   511   514 -5.070476080E+00 -1.182279352E+00  6.565978940E+01  6.586588993E+01  3.303624740E-06  0.00000E+00  9.000E+00
</event>
<event>
      5  10001  3.52971E+09  4.75452E+00 -1.00000E+00  2.46948E-01
      21    -1     0     0   515   513  0.000000000E+00  0.000000000E+00  7.147697921E+02  7.147697921E+02  0.000000000E+00  0.00000E+00  9.000E+00
      21    -1     0     0   512   514  0.000000000E+00  0.000000000E+00 -4.591871250E+01  4.591871250E+01  0.000000000E+00  0.00000E+00  9.000E+00
      21     1     1     2   515   514  1.004113467E+01 -3.868529882E+00 -1.619899644E+01  1.944729787E+01  2.968287372E-06  0.00000E+00  9.000E+00
      21     1     1     2   511   513 -1.025354688E+01  8.618299978E+00  7.128811305E+02  7.130069541E+02  1.525878906E-05  0.00000E+00  9.000E+00
      21     1     1     2   512   511  2.124122102E-01 -4.749770096E+00 -2.783105443E+01  2.823425270E+01  8.259061849E-07  0.00000E+00  9.000E+00
</event>
<event>
      5  10001  3.52971E+09  4.72220E+00 -1.00000E+00  2.47558E-01
       1    -1     0     0   516     0  0.000000000E+00  0.000000000E+00  4.724209884E+01  4.724209884E+01  0.000000000E+00  0.00000E+00  9.000E+00
      21    -1     0     0   511   513  0.000000000E+00  0.000000000E+00 -1.472856956E+02  1.472856956E+02  0.000000000E+00  0.00000E+00  9.000E+00
      -3     1     1     2     0   513  8.911764826E+00 -6.402140407E+00 -1.427378200E+02  1.431598484E+02  5.000000000E-01  0.00000E+00  9.000E+00
       3     1     1     2   516     0 -1.266963906E+01  3.542893736E+00  6.171777389E+00  1.454003734E+01  5.000000000E-01  0.00000E+00  9.000E+00
       1     1     1     2   511     0  3.757874231E+00  2.859246671E+00  3.652244580E+01  3.682790868E+01  3.300000131E-01  0.00000E+00  9.000E+00
</event>
<event>
      5  10001  3.52971E+09  3.62172E+00 -1.00000E+00  2.74060E-01
      21    -1     0     0   511   512  0.000000000E+00  0.000000000E+00  2.125403196E+01  2.125403196E+01  0.000000000E+00  0.00000E+00  9.000E+00
       2    -1     0     0   513     0  0.000000000E+00  0.000000000E+00 -3.343919779E+01  3.343919779E+01  0.000000000E+00  0.00000E+00  9.000E+00
      21     1     1     2   514   512 -6.700846281E-01  1.286331520E+01  1.640810064E+01  2.086000139E+01  2.384185791E-07  0.00000E+00  9.000E+00
       2     1     1     2   511     0 -2.863234592E+00 -1.206869155E+01 -2.730029327E+01  2.998776985E+01  3.300000131E-01  0.00000E+00  9.000E+00
      21     1     1     2   513   514  3.533319221E+00 -7.946236486E-01 -1.292973203E+00  3.845458511E+00  5.575503985E-08  0.00000E+00  9.000E+00
</event>
<event>
      5  10001  3.52971E+09  7.42261E+00 -1.00000E+00  2.12012E-01
       1    -1     0     0   513     0  0.000000000E+00  0.000000000E+00  3.028423760E+02  3.028423760E+02  0.000000000E+00  0.00000E+00  9.000E+00
      -2    -1     0     0     0   511  0.000000000E+00  0.000000000E+00 -7.728316485E+00  7.728316485E+00  0.000000000E+00  0.00000E+00  9.000E+00
      21     1     1     2   513   511  7.143260338E+00 -5.115026794E+00  4.627646505E+01  4.710308785E+01  1.348699152E-06  0.00000E+00  9.000E+00
       1     1     1     2   515     0 -7.600751355E+00  1.252333616E+01  2.539987878E+02  2.544211046E+02  3.300000131E-01  0.00000E+00  9.000E+00
      -2     1     1     2     0   515  4.574910166E-01 -7.408309368E+00 -5.161193344E+00  9.046500012E+00  3.300000131E-01  0.00000E+00  9.000E+00
</event>
<event>
      5  10001  3.52971E+09  7.31563E+00 -1.00000E+00  2.12876E-01
       1    -1     0     0   513     0  0.000000000E+00  0.000000000E+00  1.119314289E+02  1.119314289E+02  0.000000000E+00  0.00000E+00  9.000E+00
      21    -1     0     0   514   511  0.000000000E+00  0.000000000E+00 -1.171007192E+02  1.171007192E+02  0.000000000E+00  0.00000E+00  9.000E+00
      21     1     1     2   514   512 -4.169158810E+00 -1.543333044E+01 -1.148206610E+02  1.159282268E+02  1.907348633E-06  0.00000E+00  9.000E+00
       1     1     1     2   512     0  1.389719252E+00  8.666285307E+00  1.024930430E+02  1.028686959E+02  3.300000131E-01  0.00000E+00  9.000E+00
      21     1     1     2   513   511  2.779439558E+00  6.767045131E+00  7.158327646E+00  1.023522539E+01  0.000000000E+00  0.00000E+00  9.000E+00
</event>
<event>
      5  10001  3.52971E+09  1.26054E+01 -1.00000E+00  1.84804E-01
       1    -1     0     0   511     0  0.000000000E+00  0.000000000E+00  2.056202712E+02  2.056202712E+02  0.000000000E+00  0.00000E+00  9.000E+00
      21    -1     0     0   512   511  0.000000000E+00  0.000000000E+00 -2.300985941E+01  2.300985941E+01  0.000000000E+00  0.00000E+00  9.000E+00
      21     1     1     2   512   513 -1.223598108E+01 -1.212509769E+01 -1.918584477E+01  2.578437253E+01  4.129530925E-07  0.00000E+00  9.000E+00
      21     1     1     2   513   514 -6.892379046E-02  6.060077489E+00  9.125451501E+01  9.145554001E+01  0.000000000E+00  0.00000E+00  9.000E+00
       1     1     1     2   514     0  1.230490487E+01  6.065020200E+00  1.105417415E+02  1.113902180E+02  3.300000131E-01  0.00000E+00  9.000E+00
</event>
<event>
      5  10001  3.52971E+09  5.91624E+00 -1.00000E+00  2.26418E-01
      21    -1     0     0   514   511  0.000000000E+00  0.000000000E+00  3.536899328E+00  3.536899328E+00  0.000000000E+00  0.00000E+00  9.000E+00
       2    -1     0     0   512     0  0.000000000E+00  0.000000000E+00 -2.264567765E+02  2.264567765E+02  0.000000000E+00  0.00000E+00  9.000E+00
       2     1     1     2   514     0 -8.849115608E+00  7.979568032E+00 -1.133022617E+02  1.139275724E+02  3.300000131E-01  0.00000E+00  9.000E+00
       5     1     1     2   512     0  1.037241498E+01 -2.395581780E+00 -1.076661851E+02  1.082976141E+02  4.800000191E+00  0.00000E+00  9.000E+00
      -5     1     1     2     0   511 -1.523299373E+00 -5.583986252E+00 -1.951430355E+00  7.768489281E+00  4.800000191E+00  0.00000E+00  9.000E+00
</event>
<event>
      5  10001  3.52971E+09  2.67799E+00 -1.00000E+00  3.12669E-01
      21    -1     0     0   514   511  0.000000000E+00  0.000000000E+00  3.121120453E+00  3.121120453E+00  0.000000000E+00  0.00000E+00  9.000E+00
       1    -1     0     0   511     0  0.000000000E+00  0.000000000E+00 -1.044673165E+02  1.044673165E+02  0.000000000E+00  0.00000E+00  9.000E+00
      21     1     1     2   512   513 -1.296503628E+01  5.437286535E+00 -2.374144094E+01  2.759188773E+01  4.768371582E-07  0.00000E+00  9.000E+00
       1     1     1     2   513     0  1.029318911E+01 -5.259907828E+00 -7.600008054E+01  7.687481716E+01  3.300000131E-01  0.00000E+00  9.000E+00
      21     1     1     2   514   512  2.671847167E+00 -1.773787066E-01 -1.604674545E+00  3.121732033E+00  2.107342426E-08  0.00000E+00  9.000E+00
</event>
<event>
      5  10001  3.52971E+09  1.15676E+01 -1.00000E+00  1.88715E-01
      21    -1     0     0   515   513  0.000000000E+00  0.000000000E+00  1.690085550E+00  1.690085550E+00  0.000000000E+00  0.00000E+00  9.000E+00
      21    -1     0     0   511   512  0.000000000E+00  0.000000000E+00 -4.702660459E+02  4.702660459E+02  0.000000000E+00  0.00000E+00  9.000E+00
      21     1     1     2   515   512  1.475063543E+01  5.849863824E+00 -4.640175914E+01  4.904003878E+01  1.507891493E-06  0.00000E+00  9.000E+00
      21     1     1     2   511   516 -1.088560187E+01  1.357138650E+00 -3.644934616E+02  3.646585001E+02  7.629394531E-06  0.00000E+00  9.000E+00
      21     1     1     2   516   513 -3.865033555E+00 -7.207002474E+00 -5.768073964E+01  5.825759259E+01  0.000000000E+00  0.00000E+00  9.000E+00
</event>
<event>
      5  10001  3.52971E+09  6.35881E+00 -1.00000E+00  2.21618E-01
      21    -1     0     0   514   511  0.000000000E+00  0.000000000E+00  2.420207737E+01  2.420207737E+01  0.000000000E+00  0.00000E+00  9.000E+00
       2    -1     0     0   512     0  0.000000000E+00  0.000000000E+00 -3.508790766E+02  3.508790766E+02  0.000000000E+00  0.00000E+00  9.000E+00
      21     1     1     2   513   511 -1.155195576E+01  6.151263534E-02  2.234100712E+01  2.515098536E+01  8.259061849E-07  0.00000E+00  9.000E+00
       2     1     1     2   514     0  1.484796816E+01  5.376339841E+00 -1.538605623E+02  1.546691590E+02  3.300000131E-01  0.00000E+00  9.000E+00
      21     1     1     2   512   513 -3.296012405E+00 -5.437852476E+00 -1.951574440E+02  1.952610097E+02  0.000000000E+00  0.00000E+00  9.000E+00
</event>
<event>
      5  10001  3.52971E+09  7.68510E+00 -1.00000E+00  2.09972E-01
       2    -1     0     0   512     0  0.000000000E+00  0.000000000E+00  1.511894495E+01  1.511894495E+01  0.000000000E+00  0.00000E+00  9.000E+00
      -3    -1     0     0     0   514  0.000000000E+00  0.000000000E+00 -3.972827741E+02  3.972827741E+02  0.000000000E+00  0.00000E+00  9.000E+00
      21     1     1     2   512   514 -1.333593148E+01 -1.351636350E+00  9.011772422E+00  1.615196679E+01  3.576278687E-07  0.00000E+00  9.000E+00
       2     1     1     2   515     0  8.969144467E+00  7.675238587E+00 -1.145932534E+01  1.645539052E+01  3.300000131E-01  0.00000E+00  9.000E+00
      -3     1     1     2     0   515  4.366787009E+00 -6.323602237E+00 -3.797162762E+02  3.797943617E+02  5.000000000E-01  0.00000E+00  9.000E+00
</event>
<event>
      5  10001  3.52971E+09  8.31017E+00 -1.00000E+00  2.05529E-01
       2    -1     0     0   514     0  0.000000000E+00  0.000000000E+00  4.923733540E+02  4.923733540E+02  0.000000000E+00  0.00000E+00  9.000E+00
      21    -1     0     0   511   513  0.000000000E+00  0.000000000E+00 -1.320372745E+02  1.320372745E+02  0.000000000E+00  0.00000E+00  9.000E+00
      21     1     1     2   512   513 -2.649102179E+00  9.459141946E+00 -1.126569727E+02  1.130844224E+02  4.672030912E-06  0.00000E+00  9.000E+00
       2     1     1     2   511     0  1.038357892E+01 -1.490375180E+01  4.908142989E+02  4.911504102E+02  3.300000131E-01  0.00000E+00  9.000E+00
      21     1     1     2   514   512 -7.734476739E+00  5.444609853E+00 -1.782124665E+01  2.017579587E+01  5.840038640E-07  0.00000E+00  9.000E+00
</event>
<event>
      5  10001  3.52971E+09  7.97879E+00 -1.00000E+00  2.07816E-01
      21    -1     0     0   515   511  0.000000000E+00  0.000000000E+00  1.058556939E+01  1.058556939E+01  0.000000000E+00  0.00000E+00  9.000E+00
      21    -1     0     0   513   512  0.000000000E+00  0.000000000E+00 -1.080840991E+02  1.080840991E+02  0.000000000E+00  0.00000E+00  9.000E+00
      21     1     1     2   515   512  1.046815770E+01 -1.142882243E+01 -1.249283482E+01  1.990656247E+01  1.685873940E-07  0.00000E+00  9.000E+00
      21     1     1     2   516   511 -1.437499474E+01  4.471979632E+00 -1.784074045E+00  1.515988112E+01  1.931411236E-07  0.00000E+00  9.000E+00
      21     1     1     2   513   516  3.906837041E+00  6.956842795E+00 -8.322162085E+01  8.360322490E+01  9.536743164E-07  0.00000E+00  9.000E+00
</event>
<event>
      5  10001  3.52971E+09  5.64661E+00 -1.00000E+00  2.29639E-01
      21    -1     0     0   514   512  0.000000000E+00  0.000000000E+00  8.842588086E+02  8.842588086E+02  0.000000000E+00  0.00000E+00  9.000E+00
      21    -1     0     0   513   514  0.000000000E+00  0.000000000E+00 -1.871018247E-01  1.871018247E-01  0.000000000E+00  0.00000E+00  9.000E+00
      21     1     1     2   513   517 -1.044975977E+01  6.108619944E+00  4.051596583E+02  4.053404266E+02  7.629394531E-06  0.00000E+00  9.000E+00
      21     1     1     2   511   512  7.346205089E+00 -8.627987739E-01  2.938944539E+02  2.939875187E+02  5.394796609E-06  0.00000E+00  9.000E+00
      21     1     1     2   517   511  3.103554681E+00 -5.245821171E+00  1.850175946E+02  1.851179651E+02  0.000000000E+00  0.00000E+00  9.000E+00
</event>
<event>
      5  10001  3.52971E+09  5.77379E+00 -1.00000E+00  2.28089E-01
      21    -1     0     0   515   511  0.000000000E+00  0.000000000E+00  3.955338543E-01  3.955338543E-01  0.000000000E+00  0.00000E+00  9.000E+00
       2    -1     0     0   516     0  0.000000000E+00  0.000000000E+00 -2.055682874E+03  2.055682874E+03  0.000000000E+00  0.00000E+00  9.000E+00
      21     1     1     2   516   513  1.341538470E+01 -1.449738312E+01 -7.077611118E+02  7.080366784E+02  7.629394531E-06  0.00000E+00  9.000E+00
      21     1     1     2   513   511 -1.237665002E+01  8.818146751E+00 -2.304450551E+02  2.309455879E+02  6.031565972E-06  0.00000E+00  9.000E+00
       2     1     1     2   515     0 -1.038734674E+00  5.679236370E+00 -1.117081173E+03  1.117096141E+03  3.300000131E-01  0.00000E+00  9.000E+00
</event>
<event>
      5  10001  3.52971E+09  1.02992E+01 -1.00000E+00  1.94284E-01
      -1    -1     0     0     0   512  0.000000000E+00  0.000000000E+00  7.274189000E-01  7.274189000E-01  0.000000000E+00  0.00000E+00  9.000E+00
      21    -1     0     0   511   514  0.000000000E+00  0.000000000E+00 -9.271868706E+02  9.271868706E+02  0.000000000E+00  0.00000E+00  9.000E+00
      -1     1     1     2     0   514  1.711976481E+01  2.442784137E+00 -1.187251534E+02  1.199784334E+02  3.300000131E-01  0.00000E+00  9.000E+00
      21     1     1     2   513   512 -2.169554254E+00  8.781879461E-01 -1.778960552E+02  1.779114517E+02  1.907348633E-06  0.00000E+00  9.000E+00
      21     1     1     2   511   513 -1.495021056E+01 -3.320972083E+00 -6.298382430E+02  6.300244043E+02  1.078959322E-05  0.00000E+00  9.000E+00
</event>
<event>
      5  10001  3.52971E+09  7.72574E+00 -1.00000E+00  2.09666E-01
      21    -1     0     0   515   513  0.000000000E+00  0.000000000E+00  1.069076258E+02  1.069076258E+02  0.000000000E+00  0.00000E+00  9.000E+00
      21    -1     0     0   512   516  0.000000000E+00  0.000000000E+00 -3.213748748E+01  3.213748748E+01  0.000000000E+00  0.00000E+00  9.000E+00
      21     1     1     2   515   516  7.628114997E+00 -1.898640597E+01  9.947461132E+01  1.015572255E+02  0.000000000E+00  0.00000E+00  9.000E+00
      21     1     1     2   511   513 -1.272509354E+01  1.318056283E+01 -2.329219470E+01  2.963412857E+01  1.215700987E-06  0.00000E+00  9.000E+00
      21     1     1     2   512   511  5.096978541E+00  5.805843132E+00 -1.412278258E+00  7.853759266E+00  5.575503985E-08  0.00000E+00  9.000E+00
</event>
<event>
      5  10001  3.52971E+09  8.94276E+00 -1.00000E+00  2.01535E-01
      21    -1     0     0   514   511  0.000000000E+00  0.000000000E+00  1.033125502E+02  1.033125502E+02  0.000000000E+00  0.00000E+00  9.000E+00
      21    -1     0     0   512   513  0.000000000E+00  0.000000000E+00 -1.377522897E+01  1.377522897E+01  0.000000000E+00  0.00000E+00  9.000E+00
      21     1     1     2   512   517 -1.009724871E+01  1.726770346E+01  3.982188204E+01  4.456355354E+01  0.000000000E+00  0.00000E+00  9.000E+00
      21     1     1     2   517   511  4.766382319E+00 -1.008753631E+01  5.875719372E+01  5.980706148E+01  1.168007728E-06  0.00000E+00  9.000E+00
      21     1     1     2   514   513  5.330866391E+00 -7.180167152E+00 -9.041754584E+00  1.271716410E+01  4.616955931E-07  0.00000E+00  9.000E+00
</event>
<event>
      5  10001  3.52971E+09  2.97447E+00 -1.00000E+00  2.97988E-01
       2    -1     0     0   515     0  0.000000000E+00  0.000000000E+00  5.589742939E+02  5.589742939E+02  0.000000000E+00  0.00000E+00  9.000E+00
      21    -1     0     0   514   511  0.000000000E+00  0.000000000E+00 -5.711783875E-01  5.711783875E-01  0.000000000E+00  0.00000E+00  9.000E+00
      21     1     1     2   515   513 -7.346944995E+00 -1.104970783E+01  4.323160456E+02  4.325196376E+02  7.629394531E-06  0.00000E+00  9.000E+00
       2     1     1     2   514     0  8.703717387E+00  8.403029262E+00  8.890257062E+01  8.972258110E+01  3.300000131E-01  0.00000E+00  9.000E+00
      21     1     1     2   513   511 -1.356772392E+00  2.646678571E+00  3.718449936E+01  3.730325363E+01  6.743495762E-07  0.00000E+00  9.000E+00
</event>
<event>
      5  10001  3.52971E+09  3.24911E+01 -1.00000E+00  1.50669E-01
      21    -1     0     0   512   516  0.000000000E+00  0.000000000E+00  9.223300968E+01  9.223300968E+01  0.000000000E+00  0.00000E+00  9.000E+00
      21    -1     0     0   516   511  0.000000000E+00  0.000000000E+00 -4.258090770E+00  4.258090770E+00  0.000000000E+00  0.00000E+00  9.000E+00
      21     1     1     2   514   511 -3.500937259E+00  5.080986052E+00  4.846961744E+01  4.886078996E+01  0.000000000E+00  0.00000E+00  9.000E+00
       2     1     1     2   512     0  6.065576820E+00 -5.363835074E+00  4.272749947E+01  4.348919474E+01  3.300000131E-01  0.00000E+00  9.000E+00
      -2     1     1     2     0   514 -2.564639561E+00  2.828490220E-01 -3.222197997E+00  4.141115742E+00  3.300000131E-01  0.00000E+00  9.000E+00
</event>
<event>
      5  10001  3.52971E+09  3.15703E+00 -1.00000E+00  2.90292E-01
       2    -1     0     0   514     0  0.000000000E+00  0.000000000E+00  5.189604174E+02  5.189604174E+02  0.000000000E+00  0.00000E+00  9.000E+00
      -2    -1     0     0     0   513  0.000000000E+00  0.000000000E+00 -6.119711643E+00  6.119711643E+00  0.000000000E+00  0.00000E+00  9.000E+00
      -2     1     1     2     0   515 -6.961864551E+00 -6.764576211E+00 -1.462449055E+00  9.822153867E+00  3.300000131E-01  0.00000E+00  9.000E+00
      21     1     1     2   514   513  7.141262438E+00  9.916444669E+00  7.868689279E+01  7.963014882E+01  9.536743164E-07  0.00000E+00  9.000E+00
       2     1     1     2   515     0 -1.793978869E-01 -3.151868458E+00  4.356162621E+02  4.356278264E+02  3.300000131E-01  0.00000E+00  9.000E+00
</event>
<event>
      5  10001  3.52971E+09  1.55874E+01 -1.00000E+00  1.75823E-01
      21    -1     0     0   511   513  0.000000000E+00  0.000000000E+00  1.043827516E+01  1.043827516E+01  0.000000000E+00  0.00000E+00  9.000E+00
      21    -1     0     0   512   511  0.000000000E+00  0.000000000E+00 -3.372593941E+02  3.372593941E+02  0.000000000E+00  0.00000E+00  9.000E+00
      21     1     1     2   512   516  5.252990411E+00 -1.218054050E+01 -1.682455110E+02  1.687676256E+02  2.697398305E-06  0.00000E+00  9.000E+00
      21     1     1     2   516   515 -1.026883640E+01  2.693883868E+01 -1.606400635E+02  1.632065563E+02  0.000000000E+00  0.00000E+00  9.000E+00
      21     1     1     2   515   513  5.015845990E+00 -1.475829818E+01  2.064455590E+00  1.572348730E+01  5.389196074E-07  0.00000E+00  9.000E+00
</event>
<event>
      5  10001  3.52971E+09  4.11807E+00 -1.00000E+00  2.60520E-01
      21    -1     0     0   514   516  0.000000000E+00  0.000000000E+00  6.384778667E+01  6.384778667E+01  0.000000000E+00  0.00000E+00  9.000E+00
      21    -1     0     0   512   511  0.000000000E+00  0.000000000E+00 -1.660917801E+01  1.660917801E+01  0.000000000E+00  0.00000E+00  9.000E+00
      21     1     1     2   514   513 -1.121382202E+01 -1.782774246E+00  1.314627686E+01  1.737103000E+01  2.384185791E-07  0.00000E+00  9.000E+00
      21     1     1     2   512   516  1.070074870E+01  5.868762006E+00  4.750897664E+01  4.905151631E+01  9.536743164E-07  0.00000E+00  9.000E+00
      21     1     1     2   513   511  5.130733159E-01 -4.085987760E+00 -1.341664484E+01  1.403441837E+01  2.920019320E-07  0.00000E+00  9.000E+00
</event>
<event>
      5  10001  3.52971E+09  4.13440E+00 -1.00000E+00  2.60125E-01
       3    -1     0     0   515     0  0.000000000E+00  0.000000000E+00  1.282523844E+02  1.282523844E+02  0.000000000E+00  0.00000E+00  9.000E+00
      21    -1     0     0   517   515  0.000000000E+00  0.000000000E+00 -3.762410683E+00  3.762410683E+00  0.000000000E+00  0.00000E+00  9.000E+00
      21     1     1     2   517   511  3.506111739E+00  1.234616471E+01  3.082060408E+01  3.338607851E+01  6.743495762E-07  0.00000E+00  9.000E+00
      21     1     1     2   511   512  5.971037163E-01 -1.184611130E+01  1.206767410E+01  1.692086416E+01  2.384185791E-07  0.00000E+00  9.000E+00
       3     1     1     2   512     0 -4.103215455E+00 -5.000534031E-01  8.160169557E+01  8.170785244E+01  5.000000000E-01  0.00000E+00  9.000E+00
</event>
<event>
      5  10001  3.52971E+09  1.02436E+01 -1.00000E+00  1.94552E-01
      21    -1     0     0   513   511  0.000000000E+00  0.000000000E+00  4.606341438E+01  4.606341438E+01  0.000000000E+00  0.00000E+00  9.000E+00
      21    -1     0     0   515   514  0.000000000E+00  0.000000000E+00 -5.324558013E+01  5.324558013E+01  0.000000000E+00  0.00000E+00  9.000E+00
      21     1     1     2   513   514 -6.539623765E+00  1.103591542E+01  1.816319768E+01  2.223645336E+01  5.840038640E-07  0.00000E+00  9.000E+00
      21     1     1     2   516   511  6.863993629E+00 -2.127439447E+01  2.035809709E+01  3.023518456E+01  2.384185791E-07  0.00000E+00  9.000E+00
      21     1     1     2   515   516 -3.243698647E-01  1.023847904E+01 -4.570346052E+01  4.683735659E+01  9.536743164E-07  0.00000E+00  9.000E+00
</event>
<event>
      5  10001  3.52971E+09  9.04435E+00 -1.00000E+00  2.00934E-01
      21    -1     0     0   515   511  0.000000000E+00  0.000000000E+00  1.746150115E+02  1.746150115E+02  0.000000000E+00  0.00000E+00  9.000E+00
       4    -1     0     0   511     0  0.000000000E+00  0.000000000E+00 -1.012560690E+01  1.012560690E+01  0.000000000E+00  0.00000E+00  9.000E+00
      21     1     1     2   515   512  9.001607574E+00 -3.481210843E+00  1.575540600E+02  1.578493890E+02  2.697398305E-06  0.00000E+00  9.000E+00
       4     1     1     2   513     0 -3.908053926E+00  2.602071447E+00 -8.932840616E+00  1.020241652E+01  1.500000000E+00  0.00000E+00  9.000E+00
      21     1     1     2   512   513 -5.093553649E+00  8.791393958E-01  1.586818512E+01  1.668881284E+01  2.384185791E-07  0.00000E+00  9.000E+00
</event>
<event>
      5  10001  3.52971E+09  4.45918E+00 -1.00000E+00  2.52816E-01
      21    -1     0     0   514   512  0.000000000E+00  0.000000000E+00  2.050232999E+01  2.050232999E+01  0.000000000E+00  0.00000E+00  9.000E+00
      21    -1     0     0   515   514  0.000000000E+00  0.000000000E+00 -6.941881026E+02  6.941881026E+02  0.000000000E+00  0.00000E+00  9.000E+00
      21     1     1     2   511   516  1.446148970E+00  1.223740056E+01  1.803267990E+01  2.184085309E+01  2.384185791E-07  0.00000E+00  9.000E+00
      21     1     1     2   516   512  2.841047590E-01 -8.127597978E+00 -2.907063210E+01  3.018675562E+01  6.743495762E-07  0.00000E+00  9.000E+00
      21     1     1     2   515   511 -1.730253729E+00 -4.109802584E+00 -6.626478204E+02  6.626628239E+02  1.078959322E-05  0.00000E+00  9.000E+00
</event>
<event>
      5  10001  3.52971E+09  3.48389E+00 -1.00000E+00  2.78448E-01
      21    -1     0     0   513   514  0.000000000E+00  0.000000000E+00  3.907857290E+02  3.907857290E+02  0.000000000E+00  0.00000E+00  9.000E+00
      -2    -1     0     0     0   511  0.000000000E+00  0.000000000E+00 -4.359856666E+00  4.359856666E+00  0.000000000E+00  0.00000E+00  9.000E+00
      -2     1     1     2     0   512  1.614047387E+01  1.069836243E+01  2.527994126E+01  3.184578756E+01  3.300000131E-01  0.00000E+00  9.000E+00
      21     1     1     2   513   511 -1.416740118E+01 -1.356960389E+01  8.920868048E+01  9.134023253E+01  1.651812370E-06  0.00000E+00  9.000E+00
      21     1     1     2   512   514 -1.973072695E+00  2.871241459E+00  2.719372506E+02  2.719595656E+02  0.000000000E+00  0.00000E+00  9.000E+00
</event>
<event>
      5  10001  3.52971E+09  9.15155E+00 -1.00000E+00  2.00311E-01
      21    -1     0     0   515   514  0.000000000E+00  0.000000000E+00  7.173062887E-01  7.173062887E-01  0.000000000E+00  0.00000E+00  9.000E+00
       2    -1     0     0   512     0  0.000000000E+00  0.000000000E+00 -5.295398265E+02  5.295398265E+02  0.000000000E+00  0.00000E+00  9.000E+00
      21     1     1     2   512   514  7.979794734E+00 -1.677962351E+01 -3.048494344E+02  3.054151446E+02  0.000000000E+00  0.00000E+00  9.000E+00
      21     1     1     2   515   511 -3.480742195E-01  6.942386485E+00 -1.013185848E+02  1.015567502E+02  1.348699152E-06  0.00000E+00  9.000E+00
       2     1     1     2   511     0 -7.631720514E+00  9.837237020E+00 -1.226545009E+02  1.232852379E+02  3.300000131E-01  0.00000E+00  9.000E+00
</event>
<event>
      5  10001  3.52971E+09  5.59529E+00 -1.00000E+00  2.30281E-01
       2    -1     0     0   515     0  0.000000000E+00  0.000000000E+00  3.122329593E+02  3.122329593E+02  0.000000000E+00  0.00000E+00  9.000E+00
      21    -1     0     0   511   513  0.000000000E+00  0.000000000E+00 -2.511653468E+00  2.511653468E+00  0.000000000E+00  0.00000E+00  9.000E+00
      21     1     1     2   515   513  7.142327705E+00  1.548078587E+01  3.480347684E+01  3.875499421E+01  4.768371582E-07  0.00000E+00  9.000E+00
       2     1     1     2   512     0 -9.182047107E+00 -1.730857491E+01  2.642575616E+02  2.649831401E+02  3.300000131E-01  0.00000E+00  9.000E+00
      21     1     1     2   511   512  2.039719402E+00  1.827789043E+00  1.066026739E+01  1.100647850E+01  2.665600750E-07  0.00000E+00  9.000E+00
</event>
<event>
      5  10001  3.52971E+09  7.52898E+00 -1.00000E+00  2.11172E-01
      21    -1     0     0   514   513  0.000000000E+00  0.000000000E+00  5.029688184E+02  5.029688184E+02  0.000000000E+00  0.00000E+00  9.000E+00
      21    -1     0     0   511   514  0.000000000E+00  0.000000000E+00 -4.131920637E+00  4.131920637E+00  0.000000000E+00  0.00000E+00  9.000E+00
      21     1     1     2   512   516  6.883683124E+00 -1.198695139E+01  1.567243220E+02  1.573327214E+02  2.697398305E-06  0.00000E+00  9.000E+00
      21     1     1     2   511   512 -1.430232202E+00  6.796056547E+00 -6.018031190E-01  6.970947980E+00  3.309433507E-07  0.00000E+00  9.000E+00
      21     1     1     2   516   513 -5.453450923E+00  5.190894839E+00  3.427143788E+02  3.427970696E+02  3.814697266E-06  0.00000E+00  9.000E+00
</event>
<event>
      5  10001  3.52971E+09  3.67741E+00 -1.00000E+00  2.72373E-01
      -1    -1     0     0     0   513  0.000000000E+00  0.000000000E+00  2.828739763E+00  2.828739763E+00  0.000000000E+00  0.00000E+00  9.000E+00
      21    -1     0     0   511   514  0.000000000E+00  0.000000000E+00 -5.130436210E+02  5.130436210E+02  0.000000000E+00  0.00000E+00  9.000E+00
      -1     1     1     2     0   514  8.392892930E+00  3.535636424E+00 -2.122773172E+01  2.310123094E+01  3.300000131E-01  0.00000E+00  9.000E+00
      21     1     1     2   512   513 -1.136069144E+01 -1.364422689E+00 -1.548084016E+01  1.925054211E+01  2.920019320E-07  0.00000E+00  9.000E+00
      21     1     1     2   511   512  2.967798513E+00 -2.171213735E+00 -4.735063093E+02  4.735205877E+02  7.629394531E-06  0.00000E+00  9.000E+00
</event>
<event>
      5  10001  3.52971E+09  5.88954E+00 -1.00000E+00  2.26726E-01
      -3    -1     0     0     0   515  0.000000000E+00  0.000000000E+00  1.169551565E+02  1.169551565E+02  0.000000000E+00  0.00000E+00  9.000E+00
      21    -1     0     0   514   512  0.000000000E+00  0.000000000E+00 -5.251400561E+01  5.251400561E+01  0.000000000E+00  0.00000E+00  9.000E+00
      -3     1     1     2     0   512  1.817118651E+01 -2.560750573E+00  9.489003380E+01  9.664945927E+01  5.000000000E-01  0.00000E+00  9.000E+00
      21     1     1     2   513   515 -1.267761328E+01  4.683604660E+00  1.883663406E+01  2.318354618E+01  3.371747881E-07  0.00000E+00  9.000E+00
      21     1     1     2   514   513 -5.493573238E+00 -2.122854087E+00 -4.928551701E+01  4.963615661E+01  1.168007728E-06  0.00000E+00  9.000E+00
</event>
<event>
      5  10001  3.52971E+09  7.92485E+00 -1.00000E+00  2.08203E-01
      21    -1     0     0   514   512  0.000000000E+00  0.000000000E+00  7.228886703E+01  7.228886703E+01  0.000000000E+00  0.00000E+00  9.000E+00
      -1    -1     0     0     0   511  0.000000000E+00  0.000000000E+00 -2.954770205E+01  2.954770205E+01  0.000000000E+00  0.00000E+00  9.000E+00
      -1     1     1     2     0   513 -1.061627150E+01 -9.219117768E+00 -2.502612686E+01  2.870737325E+01  3.300000131E-01  0.00000E+00  9.000E+00
      21     1     1     2   514   511  3.467248896E+00  5.799607038E+00  6.399798381E+01  6.435370377E+01  6.743495762E-07  0.00000E+00  9.000E+00
      21     1     1     2   513   512  7.149022603E+00  3.419510730E+00  3.769308036E+00  8.775492059E+00  1.460009660E-07  0.00000E+00  9.000E+00
</event>
<event>
      5  10001  3.52971E+09  4.70279E+00 -1.00000E+00  2.47929E-01
      -1    -1     0     0     0   516  0.000000000E+00  0.000000000E+00  1.582326914E+02  1.582326914E+02  0.000000000E+00  0.00000E+00  9.000E+00
      21    -1     0     0   513   512  0.000000000E+00  0.000000000E+00 -7.891655487E+00  7.891655487E+00  0.000000000E+00  0.00000E+00  9.000E+00
      21     1     1     2   515   512 -1.360727343E+01  1.946392724E+00  4.299691871E+01  4.514068401E+01  0.000000000E+00  0.00000E+00  9.000E+00
      21     1     1     2   513   516  9.734490989E+00  7.212763600E-01 -3.250845068E+00  1.028827236E+01  9.424321831E-08  0.00000E+00  9.000E+00
      -1     1     1     2     0   515  3.872782437E+00 -2.667669084E+00  1.105949622E+02  1.106953905E+02  3.300000131E-01  0.00000E+00  9.000E+00
</event>
<event>
      5  10001  3.52971E+09  2.41311E+01 -1.00000E+00  1.59907E-01
      21    -1     0     0   511   514  0.000000000E+00  0.000000000E+00  5.288765972E+00  5.288765972E+00  0.000000000E+00  0.00000E+00  9.000E+00
      21    -1     0     0   514   515  0.000000000E+00  0.000000000E+00 -1.055118740E+02  1.055118740E+02  0.000000000E+00  0.00000E+00  9.000E+00
      -2     1     1     2     0   515 -7.145196571E-01  9.448242205E+00 -4.993185089E+01  5.082399485E+01  3.300000131E-01  0.00000E+00  9.000E+00
      21     1     1     2   511   512  2.277622224E+00 -4.250651557E+00  3.470010276E+00  5.941091900E+00  1.397852826E-07  0.00000E+00  9.000E+00
       2     1     1     2   512     0 -1.563102567E+00 -5.197590649E+00 -5.376126737E+01  5.403555318E+01  3.300000131E-01  0.00000E+00  9.000E+00
</event>
<event>
      5  10001  3.52971E+09  6.07143E+00 -1.00000E+00  2.24670E-01
      21    -1     0     0   513   515  0.000000000E+00  0.000000000E+00  3.247831550E+01  3.247831550E+01  0.000000000E+00  0.00000E+00  9.000E+00
      21    -1     0     0   514   513  0.000000000E+00  0.000000000E+00 -4.109248487E+00  4.109248487E+00  0.000000000E+00  0.00000E+00  9.000E+00
      21     1     1     2   514   516 -7.102050979E+00 -6.660650543E+00  4.979957364E+00  1.093633253E+01  8.429369702E-08  0.00000E+00  9.000E+00
      21     1     1     2   516   511  1.717625114E+00  8.801269065E-01  9.303625677E+00  9.501700381E+00  1.685873940E-07  0.00000E+00  9.000E+00
      21     1     1     2   511   515  5.384425864E+00  5.780523636E+00  1.408548398E+01  1.614953108E+01  0.000000000E+00  0.00000E+00  9.000E+00
</event>
<event>
      5  10001  3.52971E+09  5.03293E+00 -1.00000E+00  2.38013E-01
      21    -1     0     0   512   516  0.000000000E+00  0.000000000E+00  2.178492245E+02  2.178492245E+02  0.000000000E+00  0.00000E+00  9.000E+00
      21    -1     0     0   515   512  0.000000000E+00  0.000000000E+00 -5.235902280E+00  5.235902280E+00  0.000000000E+00  0.00000E+00  9.000E+00
      21     1     1     2   515   514 -8.305064053E+00  1.475797656E+01  1.006365685E+01  1.969896318E+01  2.064765462E-07  0.00000E+00  9.000E+00
      21     1     1     2   513   516  3.075040208E+00 -8.567372372E+00  1.427412878E+02  1.430312238E+02  2.697398305E-06  0.00000E+00  9.000E+00
      21     1     1     2   514   513  5.230023846E+00 -6.190604190E+00  5.980837760E+01  6.035493982E+01  9.536743164E-07  0.00000E+00  9.000E+00
</event>
<event>
      5  10001  3.52971E+09  1.00671E+01 -1.00000E+00  1.95417E-01
      -2    -1     0     0     0   511  0.000000000E+00  0.000000000E+00  8.021409525E+00  8.021409525E+00  0.000000000E+00  0.00000E+00  9.000E+00
      -3    -1     0     0     0   512  0.000000000E+00  0.000000000E+00 -1.456800171E+01  1.456800171E+01  0.000000000E+00  0.00000E+00  9.000E+00
      -3     1     1     2     0   511 -6.747712257E+00  6.606117494E+00 -5.326679687E+00  1.085338314E+01  5.000000000E-01  0.00000E+00  9.000E+00
      21     1     1     2   515   512  2.651060596E+00 -1.319538658E+00 -3.570952476E+00  4.639073845E+00  5.960464478E-08  0.00000E+00  9.000E+00
      -2     1     1     2     0   515  4.096651660E+00 -5.286578836E+00  2.351039981E+00  7.096954249E+00  3.300000131E-01  0.00000E+00  9.000E+00
</event>
</LesHouchesEvents>
 #Random number generator exit values:     54217137     300320642             0
